INSANE! Membrane UpperLeaflet>loPI:POPI:DPPI:PYPI:ERGO=180.0:5.0:3.0:2.0:10.0 LowerLeaflet>PSPI:POPI:POPS:YOPS:POPE:YOPE:POPC:YOPC:ERGO=6.0:14.0:21.0:9.0:9.0:21.0:12.0:48.0:60.0
49069
    1loPI    C1    1  15.700  18.697   9.803 -0.0731 -0.0858  0.1004
    1loPI    C2    2  15.397  18.553  10.020 -0.2203  0.2165  0.0995
    1loPI    C3    3  15.663  18.800  10.187  0.0200 -0.0355  0.0964
    1loPI   PO4    4  15.642  18.766   9.624 -0.1265 -0.1820  0.0942
    1loPI   GL1    5  15.449  18.818   9.199 -0.2391 -0.2198  0.1494
    1loPI   GL2    6  15.575  18.429   9.069 -0.0107 -0.3526  0.4406
    1loPI   C1A    7  15.121  18.924   8.815  0.0410 -0.1006 -0.4839
    1loPI   C2A    8  15.014  18.836   8.436 -0.1958  0.3539  0.3075
    1loPI   C3A    9  15.193  18.633   8.105 -0.1309  0.0779  0.0929
    1loPI   C4A   10  15.091  18.813   7.715 -0.0812 -0.0072 -0.2687
    1loPI   C5A   11  15.179  18.673   7.358  0.0835  0.0103  0.0420
    1loPI   C6A   12  15.288  18.548   7.003 -0.0198  0.1305 -0.3290
    1loPI   C1B   13  15.579  18.446   8.653 -0.2637 -0.0473 -0.1411
    1loPI   C2B   14  15.594  18.323   8.246  0.0957  0.2150  0.2884
    1loPI   C3B   15  15.899  18.075   8.005 -0.1360  0.0245 -0.0075
    1loPI   C4B   16  16.133  17.817   8.017 -0.2518 -0.1068  0.1348
    2loPI    C1   17   2.102  13.941   9.842 -0.0446  0.1789  0.0690
    2loPI    C2   18   1.774  13.774   9.999 -0.0651  0.2564  0.1093
    2loPI    C3   19   2.083  13.869  10.235  0.1572 -0.2005  0.0141
    2loPI   PO4   20   2.090  13.817   9.558  0.0971 -0.3074 -0.1254
    2loPI   GL1   21   1.947  13.608   9.247  0.3227  0.3844  0.2688
    2loPI   GL2   22   1.910  13.813   8.987 -0.3955  0.1193  0.0022
    2loPI   C1A   23   1.602  13.390   8.903  0.2692  0.1978 -0.2650
    2loPI   C2A   24   1.470  13.183   8.516 -0.0453 -0.3679 -0.0741
    2loPI   C3A   25   1.508  12.769   8.469 -0.2171  0.1204 -0.1700
    2loPI   C4A   26   1.551  12.322   8.263  0.0396  0.1983 -0.0514
    2loPI   C5A   27   1.769  12.065   8.214  0.4255  0.2114 -0.1088
    2loPI   C6A   28   1.755  11.577   8.203  0.2129  0.1479  0.0973
    2loPI   C1B   29   1.923  13.562   8.588 -0.1932  0.1969 -0.2336
    2loPI   C2B   30   2.003  13.446   8.255 -0.2701 -0.0322  0.2177
    2loPI   C3B   31   2.149  13.299   7.940 -0.0160  0.1113  0.1860
    2loPI   C4B   32   1.954  13.075   7.717  0.3511  0.1028  0.1620
    3loPI    C1   33  18.745  15.628   9.483 -0.0908 -0.2310 -0.0518
    3loPI    C2   34  18.618  15.516   9.846 -0.1894 -0.0636 -0.0335
    3loPI    C3   35  18.960  15.720   9.807 -0.1957 -0.0524 -0.0308
    3loPI   PO4   36  18.535  15.761   9.430  0.1954  0.0719 -0.1978
    3loPI   GL1   37  18.425  16.019   9.136 -0.0795  0.0298 -0.1599
    3loPI   GL2   38  18.827  16.026   9.076 -0.0245 -0.0342  0.2787
    3loPI   C1A   39  18.229  16.031   8.739 -0.3856  0.0938  0.1323
    3loPI   C2A   40  18.095  16.139   8.314  0.0268 -0.0383  0.0898
    3loPI   C3A   41  18.286  16.092   7.819 -0.0464 -0.0192  0.2278
    3loPI   C4A   42  18.144  15.743   7.528 -0.2805  0.1485  0.4329
    3loPI   C5A   43  18.316  15.347   7.584 -0.0419  0.2876  0.1920
    3loPI   C6A   44  18.606  14.936   7.591  0.3252 -0.0791  0.0115
    3loPI   C1B   45  18.624  16.283   8.770 -0.3495  0.3300 -0.0941
    3loPI   C2B   46  18.639  16.265   8.351 -0.2419 -0.0060  0.1345
    3loPI   C3B   47  18.737  16.479   8.005  0.0839  0.3796  0.0278
    3loPI   C4B   48  18.943  16.432   7.545  0.3015 -0.2233  0.1739
    4loPI    C1   49   6.519   7.895   9.824 -0.0632 -0.0200 -0.0275
    4loPI    C2   50   6.411   7.557  10.009 -0.0385  0.0740  0.1601
    4loPI    C3   51   6.624   7.540   9.672 -0.1158 -0.0992  0.1191
    4loPI   PO4   52   6.292   8.034   9.812  0.3419  0.1307 -0.2743
    4loPI   GL1   53   5.914   7.933   9.480 -0.0884 -0.2143  0.1493
    4loPI   GL2   54   6.168   7.650   9.472 -0.2810  0.2129 -0.0125
    4loPI   C1A   55   6.263   8.041   9.154  0.3350 -0.0383  0.0166
    4loPI   C2A   56   6.590   8.152   9.067 -0.0593  0.2841  0.2331
    4loPI   C3A   57   6.668   8.308   8.685 -0.1238 -0.2799 -0.0313
    4loPI   C4A   58   6.814   8.471   8.191  0.0059  0.0706  0.2005
    4loPI   C5A   59   6.892   8.835   7.939  0.1897  0.0102 -0.1557
    4loPI   C6A   60   6.876   8.953   7.512 -0.4089 -0.1242 -0.0952
    4loPI   C1B   61   6.341   7.542   9.125  0.3272  0.0358  0.1798
    4loPI   C2B   62   6.308   7.367   8.805  0.2713  0.2100 -0.2554
    4loPI   C3B   63   6.085   7.340   8.503  0.0120  0.3393 -0.1647
    4loPI   C4B   64   5.697   7.493   8.366 -0.2781 -0.0496 -0.2017
    5loPI    C1   65   1.030  10.433   9.707 -0.0045 -0.0775 -0.0879
    5loPI    C2   66   0.824  10.192   9.463 -0.1111  0.1200 -0.1955
    5loPI    C3   67   0.632  10.462   9.686  0.0096  0.1237 -0.0946
    5loPI   PO4   68   1.268  10.477   9.542  0.1922  0.2524 -0.2111
    5loPI   GL1   69   1.275  10.454   9.210 -0.4142 -0.0724 -0.1280
    5loPI   GL2   70   1.386  10.708   9.088 -0.5207  0.5047 -0.4143
    5loPI   C1A   71   0.924  10.435   8.905 -0.0171 -0.4312 -0.0139
    5loPI   C2A   72   0.935  10.474   8.466  0.0447  0.2638  0.2743
    5loPI   C3A   73   1.068  10.465   8.066 -0.1611 -0.2433 -0.1548
    5loPI   C4A   74   1.286  10.580   7.814 -0.0657 -0.2170  0.3424
    5loPI   C5A   75   1.500  10.683   7.364  0.3528  0.3348  0.0014
    5loPI   C6A   76   1.913  10.688   7.029  0.1748  0.1561  0.1914
    5loPI   C1B   77   1.387  10.495   8.657 -0.0239 -0.1189 -0.2831
    5loPI   C2B   78   1.489  10.515   8.297  0.0254  0.1451 -0.2318
    5loPI   C3B   79   1.727  10.271   7.957  0.0524  0.0234  0.2819
    5loPI   C4B   80   1.735  10.229   7.584  0.0310  0.0232  0.3722
    6loPI    C1   81  11.729  12.306   9.749  0.1150 -0.0460  0.0779
    6loPI    C2   82  11.420  12.186   9.974  0.0371 -0.0722 -0.0422
    6loPI    C3   83  11.498  12.576   9.934  0.0835 -0.0693  0.0724
    6loPI   PO4   84  11.887  12.095   9.576  0.1727 -0.1174  0.0677
    6loPI   GL1   85  12.145  12.002   9.268 -0.3155  0.1511  0.2557
    6loPI   GL2   86  12.279  12.068   9.012 -0.1099  0.0841 -0.2788
    6loPI   C1A   87  11.873  11.780   8.873 -0.0431  0.2688  0.0262
    6loPI   C2A   88  11.910  11.731   8.473 -0.1404  0.1602  0.0059
    6loPI   C3A   89  11.778  11.808   8.018 -0.0574  0.1239  0.0558
    6loPI   C4A   90  11.918  11.743   7.548 -0.5555  0.2273  0.1930
    6loPI   C5A   91  12.199  11.562   7.313 -0.2788 -0.1082 -0.1127
    6loPI   C6A   92  12.140  11.125   7.163  0.0323 -0.2470 -0.0686
    6loPI   C1B   93  12.011  12.339   8.923  0.2736  0.0814  0.1128
    6loPI   C2B   94  11.780  12.274   8.555  0.0624 -0.0900 -0.2396
    6loPI   C3B   95  11.857  12.299   8.177 -0.0341 -0.1450  0.0486
    6loPI   C4B   96  12.036  12.174   7.881  0.2982 -0.0210 -0.0755
    7loPI    C1   97  13.480   1.273   9.609  0.3182  0.1833  0.1538
    7loPI    C2   98  13.236   1.455   9.868  0.1964 -0.0325  0.1931
    7loPI    C3   99  13.507   1.193  10.000  0.0980 -0.1835  0.0990
    7loPI   PO4  100  13.427   1.464   9.367  0.3059  0.2077 -0.0033
    7loPI   GL1  101  13.393   1.404   8.918  0.2227  0.1690  0.0641
    7loPI   GL2  102  13.563   1.154   9.042  0.2143  0.2916 -0.0073
    7loPI   C1A  103  13.425   1.226   8.461 -0.1393  0.0769  0.0822
    7loPI   C2A  104  13.504   1.064   8.020 -0.0243  0.0745  0.0808
    7loPI   C3A  105  13.455   0.914   7.669  0.1125 -0.1132 -0.2491
    7loPI   C4A  106  13.736   0.628   7.597  0.0142 -0.0120  0.0136
    7loPI   C5A  107  13.927   0.158   7.696  0.0593 -0.5531  0.5684
    7loPI   C6A  108  14.330   0.053   7.857 -0.0269 -0.1898 -0.1549
    7loPI   C1B  109  13.836   1.096   8.752  0.0340 -0.5667 -0.3967
    7loPI   C2B  110  13.895   0.925   8.352  0.0958  0.0422 -0.1299
    7loPI   C3B  111  14.005   0.959   7.860 -0.4965  0.0832 -0.1551
    7loPI   C4B  112  14.118   1.136   7.483 -0.0203 -0.1444  0.0280
    8loPI    C1  113   4.724  18.141  10.181 -0.0277  0.1496  0.0735
    8loPI    C2  114   4.600  18.267  10.539 -0.3743 -0.1084  0.0495
    8loPI    C3  115   4.462  17.923  10.389  0.2551 -0.3290 -0.0551
    8loPI   PO4  116   4.688  18.271  10.008  0.1296  0.3049  0.1133
    8loPI   GL1  117   4.786  18.544   9.640 -0.0064  0.1355 -0.0683
    8loPI   GL2  118   5.129  18.606   9.614  0.1586  0.1172 -0.3290
    8loPI   C1A  119   4.589  18.452   9.309 -0.0742  0.3201 -0.0898
    8loPI   C2A  120   4.456  18.385   8.851 -0.0616 -0.0236 -0.1446
    8loPI   C3A  121   4.351  18.202   8.626 -0.1908  0.3854  0.0979
    8loPI   C4A  122   4.533  18.123   8.233  0.0248 -0.1278  0.1772
    8loPI   C5A  123   4.527  18.007   7.799  0.0698 -0.4115  0.0460
    8loPI   C6A  124   4.234  18.101   7.468  0.1459 -0.0998 -0.5319
    8loPI   C1B  125   4.928  18.844   9.243  0.1319 -0.1587 -0.0231
    8loPI   C2B  126   4.736  19.050   8.917  0.0586  0.0443 -0.4497
    8loPI   C3B  127   4.538  19.157   8.396  0.0590  0.0467 -0.0263
    8loPI   C4B  128   4.600  19.495   8.291 -0.1334 -0.0308 -0.0450
    9loPI    C1  129   3.149  13.965   9.609 -0.0910 -0.0127 -0.1690
    9loPI    C2  130   3.517  14.025   9.463 -0.2113  0.1032 -0.4309
    9loPI    C3  131   3.453  13.735   9.731  0.0638  0.0611 -0.4080
    9loPI   PO4  132   3.069  13.922   9.336  0.0428 -0.1018  0.2632
    9loPI   GL1  133   2.904  13.606   9.037 -0.4834  0.0860 -0.1469
    9loPI   GL2  134   2.774  13.285   9.060 -0.1804 -0.4938 -0.1481
    9loPI   C1A  135   2.900  13.881   8.582 -0.4420 -0.0817  0.1177
    9loPI   C2A  136   3.002  13.881   8.092  0.2585  0.0357  0.0032
    9loPI   C3A  137   3.074  13.946   7.707  0.1362 -0.1317 -0.1909
    9loPI   C4A  138   2.911  13.813   7.394  0.3037 -0.3914 -0.2283
    9loPI   C5A  139   2.734  13.846   6.944  0.1145  0.0253  0.0967
    9loPI   C6A  140   2.755  14.155   6.589 -0.2220 -0.0098 -0.5271
    9loPI   C1B  141   3.138  13.162   8.799  0.1166  0.1278 -0.0526
    9loPI   C2B  142   3.343  13.089   8.324 -0.0633  0.1394 -0.0461
    9loPI   C3B  143   3.462  12.997   7.905 -0.1189  0.3822  0.2575
    9loPI   C4B  144   3.712  12.818   7.534  0.0915  0.2651 -0.0391
   10loPI    C1  145   6.321  10.437   9.884 -0.1175 -0.0357  0.1621
   10loPI    C2  146   6.263  10.085  10.065  0.1656 -0.1250  0.0845
   10loPI    C3  147   6.583  10.307  10.157  0.0368  0.0705  0.0666
   10loPI   PO4  148   6.359  10.411   9.635 -0.1208 -0.2143 -0.1372
   10loPI   GL1  149   6.367  10.142   9.254  0.0501  0.1675 -0.0480
   10loPI   GL2  150   6.589  10.221   9.248 -0.0194 -0.2929 -0.1428
   10loPI   C1A  151   6.183  10.040   8.947  0.0483 -0.0233 -0.0836
   10loPI   C2A  152   6.141  10.043   8.505 -0.3920  0.2870 -0.0332
   10loPI   C3A  153   6.119  10.020   8.131  0.0015  0.2049  0.2144
   10loPI   C4A  154   5.971   9.904   7.801  0.0062 -0.0501  0.1458
   10loPI   C5A  155   5.569   9.883   7.509 -0.2742 -0.1080  0.2157
   10loPI   C6A  156   5.137   9.810   7.204  0.3403 -0.0708  0.1535
   10loPI   C1B  157   6.733  10.311   8.757  0.5002  0.0382 -0.1413
   10loPI   C2B  158   6.676  10.542   8.503  0.0929  0.0583 -0.2417
   10loPI   C3B  159   6.371  10.596   8.162  0.0823 -0.2024  0.2097
   10loPI   C4B  160   6.258  10.331   7.715  0.0531  0.2732  0.0708
   11loPI    C1  161  14.762   6.876   9.832 -0.1715  0.1501 -0.0204
   11loPI    C2  162  14.672   6.991  10.204  0.1590  0.0409  0.0960
   11loPI    C3  163  14.616   6.611  10.093  0.0161  0.0840  0.0185
   11loPI   PO4  164  14.597   7.149   9.637  0.3745  0.2408  0.3202
   11loPI   GL1  165  14.263   7.164   9.390  0.3755  0.2031  0.3334
   11loPI   GL2  166  13.980   7.124   9.454  0.1113  0.1040 -0.2008
   11loPI   C1A  167  14.264   7.286   8.993 -0.0973 -0.2582  0.0664
   11loPI   C2A  168  14.239   7.290   8.660  0.1910 -0.1462 -0.1247
   11loPI   C3A  169  14.479   7.290   8.281  0.2117  0.0326  0.0094
   11loPI   C4A  170  14.302   7.255   7.826 -0.0858 -0.0230 -0.1656
   11loPI   C5A  171  13.942   7.379   7.436 -0.1055  0.1020  0.0252
   11loPI   C6A  172  13.944   7.661   7.165  0.2424 -0.3129  0.2314
   11loPI   C1B  173  13.764   7.281   9.108  0.0256  0.1826  0.0246
   11loPI   C2B  174  13.762   7.210   8.718 -0.1293  0.0171 -0.1002
   11loPI   C3B  175  13.843   7.184   8.264  0.0960  0.3489  0.1046
   11loPI   C4B  176  13.754   7.224   7.902 -0.3536 -0.3696 -0.1554
   12loPI    C1  177  15.285   3.376   9.752  0.0404 -0.0533 -0.0247
   12loPI    C2  178  15.645   3.543   9.703 -0.0199  0.0353 -0.1726
   12loPI    C3  179  15.574   3.311  10.021  0.0083  0.4432  0.1405
   12loPI   PO4  180  15.270   3.228   9.572 -0.0693  0.1254  0.0500
   12loPI   GL1  181  15.131   3.157   9.251  0.1625 -0.2388 -0.1222
   12loPI   GL2  182  15.246   2.829   9.217 -0.0229 -0.0091 -0.1246
   12loPI   C1A  183  15.202   3.325   8.861  0.2654 -0.0896 -0.1487
   12loPI   C2A  184  15.210   3.183   8.493 -0.0213  0.1850  0.1038
   12loPI   C3A  185  15.296   3.283   8.066 -0.0284 -0.2851 -0.0344
   12loPI   C4A  186  15.258   3.175   7.662  0.4072  0.1334 -0.1156
   12loPI   C5A  187  15.095   3.056   7.244 -0.1654 -0.0840  0.0508
   12loPI   C6A  188  14.967   3.026   6.844  0.1028  0.1535  0.0882
   12loPI   C1B  189  15.473   2.913   8.856  0.2074  0.2759 -0.0900
   12loPI   C2B  190  15.620   2.933   8.449  0.2250 -0.2454  0.0371
   12loPI   C3B  191  15.808   2.909   8.115  0.1447  0.3314  0.2288
   12loPI   C4B  192  15.779   3.001   7.753 -0.0669  0.3775  0.1795
   13loPI    C1  193  18.987  15.175   9.451  0.1060 -0.0283  0.1319
   13loPI    C2  194  18.813  14.969   9.746  0.2652 -0.2585  0.0683
   13loPI    C3  195  19.086  15.248   9.831 -0.0430  0.0206  0.1615
   13loPI   PO4  196  18.749  15.166   9.168 -0.0632 -0.1107 -0.3042
   13loPI   GL1  197  18.590  15.488   8.936  0.0810 -0.0920  0.2200
   13loPI   GL2  198  18.971  15.398   8.688  0.0112 -0.0912 -0.0756
   13loPI   C1A  199  18.697  15.791   8.597  0.1428 -0.1109 -0.0314
   13loPI   C2A  200  18.962  15.935   8.203  0.0173  0.0182  0.4378
   13loPI   C3A  201  18.789  15.978   7.808  0.0600 -0.0148  0.4122
   13loPI   C4A  202  18.841  15.749   7.359 -0.2927  0.0582 -0.0232
   13loPI   C5A  203  18.683  15.319   7.296  0.0246  0.1881 -0.0978
   13loPI   C6A  204  18.289  15.209   7.052  0.2274  0.0233  0.1839
   13loPI   C1B  205  18.887  15.406   8.336  0.1323  0.1498  0.1356
   13loPI   C2B  206  18.536  15.661   8.119 -0.1531 -0.1649  0.3091
   13loPI   C3B  207  18.224  15.677   8.137  0.1733 -0.2840  0.0861
   13loPI   C4B  208  17.852  15.801   7.880 -0.1644  0.2372  0.1652
   14loPI    C1  209  15.396  16.312   9.659  0.0223 -0.0851 -0.0249
   14loPI    C2  210  15.063  16.349   9.877  0.0056  0.2945 -0.1067
   14loPI    C3  211  15.414  16.468  10.027  0.1153 -0.1342 -0.0081
   14loPI   PO4  212  15.315  16.089   9.469  0.2400 -0.2088  0.1828
   14loPI   GL1  213  15.292  16.171   9.071 -0.0732  0.0350  0.0958
   14loPI   GL2  214  15.119  16.455   8.930 -0.4119 -0.3064  0.0208
   14loPI   C1A  215  15.509  15.918   8.779  0.1053 -0.0061  0.1677
   14loPI   C2A  216  15.447  15.770   8.467  0.1491 -0.2319 -0.0347
   14loPI   C3A  217  15.308  15.982   8.109 -0.0441 -0.2234  0.0451
   14loPI   C4A  218  15.153  16.001   7.753 -0.1355 -0.0323 -0.0200
   14loPI   C5A  219  15.014  16.065   7.349  0.0148 -0.0469  0.1458
   14loPI   C6A  220  14.631  16.219   7.291  0.0524 -0.5653  0.2353
   14loPI   C1B  221  15.213  16.253   8.471  0.3004 -0.0248  0.1397
   14loPI   C2B  222  15.030  16.410   8.057  0.0906 -0.3794 -0.3796
   14loPI   C3B  223  15.004  16.464   7.664 -0.1821 -0.2287 -0.1339
   14loPI   C4B  224  15.043  16.574   7.240 -0.2417 -0.0642  0.1979
   15loPI    C1  225  15.141   6.827  10.221  0.0214 -0.1520  0.1754
   15loPI    C2  226  15.478   6.915  10.418  0.0811  0.0325 -0.0053
   15loPI    C3  227  15.206   7.200  10.349  0.0067 -0.0575 -0.0869
   15loPI   PO4  228  15.248   6.721   9.975 -0.1499 -0.0178  0.1015
   15loPI   GL1  229  15.115   6.837   9.516 -0.2210  0.2416  0.5486
   15loPI   GL2  230  15.147   7.092   9.365 -0.1012 -0.1485  0.2943
   15loPI   C1A  231  14.975   6.721   9.135 -0.0181  0.1013  0.0600
   15loPI   C2A  232  15.142   6.708   8.660  0.1394  0.3047  0.1835
   15loPI   C3A  233  15.170   6.713   8.198 -0.2060  0.1186 -0.4161
   15loPI   C4A  234  15.176   6.836   7.754 -0.0063  0.3830 -0.1592
   15loPI   C5A  235  15.374   6.701   7.355 -0.3470  0.0779  0.1350
   15loPI   C6A  236  15.522   6.866   6.936 -0.2216 -0.2745  0.2439
   15loPI   C1B  237  15.439   7.030   8.982  0.2679 -0.1952  0.0517
   15loPI   C2B  238  15.574   7.054   8.544  0.1902 -0.1356  0.3522
   15loPI   C3B  239  15.610   6.977   8.151  0.0778 -0.3241  0.0316
   15loPI   C4B  240  15.714   6.816   7.789 -0.3337  0.2749  0.1074
   16loPI    C1  241   7.442   0.661  10.219  0.1186  0.0222 -0.0293
   16loPI    C2  242   7.561   0.308  10.367 -0.0280  0.0194  0.0842
   16loPI    C3  243   7.547   0.630  10.604  0.0669  0.0929 -0.0094
   16loPI   PO4  244   7.426   0.626   9.918 -0.2472  0.2075 -0.0593
   16loPI   GL1  245   7.533   0.481   9.475 -0.1091 -0.2764  0.2056
   16loPI   GL2  246   7.660   0.099   9.391 -0.3986 -0.1915 -0.2659
   16loPI   C1A  247   7.292   0.326   9.100 -0.1751 -0.0068  0.4527
   16loPI   C2A  248   7.149   0.295   8.691  0.1529  0.0692  0.0246
   16loPI   C3A  249   7.042   0.290   8.126  0.1645  0.2387 -0.0204
   16loPI   C4A  250   7.124   0.440   7.761 -0.1911 -0.1439 -0.2831
   16loPI   C5A  251   7.543   0.452   7.499  0.0975  0.0971 -0.1298
   16loPI   C6A  252   7.815   0.189   7.277 -0.1512 -0.0035  0.0357
   16loPI   C1B  253   7.649   0.029   8.893  0.0707  0.1003 -0.1593
   16loPI   C2B  254   7.955   0.013   8.565  0.0272  0.1403  0.2023
   16loPI   C3B  255   7.970   0.086   8.099  0.0997 -0.0483 -0.1540
   16loPI   C4B  256   7.915  -0.010   7.738  0.0174  0.0178  0.0056
   17loPI    C1  257  12.329  15.379   9.332 -0.2088  0.2484  0.1255
   17loPI    C2  258  12.719  15.468   9.328 -0.1581  0.0281 -0.1674
   17loPI    C3  259  12.564  15.264   9.635 -0.0517  0.1497 -0.0316
   17loPI   PO4  260  12.268  15.241   9.149  0.0590  0.1880  0.1744
   17loPI   GL1  261  12.414  15.007   8.779  0.0710 -0.5293 -0.2819
   17loPI   GL2  262  12.375  14.739   8.726 -0.2194  0.0513 -0.0323
   17loPI   C1A  263  12.700  15.011   8.434  0.2176 -0.2477  0.1422
   17loPI   C2A  264  12.912  15.066   8.065  0.1085  0.2478 -0.0453
   17loPI   C3A  265  12.964  14.980   7.657 -0.0731  0.1017 -0.0940
   17loPI   C4A  266  13.120  15.056   7.219  0.3682 -0.2265  0.0380
   17loPI   C5A  267  12.988  15.303   6.864 -0.0555 -0.1657 -0.4671
   17loPI   C6A  268  12.754  15.341   6.631  0.0500  0.0670  0.0985
   17loPI   C1B  269  12.363  14.746   8.235  0.1974  0.1628  0.1790
   17loPI   C2B  270  12.475  14.911   7.923 -0.0740  0.2090 -0.3640
   17loPI   C3B  271  12.505  14.831   7.493  0.0728  0.2500  0.3426
   17loPI   C4B  272  12.212  14.716   7.119  0.0462 -0.0921 -0.4609
   18loPI    C1  273   0.180   0.969   9.571 -0.3570  0.1023  0.2729
   18loPI    C2  274   0.337   0.958   9.939  0.0653 -0.1497  0.0929
   18loPI    C3  275   0.353   0.634   9.706 -0.1637  0.0194 -0.1641
   18loPI   PO4  276   0.119   1.214   9.571  0.1813 -0.0524  0.0043
   18loPI   GL1  277  -0.218   1.382   9.464  0.1948  0.0689  0.0789
   18loPI   GL2  278  -0.337   1.055   9.336 -0.1186  0.1612  0.3701
   18loPI   C1A  279  -0.072   1.742   9.172 -0.0069 -0.0990  0.1719
   18loPI   C2A  280   0.129   1.827   8.689 -0.0810 -0.2364  0.2892
   18loPI   C3A  281   0.417   1.884   8.320 -0.1115 -0.1283 -0.0284
   18loPI   C4A  282   0.585   1.862   8.010 -0.0724 -0.1157  0.3640
   18loPI   C5A  283   0.651   1.665   7.605 -0.3095 -0.0181  0.2837
   18loPI   C6A  284   0.619   1.643   7.274  0.0350  0.0020 -0.1934
   18loPI   C1B  285  -0.140   1.173   8.950 -0.2350 -0.3243 -0.1021
   18loPI   C2B  286  -0.163   1.325   8.549  0.0844 -0.5811 -0.3562
   18loPI   C3B  287  -0.182   1.246   8.149  0.1144  0.2113 -0.0682
   18loPI   C4B  288   0.073   1.014   7.830 -0.0755 -0.0248 -0.0896
   19loPI    C1  289   4.514   6.698  10.180 -0.0051 -0.0708 -0.1131
   19loPI    C2  290   4.477   6.444   9.873  0.2183 -0.0495 -0.1588
   19loPI    C3  291   4.839   6.574   9.983  0.1408 -0.0652  0.1210
   19loPI   PO4  292   4.329   6.939  10.091 -0.3283 -0.2935 -0.0092
   19loPI   GL1  293   4.200   7.070   9.702  0.2399  0.3745 -0.0581
   19loPI   GL2  294   3.877   7.132   9.563 -0.0947  0.1853 -0.1180
   19loPI   C1A  295   4.190   6.773   9.413 -0.0931 -0.3747 -0.1181
   19loPI   C2A  296   4.017   6.870   9.039  0.1915 -0.2921 -0.1801
   19loPI   C3A  297   4.045   6.950   8.692  0.1291 -0.0394  0.3191
   19loPI   C4A  298   3.921   6.896   8.228  0.3216 -0.2509 -0.0170
   19loPI   C5A  299   3.827   6.969   7.839 -0.0594 -0.1086  0.1241
   19loPI   C6A  300   3.639   6.943   7.441 -0.1171  0.1027 -0.4669
   19loPI   C1B  301   3.610   7.129   9.286  0.1884  0.4314 -0.1141
   19loPI   C2B  302   3.540   7.122   8.821 -0.1408 -0.1151 -0.0448
   19loPI   C3B  303   3.524   7.141   8.394 -0.2815  0.0963 -0.2696
   19loPI   C4B  304   3.275   7.040   8.106  0.1908 -0.2997 -0.0111
   20loPI    C1  305   7.872  12.837   9.677  0.2183  0.0559  0.1109
   20loPI    C2  306   7.869  12.921  10.068 -0.2045  0.1092  0.1004
   20loPI    C3  307   7.872  12.540   9.946 -0.1048  0.0921  0.1551
   20loPI   PO4  308   8.030  13.168   9.642  0.0146  0.0459  0.2991
   20loPI   GL1  309   7.905  13.272   9.191 -0.2731 -0.0612  0.0370
   20loPI   GL2  310   8.057  12.925   9.104  0.1151 -0.0826 -0.2359
   20loPI   C1A  311   7.680  13.061   8.795 -0.1252 -0.1818 -0.0617
   20loPI   C2A  312   7.699  12.862   8.386 -0.1683 -0.2039 -0.0499
   20loPI   C3A  313   7.633  12.547   8.028 -0.0708  0.1476 -0.3037
   20loPI   C4A  314   7.581  12.322   7.680 -0.0586 -0.1414 -0.0458
   20loPI   C5A  315   7.487  12.202   7.316  0.1148  0.3249  0.1374
   20loPI   C6A  316   7.140  11.865   7.201 -0.0338 -0.3719 -0.1723
   20loPI   C1B  317   8.164  12.819   8.572 -0.0131  0.2264  0.1645
   20loPI   C2B  318   8.164  12.731   8.114  0.2259  0.0695 -0.0039
   20loPI   C3B  319   7.986  12.602   7.716 -0.1296  0.0449  0.0166
   20loPI   C4B  320   7.927  12.526   7.364 -0.0075  0.0066  0.3385
   21loPI    C1  321   3.463   5.289  10.552  0.0014  0.1024  0.0058
   21loPI    C2  322   3.761   5.140  10.774  0.1574  0.1595 -0.1636
   21loPI    C3  323   3.467   5.347  10.948  0.1086 -0.0692  0.0314
   21loPI   PO4  324   3.361   5.048  10.413  0.3871 -0.0609 -0.0497
   21loPI   GL1  325   3.392   4.715  10.014 -0.1563 -0.0005 -0.2541
   21loPI   GL2  326   3.134   4.723  10.109  0.0377 -0.1369 -0.2647
   21loPI   C1A  327   3.536   5.024   9.640 -0.1394  0.1459 -0.1497
   21loPI   C2A  328   3.492   4.914   9.204  0.1408 -0.0108 -0.1394
   21loPI   C3A  329   3.556   5.076   8.786 -0.0317  0.1343  0.1884
   21loPI   C4A  330   3.462   5.103   8.358  0.0868  0.1194 -0.3959
   21loPI   C5A  331   3.262   4.864   7.980 -0.0443  0.0537 -0.1819
   21loPI   C6A  332   3.170   5.035   7.680  0.2454 -0.1005  0.1547
   21loPI   C1B  333   3.062   4.733   9.608  0.0893  0.0143  0.4153
   21loPI   C2B  334   2.937   4.687   9.110 -0.4366 -0.1025 -0.1775
   21loPI   C3B  335   2.952   4.747   8.724  0.0059 -0.2273 -0.3381
   21loPI   C4B  336   3.014   4.800   8.392 -0.0356  0.4700 -0.1526
   22loPI    C1  337  14.913   9.758   9.743 -0.0291  0.3407  0.0555
   22loPI    C2  338  15.303   9.684   9.796  0.0686  0.6894 -0.1494
   22loPI    C3  339  15.089   9.850  10.090 -0.0525  0.0299  0.1536
   22loPI   PO4  340  14.839   9.515   9.661 -0.1181  0.0548  0.1823
   22loPI   GL1  341  14.706   9.533   9.249 -0.2737  0.0025 -0.1557
   22loPI   GL2  342  14.720   9.178   9.327  0.0178 -0.2833 -0.0437
   22loPI   C1A  343  14.777   9.438   8.724  0.0689 -0.2115 -0.1856
   22loPI   C2A  344  14.846   9.668   8.250  0.0293 -0.2592  0.0133
   22loPI   C3A  345  15.060   9.833   7.898 -0.0623 -0.2621  0.1991
   22loPI   C4A  346  15.185  10.252   7.581 -0.0880  0.1692  0.2842
   22loPI   C5A  347  15.276  10.477   7.120  0.0921  0.0201  0.2174
   22loPI   C6A  348  14.890  10.670   6.853  0.1661 -0.2092  0.0834
   22loPI   C1B  349  14.895   8.967   8.999  0.1160 -0.1052 -0.2991
   22loPI   C2B  350  15.116   9.099   8.683 -0.1540 -0.0026  0.0175
   22loPI   C3B  351  14.931   9.178   8.255  0.2687 -0.2410  0.2292
   22loPI   C4B  352  14.698   9.329   7.908  0.1087 -0.2036  0.0420
   23loPI    C1  353  15.640   7.785  10.305  0.0675  0.0303 -0.0989
   23loPI    C2  354  16.014   7.752  10.443  0.0254 -0.0355  0.0004
   23loPI    C3  355  15.744   7.967  10.645 -0.0686 -0.2331  0.0868
   23loPI   PO4  356  15.656   7.627   9.961 -0.1368  0.0703  0.1466
   23loPI   GL1  357  15.678   7.702   9.595  0.2511  0.4376  0.3359
   23loPI   GL2  358  15.477   7.910   9.345  0.2209 -0.3432 -0.0661
   23loPI   C1A  359  15.884   7.581   9.227 -0.2859  0.3799 -0.1087
   23loPI   C2A  360  15.862   7.273   8.984  0.0940  0.1025  0.3124
   23loPI   C3A  361  15.949   7.409   8.601 -0.0575 -0.0363 -0.0522
   23loPI   C4A  362  15.931   7.409   8.216 -0.0529  0.2044  0.2755
   23loPI   C5A  363  15.875   7.301   7.882  0.1507  0.0307  0.0350
   23loPI   C6A  364  16.246   7.281   7.636 -0.3408 -0.0691 -0.3377
   23loPI   C1B  365  15.514   7.938   8.941  0.0428 -0.2296 -0.0419
   23loPI   C2B  366  15.672   7.850   8.490  0.1628 -0.2062  0.0132
   23loPI   C3B  367  15.719   7.865   8.022  0.1021 -0.0133  0.2728
   23loPI   C4B  368  16.006   7.816   7.630 -0.1670 -0.1510  0.0063
   24loPI    C1  369   3.904   5.059  10.307 -0.2614  0.0201 -0.0334
   24loPI    C2  370   3.686   5.323  10.100 -0.2017  0.1715  0.0951
   24loPI    C3  371   3.939   5.450  10.383  0.0976  0.0025 -0.0910
   24loPI   PO4  372   3.949   4.848  10.135  0.0002 -0.3258 -0.2805
   24loPI   GL1  373   4.048   4.837   9.755 -0.0544  0.0547  0.0298
   24loPI   GL2  374   3.808   4.559   9.768  0.0458  0.2467  0.1512
   24loPI   C1A  375   3.956   4.811   9.360  0.1110 -0.2238  0.1269
   24loPI   C2A  376   3.977   4.821   8.963  0.1906 -0.2258 -0.2501
   24loPI   C3A  377   3.909   4.803   8.515  0.3451  0.3507  0.1004
   24loPI   C4A  378   3.741   4.770   8.122 -0.3571  0.2189  0.3355
   24loPI   C5A  379   3.655   4.740   7.768 -0.0925 -0.0900 -0.0479
   24loPI   C6A  380   3.325   4.570   7.455  0.2048  0.3836 -0.1438
   24loPI   C1B  381   3.437   4.414   9.538  0.2109 -0.0120 -0.0108
   24loPI   C2B  382   3.444   4.395   9.126 -0.0924  0.0032 -0.2007
   24loPI   C3B  383   3.441   4.549   8.779  0.0440 -0.4383 -0.0602
   24loPI   C4B  384   3.420   4.431   8.325 -0.0058 -0.3512 -0.2542
   25loPI    C1  385  17.356  13.912   9.610  0.2468 -0.0909 -0.2561
   25loPI    C2  386  17.493  13.561   9.475 -0.0593 -0.2851 -0.0766
   25loPI    C3  387  17.741  13.815   9.660  0.0815 -0.5857  0.1569
   25loPI   PO4  388  17.169  13.937   9.424 -0.0205  0.0213  0.0226
   25loPI   GL1  389  17.156  13.718   9.075  0.1215  0.4557 -0.2247
   25loPI   GL2  390  16.858  13.652   9.031  0.0180 -0.0878 -0.2946
   25loPI   C1A  391  17.476  13.887   8.701  0.3570 -0.2225  0.1918
   25loPI   C2A  392  17.792  13.881   8.260 -0.2263 -0.0796  0.0081
   25loPI   C3A  393  18.047  13.713   7.954 -0.1666  0.2163  0.0691
   25loPI   C4A  394  18.020  13.534   7.586  0.2289  0.1274  0.0529
   25loPI   C5A  395  17.745  13.316   7.446  0.0952  0.1292 -0.2619
   25loPI   C6A  396  17.478  13.108   7.282 -0.2058  0.2226  0.1161
   25loPI   C1B  397  16.838  13.562   8.565  0.4514  0.5368  0.2928
   25loPI   C2B  398  16.748  13.623   8.064  0.2371  0.2180 -0.2698
   25loPI   C3B  399  16.761  13.343   7.692  0.0611 -0.1419  0.2609
   25loPI   C4B  400  16.937  13.056   7.383  0.1237 -0.1209  0.3725
   26loPI    C1  401   0.153  16.167   9.859 -0.0222  0.1471 -0.0471
   26loPI    C2  402  -0.166  16.279  10.072  0.0474 -0.1280  0.2093
   26loPI    C3  403   0.167  16.162  10.259  0.1536 -0.2531 -0.0534
   26loPI   PO4  404   0.013  16.048   9.609  0.0033 -0.0461 -0.0022
   26loPI   GL1  405   0.072  16.213   9.187 -0.1082  0.2811 -0.1014
   26loPI   GL2  406   0.137  15.955   9.104 -0.0334 -0.0144  0.1769
   26loPI   C1A  407   0.164  16.465   8.788 -0.0691 -0.1908  0.2953
   26loPI   C2A  408   0.194  16.850   8.562  0.3067 -0.0299 -0.1117
   26loPI   C3A  409   0.385  17.146   8.415  0.0875 -0.1451 -0.1972
   26loPI   C4A  410   0.444  17.251   7.975  0.0664  0.1391 -0.3465
   26loPI   C5A  411   0.608  17.085   7.628  0.2901  0.1147 -0.4497
   26loPI   C6A  412   0.748  16.749   7.357 -0.1457 -0.2891  0.0352
   26loPI   C1B  413  -0.065  15.995   8.701 -0.2373  0.1509 -0.0721
   26loPI   C2B  414   0.039  16.316   8.341  0.2014  0.0207 -0.1063
   26loPI   C3B  415   0.052  16.273   7.907  0.0182 -0.0262 -0.2240
   26loPI   C4B  416   0.103  16.067   7.390  0.1772 -0.1618  0.1356
   27loPI    C1  417   1.364  18.786  10.096 -0.0793 -0.3361 -0.0562
   27loPI    C2  418   1.295  19.055  10.383  0.0933 -0.1302 -0.2047
   27loPI    C3  419   0.996  18.828  10.246 -0.0038 -0.1837  0.0895
   27loPI   PO4  420   1.502  18.914   9.915  0.1212  0.1877  0.5047
   27loPI   GL1  421   1.470  18.828   9.516  0.0692 -0.2682 -0.2732
   27loPI   GL2  422   1.626  19.035   9.416 -0.0020 -0.0580 -0.0911
   27loPI   C1A  423   1.405  18.605   9.153 -0.1765 -0.1170  0.1463
   27loPI   C2A  424   1.369  18.423   8.692 -0.1653  0.2948 -0.1415
   27loPI   C3A  425   1.494  18.523   8.259 -0.2417  0.1325  0.1929
   27loPI   C4A  426   1.875  18.474   8.003  0.1192  0.0890  0.2663
   27loPI   C5A  427   2.199  18.390   7.696 -0.0042 -0.1758 -0.2231
   27loPI   C6A  428   2.600  18.261   7.595 -0.0283  0.0248 -0.3407
   27loPI   C1B  429   1.613  19.050   9.020 -0.4927  0.2412  0.1246
   27loPI   C2B  430   1.603  19.177   8.537  0.2328  0.0253  0.1681
   27loPI   C3B  431   1.607  19.144   8.211  0.1441 -0.0162  0.0562
   27loPI   C4B  432   1.829  19.136   7.792 -0.1644 -0.0515 -0.2848
   28loPI    C1  433   2.870  18.664  10.653 -0.0010  0.0109 -0.1844
   28loPI    C2  434   2.966  18.456  10.981 -0.2236 -0.0316 -0.1446
   28loPI    C3  435   2.582  18.528  10.895 -0.1569  0.1820 -0.2711
   28loPI   PO4  436   2.950  18.565  10.393  0.2358  0.0426 -0.2530
   28loPI   GL1  437   2.756  18.654   9.924 -0.1786 -0.1419  0.2365
   28loPI   GL2  438   2.879  18.515   9.767 -0.1709  0.2042 -0.0375
   28loPI   C1A  439   2.430  18.703   9.632  0.0265  0.1129 -0.0071
   28loPI   C2A  440   2.442  18.687   9.081  0.1475  0.3306  0.0358
   28loPI   C3A  441   2.585  18.681   8.668 -0.0035  0.1067 -0.0404
   28loPI   C4A  442   2.553  18.583   8.220  0.1418 -0.1059 -0.2617
   28loPI   C5A  443   2.744  18.775   7.867 -0.0213  0.1130  0.2630
   28loPI   C6A  444   2.893  18.870   7.491  0.0587 -0.2325 -0.2452
   28loPI   C1B  445   2.854  18.510   9.305 -0.1534 -0.2350  0.0268
   28loPI   C2B  446   2.860  18.349   8.851 -0.1117  0.0589 -0.1124
   28loPI   C3B  447   2.874  18.256   8.427 -0.1444  0.0386 -0.1579
   28loPI   C4B  448   2.894  18.273   8.059  0.0239  0.0630 -0.0485
   29loPI    C1  449   5.316   8.272  10.370 -0.1630  0.0454  0.0864
   29loPI    C2  450   5.068   8.386  10.662 -0.2678  0.0605 -0.0077
   29loPI    C3  451   5.108   7.998  10.574  0.0593  0.0219  0.2863
   29loPI   PO4  452   5.255   8.501  10.179  0.0614 -0.1662 -0.0051
   29loPI   GL1  453   5.415   8.628   9.781 -0.1265  0.1519  0.3031
   29loPI   GL2  454   5.303   8.915   9.631 -0.0410 -0.3449  0.0026
   29loPI   C1A  455   5.326   8.442   9.437  0.2549  0.1525 -0.0722
   29loPI   C2A  456   5.354   8.426   9.041  0.3705  0.0865  0.2112
   29loPI   C3A  457   5.245   8.341   8.601 -0.1134  0.2986  0.0775
   29loPI   C4A  458   5.188   8.551   8.180 -0.0792 -0.2993  0.0122
   29loPI   C5A  459   5.393   8.549   7.752 -0.1440  0.0679  0.3165
   29loPI   C6A  460   5.445   8.483   7.303 -0.0561  0.3368 -0.0195
   29loPI   C1B  461   5.316   8.973   9.170  0.0817  0.1798  0.1012
   29loPI   C2B  462   5.282   8.853   8.736 -0.0063 -0.0251 -0.1706
   29loPI   C3B  463   5.438   8.994   8.351  0.3107  0.2472 -0.1094
   29loPI   C4B  464   5.499   9.044   7.940  0.0782  0.1110  0.3483
   30loPI    C1  465  13.396   6.717  10.146 -0.1145 -0.0847  0.0783
   30loPI    C2  466  13.285   7.004  10.402  0.0908  0.1738 -0.1170
   30loPI    C3  467  13.646   6.834  10.435 -0.0882 -0.1784  0.0942
   30loPI   PO4  468  13.357   6.737   9.825  0.2607 -0.1607 -0.0362
   30loPI   GL1  469  13.440   6.975   9.516 -0.0337  0.2555  0.1750
   30loPI   GL2  470  13.400   7.220   9.617 -0.0026 -0.0894  0.1033
   30loPI   C1A  471  13.543   6.843   9.083 -0.2226  0.0233  0.2098
   30loPI   C2A  472  13.578   6.696   8.629  0.0500 -0.0922  0.1557
   30loPI   C3A  473  13.518   6.851   8.183 -0.1318  0.3656  0.4365
   30loPI   C4A  474  13.492   6.705   7.880 -0.0287  0.0777  0.0155
   30loPI   C5A  475  13.254   6.439   7.761 -0.1961  0.0759  0.4315
   30loPI   C6A  476  13.428   6.332   7.296 -0.0954  0.0321 -0.0771
   30loPI   C1B  477  13.223   7.297   9.158  0.1449 -0.2437  0.0916
   30loPI   C2B  478  13.258   7.178   8.773  0.0028  0.1197 -0.2746
   30loPI   C3B  479  13.230   7.242   8.276  0.0233  0.3314  0.0240
   30loPI   C4B  480  13.242   7.275   7.784  0.1597  0.0861 -0.1988
   31loPI    C1  481  10.943   3.935   9.779 -0.0040  0.4630  0.3526
   31loPI    C2  482  10.671   4.178   9.616 -0.0656  0.2486  0.1295
   31loPI    C3  483  10.803   4.246   9.988 -0.2953  0.4533  0.1760
   31loPI   PO4  484  11.123   3.913   9.606 -0.0979 -0.1194 -0.0458
   31loPI   GL1  485  11.136   3.653   9.194  0.1637 -0.0038  0.1668
   31loPI   GL2  486  10.990   3.879   9.067  0.1104 -0.1170  0.1273
   31loPI   C1A  487  11.423   3.693   8.855  0.4313  0.0242  0.0190
   31loPI   C2A  488  11.452   3.274   8.478 -0.2218  0.3131  0.0443
   31loPI   C3A  489  11.509   2.986   8.146 -0.1119  0.1056 -0.1065
   31loPI   C4A  490  11.381   2.878   7.727  0.2182 -0.0345 -0.0815
   31loPI   C5A  491  11.307   2.614   7.265 -0.0987 -0.1826 -0.3346
   31loPI   C6A  492  11.290   2.306   7.009 -0.1143  0.0483  0.1056
   31loPI   C1B  493  10.963   3.891   8.693  0.1634 -0.2476 -0.0973
   31loPI   C2B  494  10.760   3.894   8.352  0.6435 -0.0038  0.4914
   31loPI   C3B  495  10.664   4.040   8.023 -0.1315  0.3655  0.0635
   31loPI   C4B  496  10.449   4.250   7.913  0.1421  0.0335 -0.0093
   32loPI    C1  497  16.301  17.912   9.728  0.0219  0.0747  0.2213
   32loPI    C2  498  16.204  17.524   9.736 -0.1250  0.1109  0.2218
   32loPI    C3  499  16.483  17.665   9.985  0.0652 -0.0299  0.0912
   32loPI   PO4  500  16.442  17.997   9.498 -0.0714 -0.2995 -0.1547
   32loPI   GL1  501  16.332  17.824   8.985  0.1282  0.2467 -0.4968
   32loPI   GL2  502  16.082  17.613   9.246 -0.2384 -0.1126  0.1439
   32loPI   C1A  503  16.403  17.762   8.498 -0.1652  0.2412 -0.1349
   32loPI   C2A  504  16.729  17.843   8.092  0.2456 -0.0269  0.3996
   32loPI   C3A  505  16.957  17.917   7.696 -0.1115  0.1075 -0.0130
   32loPI   C4A  506  17.142  17.924   7.354  0.3313 -0.2425  0.3989
   32loPI   C5A  507  16.990  18.265   7.249 -0.0113 -0.1416 -0.2787
   32loPI   C6A  508  16.679  18.489   7.060 -0.2647  0.2477  0.2047
   32loPI   C1B  509  15.872  17.620   8.909  0.2976 -0.3492 -0.1645
   32loPI   C2B  510  15.858  17.606   8.491  0.1262 -0.1059  0.3627
   32loPI   C3B  511  15.779  17.501   8.065  0.2176 -0.3836 -0.0754
   32loPI   C4B  512  15.668  17.382   7.634 -0.2774  0.1135 -0.1151
   33loPI    C1  513   2.235  18.340   9.933  0.0438  0.0422  0.3507
   33loPI    C2  514   2.208  18.223  10.314  0.4230 -0.1823  0.3147
   33loPI    C3  515   2.567  18.288  10.150  0.2556  0.0946  0.0469
   33loPI   PO4  516   1.963  18.120   9.813 -0.2481  0.4104 -0.1411
   33loPI   GL1  517   1.756  18.124   9.469  0.1919 -0.0552 -0.1727
   33loPI   GL2  518   2.014  18.094   9.338 -0.1228  0.4735  0.0837
   33loPI   C1A  519   1.400  18.072   9.166  0.2044 -0.1102 -0.0004
   33loPI   C2A  520   1.126  17.754   8.985 -0.4842 -0.0535  0.3981
   33loPI   C3A  521   1.317  17.366   8.767  0.2135 -0.0481  0.0977
   33loPI   C4A  522   1.444  17.153   8.405 -0.2902  0.1625  0.0041
   33loPI   C5A  523   1.488  17.198   7.965 -0.2914  0.0812  0.1225
   33loPI   C6A  524   1.604  17.244   7.670 -0.1698  0.1874  0.1002
   33loPI   C1B  525   1.898  18.189   8.947  0.0652  0.1664 -0.0788
   33loPI   C2B  526   1.675  18.001   8.711  0.0760  0.3684 -0.0293
   33loPI   C3B  527   1.350  17.801   8.504  0.0873 -0.4633  0.0403
   33loPI   C4B  528   1.351  17.674   8.112 -0.4498 -0.3351 -0.5777
   34loPI    C1  529  18.277   9.755   9.847  0.1610  0.3041  0.2370
   34loPI    C2  530  18.144   9.391   9.947  0.1995  0.1108 -0.3737
   34loPI    C3  531  18.455   9.551  10.141  0.2581 -0.2317 -0.1765
   34loPI   PO4  532  18.244   9.684   9.464 -0.1011 -0.0449  0.0937
   34loPI   GL1  533  18.322   9.712   9.125  0.0074 -0.0149 -0.0505
   34loPI   GL2  534  18.571   9.363   9.128  0.2248 -0.0223 -0.0068
   34loPI   C1A  535  18.271   9.663   8.784  0.2321  0.3667  0.1141
   34loPI   C2A  536  18.231   9.810   8.363 -0.1374 -0.2392 -0.2120
   34loPI   C3A  537  18.325   9.810   7.888 -0.1178  0.0545 -0.0948
   34loPI   C4A  538  18.240   9.867   7.447  0.1761 -0.3950  0.7164
   34loPI   C5A  539  18.090  10.049   7.009 -0.2274  0.0287 -0.1550
   34loPI   C6A  540  17.983  10.392   6.785 -0.0468 -0.0930 -0.1497
   34loPI   C1B  541  18.657   9.243   8.661 -0.0973  0.1251  0.0899
   34loPI   C2B  542  18.750   9.340   8.253 -0.2852 -0.1971  0.1116
   34loPI   C3B  543  18.835   9.133   7.952 -0.1804 -0.2186  0.1714
   34loPI   C4B  544  19.044   8.709   7.840  0.0113 -0.0209  0.0690
   35loPI    C1  545  15.751  11.853   9.516  0.0721 -0.0454  0.1902
   35loPI    C2  546  15.415  11.752   9.325  0.1610  0.1240 -0.0608
   35loPI    C3  547  15.400  11.867   9.707 -0.0312 -0.1225  0.0088
   35loPI   PO4  548  15.964  11.740   9.355 -0.1336  0.3590  0.1828
   35loPI   GL1  549  15.784  11.601   8.987 -0.0764  0.0302 -0.0793
   35loPI   GL2  550  16.121  11.673   8.846 -0.0458  0.0222 -0.1352
   35loPI   C1A  551  15.733  11.540   8.574  0.1213  0.0844 -0.2325
   35loPI   C2A  552  15.589  11.598   8.213 -0.2864  0.3609 -0.2449
   35loPI   C3A  553  15.246  11.653   8.010 -0.3051 -0.0273 -0.0743
   35loPI   C4A  554  15.111  11.593   7.578  0.0177 -0.3828  0.0164
   35loPI   C5A  555  15.152  11.955   7.261  0.1339 -0.3081  0.2726
   35loPI   C6A  556  15.108  12.024   6.931  0.1549 -0.0860  0.1645
   35loPI   C1B  557  16.361  11.495   8.529 -0.0211 -0.1833 -0.3127
   35loPI   C2B  558  16.775  11.438   8.348 -0.1789  0.1867 -0.0452
   35loPI   C3B  559  16.947  11.380   7.913  0.1031  0.0196  0.1208
   35loPI   C4B  560  16.724  11.315   7.523 -0.0433 -0.3400  0.0055
   36loPI    C1  561   3.451   8.623  10.415  0.0235  0.2735  0.0574
   36loPI    C2  562   3.639   8.327  10.609  0.1224  0.2725 -0.0388
   36loPI    C3  563   3.353   8.538  10.793 -0.0474  0.0251 -0.0150
   36loPI   PO4  564   3.399   8.530  10.151  0.1813 -0.1659  0.1844
   36loPI   GL1  565   3.499   8.605   9.730  0.2364  0.0726  0.0272
   36loPI   GL2  566   3.614   8.255   9.779 -0.3001 -0.0834  0.0594
   36loPI   C1A  567   3.532   8.615   9.256 -0.2256  0.1411 -0.2504
   36loPI   C2A  568   3.615   8.600   8.779  0.0655  0.0167  0.2255
   36loPI   C3A  569   3.403   8.568   8.308 -0.2941  0.0546  0.1737
   36loPI   C4A  570   3.331   8.528   7.860  0.0872  0.0452  0.0544
   36loPI   C5A  571   3.387   8.480   7.380 -0.3274 -0.0704 -0.1112
   36loPI   C6A  572   3.247   8.297   6.984 -0.0159 -0.1718  0.1691
   36loPI   C1B  573   3.618   8.135   9.350  0.1981  0.1899  0.2724
   36loPI   C2B  574   3.535   7.679   9.249  0.0666 -0.0186  0.0020
   36loPI   C3B  575   3.239   7.428   9.087 -0.2069 -0.0568  0.1374
   36loPI   C4B  576   3.158   7.369   8.721  0.1594 -0.3076 -0.3182
   37loPI    C1  577   2.678   6.170  10.670 -0.3516  0.2407 -0.0063
   37loPI    C2  578   2.469   6.343  10.964 -0.3532 -0.1545  0.2334
   37loPI    C3  579   2.554   5.953  10.982 -0.0549 -0.1125 -0.1264
   37loPI   PO4  580   2.674   6.421  10.294 -0.0648 -0.0121 -0.0776
   37loPI   GL1  581   2.738   6.472   9.950 -0.0262 -0.0663  0.0921
   37loPI   GL2  582   2.522   6.217   9.884  0.1996 -0.1483 -0.1175
   37loPI   C1A  583   2.781   6.485   9.466 -0.0023 -0.1368  0.0666
   37loPI   C2A  584   2.751   6.338   9.050  0.1578  0.0268 -0.1499
   37loPI   C3A  585   2.597   6.434   8.594 -0.1967  0.0490  0.1242
   37loPI   C4A  586   2.503   6.593   8.201  0.4419 -0.3050  0.2434
   37loPI   C5A  587   2.361   6.957   8.014 -0.1432  0.3214  0.0812
   37loPI   C6A  588   2.283   7.160   7.679 -0.2977 -0.0596 -0.0418
   37loPI   C1B  589   2.521   6.064   9.459 -0.0189 -0.1730 -0.4018
   37loPI   C2B  590   2.401   5.964   8.997 -0.0019 -0.2847 -0.1501
   37loPI   C3B  591   2.309   6.076   8.507 -0.0413  0.0890  0.1433
   37loPI   C4B  592   2.325   6.189   8.035 -0.0180  0.0812  0.2305
   38loPI    C1  593  18.579   4.914  10.393 -0.1643  0.1053 -0.0484
   38loPI    C2  594  18.472   4.891  10.778  0.6435  0.1633  0.1969
   38loPI    C3  595  18.763   4.655  10.636  0.2192 -0.0021 -0.4406
   38loPI   PO4  596  18.334   4.873  10.185  0.0425 -0.1688  0.1381
   38loPI   GL1  597  18.218   4.555   9.966  0.1762 -0.1361  0.2119
   38loPI   GL2  598  17.992   4.565   9.760  0.1990  0.1014  0.1689
   38loPI   C1A  599  18.391   4.773   9.577 -0.0650  0.0605 -0.1513
   38loPI   C2A  600  18.475   4.884   9.141  0.0459 -0.1779  0.1271
   38loPI   C3A  601  18.409   4.841   8.735  0.1146  0.0152 -0.0362
   38loPI   C4A  602  18.389   5.000   8.368 -0.0314  0.1524 -0.0361
   38loPI   C5A  603  18.066   4.776   8.171  0.2597  0.0781 -0.1385
   38loPI   C6A  604  17.800   4.977   7.936  0.0943  0.2382  0.1633
   38loPI   C1B  605  18.255   4.256   9.483 -0.1044  0.0007  0.0432
   38loPI   C2B  606  18.515   3.986   9.288 -0.1148  0.0188 -0.1403
   38loPI   C3B  607  18.608   3.597   9.038 -0.0899 -0.0793  0.2167
   38loPI   C4B  608  18.475   3.525   8.659  0.3451 -0.0526  0.0570
   39loPI    C1  609  18.456  18.859  10.073 -0.0165  0.1052  0.0043
   39loPI    C2  610  18.848  18.928  10.117  0.0164 -0.1133  0.0700
   39loPI    C3  611  18.715  18.554  10.068 -0.1922 -0.0484  0.1273
   39loPI   PO4  612  18.360  18.978   9.776  0.1414 -0.1956  0.1799
   39loPI   GL1  613  18.312  18.892   9.314 -0.0252 -0.0690 -0.2263
   39loPI   GL2  614  18.023  19.041   9.422  0.3180 -0.0174 -0.1763
   39loPI   C1A  615  18.413  18.842   8.907  0.3002 -0.0064  0.2285
   39loPI   C2A  616  18.380  18.964   8.453  0.2539 -0.0718  0.0082
   39loPI   C3A  617  18.484  19.389   8.134 -0.0470  0.0910 -0.1596
   39loPI   C4A  618  18.710  19.550   7.821  0.0563  0.0363  0.0259
   39loPI   C5A  619  19.045  19.384   7.577 -0.3401 -0.1309 -0.0552
   39loPI   C6A  620  19.135  19.515   7.094  0.3572  0.1544  0.1233
   39loPI   C1B  621  17.951  19.121   8.928  0.0131  0.3929  0.1017
   39loPI   C2B  622  18.092  19.474   8.775  0.1423 -0.0127 -0.2504
   39loPI   C3B  623  18.126  19.786   8.995  0.0270 -0.1241 -0.2607
   39loPI   C4B  624  18.428  19.952   9.102  0.0830  0.5753  0.0743
   40loPI    C1  625   7.827  16.804   9.328  0.0441  0.1097  0.2188
   40loPI    C2  626   7.949  16.519   9.580 -0.0212 -0.0163  0.1091
   40loPI    C3  627   7.701  16.805   9.708 -0.1315 -0.1351  0.1634
   40loPI   PO4  628   8.053  16.860   9.229  0.1445 -0.0872  0.0007
   40loPI   GL1  629   8.140  17.029   8.899 -0.1620 -0.0891  0.2458
   40loPI   GL2  630   8.363  17.055   8.643 -0.3005 -0.3189 -0.0529
   40loPI   C1A  631   7.908  17.193   8.524 -0.0828  0.2136  0.1336
   40loPI   C2A  632   7.561  17.391   8.415  0.1632  0.2307  0.1379
   40loPI   C3A  633   7.196  17.166   8.266 -0.3773  0.2418  0.3581
   40loPI   C4A  634   6.855  17.082   8.073  0.0404  0.0210  0.2456
   40loPI   C5A  635   6.497  17.062   7.778 -0.4726 -0.1538  0.0767
   40loPI   C6A  636   6.185  17.170   7.367  0.1142 -0.0864  0.0810
   40loPI   C1B  637   8.349  17.178   8.166  0.1945  0.0525  0.4342
   40loPI   C2B  638   8.380  17.081   7.772  0.1385 -0.2747 -0.0692
   40loPI   C3B  639   8.345  16.999   7.267 -0.0245  0.0208  0.2320
   40loPI   C4B  640   7.969  16.943   6.929  0.0171 -0.1611 -0.0232
   41loPI    C1  641  18.235   2.024  10.043 -0.0088 -0.0480 -0.0073
   41loPI    C2  642  18.634   1.990  10.028  0.0007  0.1080 -0.1530
   41loPI    C3  643  18.442   1.952  10.377  0.1474  0.0824 -0.0744
   41loPI   PO4  644  18.163   2.188   9.894 -0.4973 -0.2626  0.0828
   41loPI   GL1  645  18.299   2.366   9.528  0.1452  0.2402  0.0195
   41loPI   GL2  646  18.410   2.713   9.483  0.2008  0.0156 -0.1110
   41loPI   C1A  647  18.034   2.538   9.134 -0.2448 -0.0010 -0.2959
   41loPI   C2A  648  18.274   2.489   8.690  0.1944 -0.0909 -0.0764
   41loPI   C3A  649  18.568   2.420   8.401 -0.2369 -0.0306 -0.3665
   41loPI   C4A  650  18.729   2.344   7.939  0.0180 -0.2530  0.0252
   41loPI   C5A  651  18.952   2.142   7.643  0.2867 -0.2653  0.0351
   41loPI   C6A  652  18.832   2.035   7.179 -0.3328  0.1833 -0.0045
   41loPI   C1B  653  18.490   2.649   9.141 -0.1772 -0.3768 -0.0085
   41loPI   C2B  654  18.751   2.575   8.847 -0.0060  0.0285  0.1709
   41loPI   C3B  655  18.944   2.743   8.341  0.2648  0.0436 -0.2931
   41loPI   C4B  656  19.278   2.687   7.977  0.1080 -0.1467  0.2623
   42loPI    C1  657   3.509   3.677  10.386 -0.0642  0.1656  0.3447
   42loPI    C2  658   3.578   3.283  10.398  0.0144  0.1710  0.1144
   42loPI    C3  659   3.880   3.541  10.444 -0.0286  0.2049  0.2103
   42loPI   PO4  660   3.349   3.672  10.150 -0.2102 -0.2033 -0.0845
   42loPI   GL1  661   3.404   3.805   9.659 -0.4326 -0.0127 -0.3658
   42loPI   GL2  662   3.145   3.912   9.603 -0.1774  0.1212  0.0765
   42loPI   C1A  663   3.619   3.937   9.291 -0.2457 -0.0147  0.1831
   42loPI   C2A  664   3.593   3.904   8.887 -0.0222 -0.2005 -0.1672
   42loPI   C3A  665   3.475   3.964   8.612  0.0786  0.3495 -0.0109
   42loPI   C4A  666   3.398   3.949   8.279  0.0913  0.3230  0.0498
   42loPI   C5A  667   3.516   4.257   7.865 -0.0613 -0.5671 -0.0634
   42loPI   C6A  668   3.744   4.334   7.536  0.0001 -0.0684 -0.2398
   42loPI   C1B  669   3.114   3.766   9.105 -0.4432 -0.1950 -0.2246
   42loPI   C2B  670   3.047   3.691   8.676  0.1330 -0.1043 -0.0553
   42loPI   C3B  671   2.941   3.601   8.136  0.1636  0.2220 -0.0208
   42loPI   C4B  672   2.945   3.430   7.750 -0.0643  0.3811 -0.1396
   43loPI    C1  673  12.092  10.272   9.619 -0.0249  0.1141  0.0529
   43loPI    C2  674  11.959  10.511   9.910 -0.3463  0.0698 -0.0532
   43loPI    C3  675  11.773  10.505   9.556 -0.0348  0.0310 -0.2194
   43loPI   PO4  676  12.398  10.220   9.631  0.1951  0.0539 -0.0628
   43loPI   GL1  677  12.706  10.255   9.360  0.0191  0.1716 -0.1236
   43loPI   GL2  678  12.336  10.240   9.148 -0.3665  0.1224 -0.1590
   43loPI   C1A  679  12.823  10.191   8.868  0.0589  0.0615 -0.1088
   43loPI   C2A  680  12.570  10.142   8.539  0.0185 -0.1003 -0.1632
   43loPI   C3A  681  12.624  10.026   8.114  0.0830 -0.0907  0.0373
   43loPI   C4A  682  12.520  10.181   7.733 -0.1674  0.0524 -0.2182
   43loPI   C5A  683  12.050  10.302   7.636 -0.0736 -0.0348  0.2646
   43loPI   C6A  684  11.673  10.209   7.524  0.1179  0.0201  0.0671
   43loPI   C1B  685  12.447  10.605   8.830 -0.5135 -0.0935 -0.3220
   43loPI   C2B  686  12.634  10.692   8.391  0.0175  0.2447  0.0102
   43loPI   C3B  687  12.972  10.606   8.155 -0.1112 -0.0448 -0.0626
   43loPI   C4B  688  13.391  10.674   8.036 -0.3131 -0.3255 -0.3101
   44loPI    C1  689  16.378   7.266  10.352  0.1682 -0.0269 -0.0344
   44loPI    C2  690  16.715   7.069  10.439  0.0402 -0.1404  0.2141
   44loPI    C3  691  16.630   7.412  10.627  0.0886 -0.0326  0.0418
   44loPI   PO4  692  16.361   7.292  10.080 -0.3720 -0.3720 -0.0174
   44loPI   GL1  693  16.289   7.128   9.617 -0.1931 -0.0837 -0.0464
   44loPI   GL2  694  15.950   7.041   9.555 -0.2964  0.0109 -0.1112
   44loPI   C1A  695  16.611   7.185   9.276 -0.2308 -0.2113  0.3255
   44loPI   C2A  696  16.549   6.883   8.896  0.1120  0.1003  0.2845
   44loPI   C3A  697  16.624   6.853   8.481  0.1748  0.2454  0.1343
   44loPI   C4A  698  16.906   6.777   8.157 -0.4966 -0.0655  0.0203
   44loPI   C5A  699  16.840   6.775   7.705  0.0298 -0.2983 -0.1260
   44loPI   C6A  700  16.885   6.814   7.226 -0.0103  0.1563  0.1086
   44loPI   C1B  701  15.636   6.879   9.404 -0.3318 -0.1286 -0.3702
   44loPI   C2B  702  15.464   6.555   9.218  0.0994 -0.1349 -0.2161
   44loPI   C3B  703  15.167   6.265   9.258 -0.0524  0.0779 -0.2151
   44loPI   C4B  704  14.761   6.121   9.140  0.1024  0.0637 -0.0852
   45loPI    C1  705  11.647  18.322   9.945 -0.0256 -0.0111  0.1104
   45loPI    C2  706  12.008  18.193  10.059  0.1005  0.1456 -0.1045
   45loPI    C3  707  11.688  18.122  10.289  0.2225 -0.2346 -0.0454
   45loPI   PO4  708  11.627  18.276   9.760  0.3525  0.1830  0.0809
   45loPI   GL1  709  11.457  18.407   9.335  0.2850  0.2562  0.0476
   45loPI   GL2  710  11.411  18.759   9.241  0.0401 -0.0555 -0.1902
   45loPI   C1A  711  11.715  18.491   8.927  0.0497 -0.2282 -0.2601
   45loPI   C2A  712  11.989  18.497   8.627 -0.0432  0.0471 -0.0971
   45loPI   C3A  713  12.207  18.204   8.648 -0.0890 -0.0486  0.0068
   45loPI   C4A  714  12.282  18.067   8.228  0.0246  0.2466  0.4328
   45loPI   C5A  715  12.492  18.248   7.906 -0.0012  0.2611  0.2251
   45loPI   C6A  716  12.686  18.293   7.536  0.1550  0.0273 -0.2152
   45loPI   C1B  717  11.130  18.907   8.911 -0.2161 -0.2089  0.0728
   45loPI   C2B  718  10.984  18.845   8.512 -0.2425 -0.2128  0.3077
   45loPI   C3B  719  11.056  18.791   8.021  0.0857 -0.1894  0.0113
   45loPI   C4B  720  11.055  18.936   7.580 -0.1022 -0.1183 -0.1645
   46loPI    C1  721   8.572   5.391  10.378 -0.1028 -0.1859  0.0022
   46loPI    C2  722   8.672   5.020  10.267  0.0305 -0.2535  0.3356
   46loPI    C3  723   8.944   5.259  10.438 -0.1613 -0.1476  0.4983
   46loPI   PO4  724   8.384   5.666  10.221 -0.2459  0.2076 -0.4079
   46loPI   GL1  725   8.248   5.823   9.931 -0.0198  0.0955  0.1320
   46loPI   GL2  726   8.451   5.632   9.668  0.0515 -0.3068  0.1209
   46loPI   C1A  727   8.174   6.070   9.614 -0.0905  0.1734 -0.2052
   46loPI   C2A  728   7.819   5.919   9.365 -0.1195  0.1604  0.1893
   46loPI   C3A  729   7.783   5.964   8.850 -0.0329  0.2207  0.2083
   46loPI   C4A  730   7.622   5.944   8.388 -0.0273  0.2462 -0.0622
   46loPI   C5A  731   7.697   6.003   8.007  0.0353  0.4049  0.2232
   46loPI   C6A  732   7.988   6.143   7.670  0.4197 -0.1456  0.0495
   46loPI   C1B  733   8.139   5.511   9.376  0.2073  0.2371 -0.1313
   46loPI   C2B  734   8.195   5.700   8.906 -0.2562  0.0961 -0.1149
   46loPI   C3B  735   8.113   5.715   8.524 -0.1139 -0.1790  0.1444
   46loPI   C4B  736   8.136   5.741   8.063 -0.0490  0.0207 -0.0328
   47loPI    C1  737   1.879  17.495   9.931  0.1095 -0.0032 -0.0823
   47loPI    C2  738   1.900  17.772  10.218 -0.0448 -0.0962  0.0198
   47loPI    C3  739   2.067  17.413  10.274 -0.2353 -0.1787  0.0700
   47loPI   PO4  740   1.950  17.569   9.677 -0.0239 -0.3689  0.0681
   47loPI   GL1  741   1.985  17.273   9.353  0.0293 -0.0218  0.3353
   47loPI   GL2  742   2.276  17.607   9.234  0.0286 -0.3298 -0.0430
   47loPI   C1A  743   2.033  17.128   9.025  0.0628  0.0956  0.0393
   47loPI   C2A  744   1.918  17.089   8.591 -0.0393 -0.1228  0.3351
   47loPI   C3A  745   1.900  17.026   8.141  0.0083 -0.1385 -0.0161
   47loPI   C4A  746   2.104  17.080   7.688 -0.0435 -0.0788 -0.1758
   47loPI   C5A  747   2.216  17.423   7.493  0.1210  0.1650  0.1860
   47loPI   C6A  748   1.870  17.740   7.328 -0.2205  0.2319  0.3433
   47loPI   C1B  749   2.283  17.706   8.818 -0.0549  0.2430 -0.0725
   47loPI   C2B  750   2.561  17.880   8.442  0.1795 -0.0862  0.3768
   47loPI   C3B  751   2.581  17.769   8.031  0.1600  0.3007  0.1473
   47loPI   C4B  752   2.660  17.432   7.730  0.0300  0.2262 -0.1264
   48loPI    C1  753   9.412  14.944   9.766  0.3499  0.2991 -0.0848
   48loPI    C2  754   9.682  15.104  10.015  0.0518  0.5490  0.0851
   48loPI    C3  755   9.297  15.087  10.121  0.0340 -0.0616 -0.0360
   48loPI   PO4  756   9.502  15.000   9.477  0.2480 -0.0458  0.0837
   48loPI   GL1  757   9.475  15.333   9.095 -0.1200  0.1193 -0.4087
   48loPI   GL2  758   9.312  15.078   8.934  0.1224  0.1188 -0.0857
   48loPI   C1A  759   9.453  15.520   8.646 -0.2665 -0.0037  0.0068
   48loPI   C2A  760   9.504  15.634   8.168  0.1807 -0.2069 -0.0605
   48loPI   C3A  761   9.577  15.553   7.777  0.1241 -0.0406  0.0419
   48loPI   C4A  762   9.812  15.638   7.400 -0.4353  0.3962  0.3720
   48loPI   C5A  763   9.957  15.706   6.982 -0.1050 -0.1206  0.1008
   48loPI   C6A  764  10.245  15.614   6.725 -0.1261  0.0192 -0.0665
   48loPI   C1B  765   9.193  15.203   8.451 -0.0803  0.0297 -0.2857
   48loPI   C2B  766   9.119  15.286   8.070 -0.2914 -0.1515  0.1430
   48loPI   C3B  767   9.007  15.416   7.594  0.1851 -0.3002  0.2800
   48loPI   C4B  768   9.276  15.576   7.140  0.1095  0.1960 -0.0209
   49loPI    C1  769  13.375  10.261  10.096 -0.0088  0.1449 -0.0607
   49loPI    C2  770  13.572   9.983  10.306 -0.0628  0.1378 -0.0192
   49loPI    C3  771  13.529  10.352  10.454 -0.1485  0.1174  0.0071
   49loPI   PO4  772  13.189  10.039   9.862  0.0290  0.4540 -0.2273
   49loPI   GL1  773  13.140   9.954   9.517 -0.1338 -0.0620 -0.0164
   49loPI   GL2  774  13.435   9.772   9.430 -0.1028 -0.2179  0.0781
   49loPI   C1A  775  12.841   9.788   9.232  0.0734 -0.4567  0.0416
   49loPI   C2A  776  12.471   9.774   8.934  0.0435 -0.3222  0.0557
   49loPI   C3A  777  12.447   9.630   8.420  0.5170 -0.3614  0.1232
   49loPI   C4A  778  12.708   9.180   8.154 -0.0209  0.0061  0.0608
   49loPI   C5A  779  12.646   9.134   7.906  0.1054  0.1127  0.0167
   49loPI   C6A  780  12.409   8.812   7.639 -0.0800 -0.3926  0.1126
   49loPI   C1B  781  13.246  10.011   9.023  0.4523 -0.2170  0.2444
   49loPI   C2B  782  13.002   9.782   8.673  0.0167  0.0954  0.4345
   49loPI   C3B  783  12.926   9.588   8.308  0.2607  0.0731 -0.1695
   49loPI   C4B  784  12.891   9.566   7.894 -0.1543 -0.0124  0.2570
   50loPI    C1  785  15.600   5.339  10.313 -0.1373  0.0963  0.0402
   50loPI    C2  786  15.234   5.440  10.438 -0.0860  0.3100  0.0226
   50loPI    C3  787  15.556   5.586  10.625 -0.0089  0.1708  0.0002
   50loPI   PO4  788  15.537   5.333   9.973  0.2978 -0.2075 -0.1608
   50loPI   GL1  789  15.632   5.225   9.604 -0.1111 -0.2639  0.2510
   50loPI   GL2  790  15.707   5.419   9.332  0.0568 -0.2670 -0.2911
   50loPI   C1A  791  15.590   4.934   9.273 -0.0629  0.1251  0.0941
   50loPI   C2A  792  15.693   4.958   8.765  0.0637  0.1968 -0.4354
   50loPI   C3A  793  15.656   4.823   8.292 -0.1329 -0.3827  0.0956
   50loPI   C4A  794  15.579   4.883   7.892  0.1868  0.2007 -0.1609
   50loPI   C5A  795  15.521   4.696   7.507 -0.1629 -0.0627  0.1483
   50loPI   C6A  796  15.375   4.747   7.071  0.2451 -0.0585  0.0609
   50loPI   C1B  797  15.443   5.328   9.037  0.1761  0.0894  0.2580
   50loPI   C2B  798  15.253   5.424   8.629  0.0651 -0.4826 -0.2573
   50loPI   C3B  799  15.316   5.649   8.268 -0.1628 -0.0420 -0.0017
   50loPI   C4B  800  15.290   5.823   7.849  0.1043 -0.0526 -0.0862
   51loPI    C1  801   4.096  18.366  10.421 -0.1541  0.1156 -0.3119
   51loPI    C2  802   3.779  18.211  10.609  0.0243  0.1279  0.0048
   51loPI    C3  803   4.146  18.165  10.762  0.1554  0.2815 -0.2555
   51loPI   PO4  804   4.010  18.302  10.120  0.0207  0.1936 -0.0261
   51loPI   GL1  805   4.281  18.406   9.748  0.0407  0.1890 -0.0036
   51loPI   GL2  806   4.057  18.225   9.581  0.1304 -0.0619  0.0367
   51loPI   C1A  807   4.156  18.688   9.489 -0.3095  0.0744  0.2512
   51loPI   C2A  808   4.252  18.861   9.027 -0.0415 -0.2564  0.0243
   51loPI   C3A  809   4.168  18.729   8.549  0.2142  0.0313  0.2180
   51loPI   C4A  810   4.225  18.625   8.135  0.2001  0.0855 -0.1029
   51loPI   C5A  811   4.519  18.477   7.764  0.2631 -0.2120  0.1613
   51loPI   C6A  812   4.258  18.586   7.394 -0.3648 -0.4258 -0.3124
   51loPI   C1B  813   3.914  18.392   9.218  0.5450  0.1268  0.0610
   51loPI   C2B  814   3.812  18.278   8.836  0.0218  0.2567 -0.1580
   51loPI   C3B  815   3.889  18.305   8.427 -0.1999  0.0483 -0.0910
   51loPI   C4B  816   4.024  18.200   7.957 -0.2564  0.3413  0.0788
   52loPI    C1  817   2.830  12.291   9.375  0.1138 -0.0490 -0.0607
   52loPI    C2  818   2.509  12.523   9.429  0.0476 -0.1666  0.0557
   52loPI    C3  819   2.630  12.278   9.721  0.2514 -0.1132  0.0169
   52loPI   PO4  820   3.040  12.450   9.272 -0.2473 -0.0980  0.0412
   52loPI   GL1  821   3.362  12.611   8.982  0.0582  0.0704  0.2375
   52loPI   GL2  822   3.554  12.359   9.057  0.2428 -0.1775  0.0622
   52loPI   C1A  823   3.181  12.662   8.566 -0.0034  0.1487  0.0269
   52loPI   C2A  824   3.129  12.688   8.085  0.1929 -0.1670 -0.0783
   52loPI   C3A  825   3.261  12.513   7.747 -0.2171  0.0202  0.2179
   52loPI   C4A  826   3.060  12.566   7.456  0.2665 -0.5034 -0.3290
   52loPI   C5A  827   2.709  12.582   7.155 -0.2110  0.0194  0.0200
   52loPI   C6A  828   2.582  12.840   6.970  0.1866 -0.0226  0.3427
   52loPI   C1B  829   3.733  12.384   8.605  0.2852  0.1058  0.0496
   52loPI   C2B  830   3.553  12.476   8.167  0.1881 -0.1097 -0.0302
   52loPI   C3B  831   3.744  12.370   7.775 -0.1369  0.1051 -0.1862
   52loPI   C4B  832   3.534  12.244   7.357 -0.0476  0.0001  0.1220
   53loPI    C1  833  10.201   8.780   9.922  0.1958 -0.1018  0.1121
   53loPI    C2  834   9.913   8.800  10.198  0.2704 -0.0530  0.1870
   53loPI    C3  835  10.121   8.462  10.151  0.2339 -0.0726  0.1660
   53loPI   PO4  836  10.054   8.864   9.656 -0.2440  0.2612 -0.2373
   53loPI   GL1  837  10.309   8.856   9.259 -0.2455 -0.1026 -0.0723
   53loPI   GL2  838  10.167   8.587   9.196 -0.1409 -0.0107 -0.2905
   53loPI   C1A  839  10.472   9.015   8.826 -0.5230 -0.5632 -0.0864
   53loPI   C2A  840  10.420   9.037   8.398 -0.2582  0.0650  0.4057
   53loPI   C3A  841  10.491   8.945   7.887  0.2206  0.1061  0.0213
   53loPI   C4A  842  10.726   8.781   7.468 -0.0940  0.0860 -0.1020
   53loPI   C5A  843  11.080   8.694   7.376  0.1311  0.0198 -0.1707
   53loPI   C6A  844  11.480   8.481   7.511 -0.0693 -0.0245 -0.1571
   53loPI   C1B  845  10.335   8.545   8.857  0.2694 -0.0416 -0.2581
   53loPI   C2B  846  10.427   8.537   8.535 -0.3763 -0.1414  0.2191
   53loPI   C3B  847  10.468   8.407   8.075 -0.1375 -0.0060  0.0174
   53loPI   C4B  848  10.822   8.398   7.769  0.1989 -0.0827 -0.0811
   54loPI    C1  849   0.499  15.903   9.553  0.1590  0.2255  0.2441
   54loPI    C2  850   0.642  16.169   9.816  0.1643  0.1861  0.2812
   54loPI    C3  851   0.500  15.817   9.944  0.3055  0.1052  0.2180
   54loPI   PO4  852   0.736  15.816   9.405  0.1183  0.1366 -0.0163
   54loPI   GL1  853   0.949  15.675   8.940 -0.1370 -0.2558  0.3556
   54loPI   GL2  854   1.216  15.472   8.818 -0.2263 -0.2585  0.1249
   54loPI   C1A  855   0.760  15.413   8.592  0.0323 -0.0529  0.0373
   54loPI   C2A  856   0.625  15.305   8.192  0.0275  0.2841  0.0184
   54loPI   C3A  857   0.423  15.080   7.896  0.1329  0.1415 -0.1851
   54loPI   C4A  858   0.233  14.749   7.601 -0.2499 -0.0296  0.0412
   54loPI   C5A  859   0.133  14.348   7.602 -0.3045 -0.1256 -0.0283
   54loPI   C6A  860  -0.168  14.045   7.418  0.1128  0.1424 -0.0270
   54loPI   C1B  861   1.302  15.485   8.383  0.3360 -0.2039 -0.0619
   54loPI   C2B  862   1.600  15.411   8.257 -0.1769  0.1318 -0.1742
   54loPI   C3B  863   1.557  15.046   7.962 -0.0999 -0.1040 -0.1277
   54loPI   C4B  864   1.342  14.978   7.558  0.0547  0.1620 -0.0233
   55loPI    C1  865   8.261  13.638   9.427  0.2520  0.1886  0.1618
   55loPI    C2  866   8.140  13.621   9.808 -0.0166 -0.2002  0.0646
   55loPI    C3  867   8.504  13.490   9.708  0.1811  0.2068  0.2332
   55loPI   PO4  868   8.089  13.732   9.233  0.2198  0.1271  0.1132
   55loPI   GL1  869   8.158  13.903   8.885 -0.2628  0.0445 -0.2094
   55loPI   GL2  870   8.418  14.065   8.894 -0.0520 -0.0508 -0.0740
   55loPI   C1A  871   8.139  13.786   8.539 -0.0360  0.2649  0.1103
   55loPI   C2A  872   8.134  13.788   8.121 -0.0350  0.0321 -0.1029
   55loPI   C3A  873   8.250  13.967   7.701 -0.3665  0.3711  0.0652
   55loPI   C4A  874   8.121  13.822   7.380 -0.0158  0.1341 -0.2711
   55loPI   C5A  875   8.087  13.398   7.164  0.0647 -0.0614  0.1039
   55loPI   C6A  876   7.962  13.026   7.356 -0.1411 -0.0324  0.1466
   55loPI   C1B  877   8.598  14.017   8.485 -0.1829 -0.0003 -0.1415
   55loPI   C2B  878   8.645  14.005   7.988  0.0672  0.2139 -0.4600
   55loPI   C3B  879   8.780  14.060   7.548 -0.0376  0.0988  0.2329
   55loPI   C4B  880   8.985  13.974   7.276 -0.0874 -0.0611 -0.1262
   56loPI    C1  881  12.499   9.738  10.402  0.3656 -0.0314  0.0317
   56loPI    C2  882  12.812   9.610  10.618  0.2225 -0.1995  0.1427
   56loPI    C3  883  12.448   9.628  10.784  0.1661 -0.0361  0.0045
   56loPI   PO4  884  12.458   9.615  10.146  0.1290 -0.3950  0.3461
   56loPI   GL1  885  12.434   9.687   9.654  0.0836  0.1802 -0.1885
   56loPI   GL2  886  12.195   9.766   9.462 -0.1593 -0.3264  0.0257
   56loPI   C1A  887  12.564   9.373   9.388 -0.0917  0.3280  0.3866
   56loPI   C2A  888  12.455   9.245   8.906 -0.2085  0.0069 -0.2058
   56loPI   C3A  889  12.349   9.109   8.471 -0.0315  0.1026  0.2332
   56loPI   C4A  890  12.183   8.935   8.087  0.1253  0.3813 -0.0045
   56loPI   C5A  891  11.963   9.043   7.827  0.0029  0.0488  0.1295
   56loPI   C6A  892  12.021   9.327   7.573  0.2602 -0.3330 -0.3096
   56loPI   C1B  893  12.030   9.695   9.067  0.2202  0.1708  0.1964
   56loPI   C2B  894  11.990   9.480   8.640 -0.1386 -0.3302  0.0060
   56loPI   C3B  895  11.784   9.208   8.413 -0.2942  0.0501  0.2882
   56loPI   C4B  896  11.618   8.755   8.084 -0.1331 -0.1852 -0.0787
   57loPI    C1  897   4.534   0.538   9.951 -0.0515  0.1722  0.0864
   57loPI    C2  898   4.435   0.202   9.759  0.0859  0.0657  0.1997
   57loPI    C3  899   4.819   0.310   9.787  0.0350  0.2832  0.0803
   57loPI   PO4  900   4.394   0.682   9.888 -0.1034 -0.0101  0.0129
   57loPI   GL1  901   4.222   0.677   9.547  0.0923  0.1630 -0.0255
   57loPI   GL2  902   4.245   1.043   9.589 -0.1207  0.0613 -0.1847
   57loPI   C1A  903   4.126   0.632   9.147 -0.0525  0.0700  0.2637
   57loPI   C2A  904   4.359   0.827   8.693 -0.0826  0.2366  0.4139
   57loPI   C3A  905   4.512   1.077   8.482 -0.1710 -0.1591 -0.3280
   57loPI   C4A  906   4.776   1.196   8.150 -0.2276 -0.1330 -0.0169
   57loPI   C5A  907   4.882   1.198   7.732  0.1505  0.1171 -0.0399
   57loPI   C6A  908   5.058   1.534   7.409  0.0853 -0.0547 -0.0122
   57loPI   C1B  909   4.430   1.016   9.121 -0.1667  0.3309  0.2709
   57loPI   C2B  910   4.793   1.085   8.951  0.2526 -0.2007 -0.0747
   57loPI   C3B  911   5.078   0.948   8.635  0.2744  0.0577  0.0321
   57loPI   C4B  912   5.389   0.549   8.702 -0.4365  0.1132 -0.0634
   58loPI    C1  913   9.978   9.736  10.078  0.1488 -0.3621 -0.0537
   58loPI    C2  914   9.615   9.893  10.020  0.2808 -0.0761 -0.1208
   58loPI    C3  915   9.768   9.876  10.389  0.3052  0.0447 -0.1247
   58loPI   PO4  916  10.135   9.823   9.817  0.2619 -0.0420  0.2619
   58loPI   GL1  917  10.278   9.620   9.372  0.0935 -0.0300 -0.2873
   58loPI   GL2  918  10.242   9.347   9.245 -0.2184 -0.5229 -0.0114
   58loPI   C1A  919  10.455   9.792   9.055  0.0642  0.2509  0.0548
   58loPI   C2A  920  10.585   9.966   8.682 -0.1567 -0.0621  0.0548
   58loPI   C3A  921  10.535   9.887   8.207  0.0621  0.0078  0.0362
   58loPI   C4A  922  10.788   9.832   7.909  0.1793 -0.1404  0.0750
   58loPI   C5A  923  10.894   9.813   7.515  0.2301 -0.0692  0.2647
   58loPI   C6A  924  11.214   9.994   7.244  0.6635 -0.0985 -0.2077
   58loPI   C1B  925  10.255   9.426   8.766 -0.2258  0.0289  0.0570
   58loPI   C2B  926   9.951   9.335   8.479 -0.0634 -0.1037  0.0856
   58loPI   C3B  927  10.064   9.235   7.934  0.0483  0.1423  0.1638
   58loPI   C4B  928  10.406   9.366   7.570  0.0913 -0.3103  0.1054
   59loPI    C1  929  10.460   7.819   9.714  0.0676 -0.0831 -0.1111
   59loPI    C2  930  10.155   7.913   9.954 -0.0571 -0.2710 -0.1936
   59loPI    C3  931  10.505   8.102   9.994 -0.1435 -0.1449 -0.0125
   59loPI   PO4  932  10.386   7.819   9.471  0.0617  0.1831  0.1399
   59loPI   GL1  933  10.283   8.109   9.132  0.2007  0.2058 -0.3647
   59loPI   GL2  934   9.994   8.030   8.897  0.2063 -0.1933  0.0701
   59loPI   C1A  935  10.565   8.105   8.859  0.0884  0.2626 -0.2260
   59loPI   C2A  936  10.554   8.073   8.429  0.2160  0.1290  0.0975
   59loPI   C3A  937  10.701   7.892   8.025 -0.0114 -0.2328 -0.2660
   59loPI   C4A  938  10.454   8.000   7.605  0.1208 -0.3327  0.0561
   59loPI   C5A  939  10.358   8.485   7.532 -0.0173 -0.1492  0.1713
   59loPI   C6A  940  10.280   8.908   7.439 -0.3587  0.0448 -0.1919
   59loPI   C1B  941  10.091   8.134   8.511  0.0727  0.0592 -0.0792
   59loPI   C2B  942  10.093   7.999   8.064  0.2780 -0.0974 -0.0480
   59loPI   C3B  943   9.913   8.116   7.671 -0.2294  0.0788  0.1404
   59loPI   C4B  944   9.972   8.340   7.294 -0.3215 -0.1350  0.0948
   60loPI    C1  945  11.479  10.855   9.786  0.0609 -0.0848  0.1851
   60loPI    C2  946  11.415  11.048  10.131  0.0437 -0.0342  0.1537
   60loPI    C3  947  11.538  10.667  10.135 -0.1145 -0.0853  0.2157
   60loPI   PO4  948  11.416  11.032   9.588  0.1673  0.1147  0.2055
   60loPI   GL1  949  11.692  10.856   9.209  0.2089  0.1069  0.0616
   60loPI   GL2  950  12.078  10.685   9.222 -0.3443 -0.2809  0.0015
   60loPI   C1A  951  11.543  10.782   8.735 -0.0059 -0.2716  0.2285
   60loPI   C2A  952  11.643  10.687   8.329 -0.0736  0.1330 -0.0968
   60loPI   C3A  953  11.702  10.432   7.977 -0.1366 -0.3091  0.2872
   60loPI   C4A  954  11.575  10.671   7.531  0.0180  0.2574  0.3458
   60loPI   C5A  955  11.702  10.853   7.151 -0.0639  0.2188  0.1849
   60loPI   C6A  956  11.685  11.108   6.836 -0.1004 -0.0736 -0.4251
   60loPI   C1B  957  12.051  10.800   8.705  0.0540 -0.3727 -0.0727
   60loPI   C2B  958  12.180  10.541   8.357 -0.2083 -0.1348 -0.2030
   60loPI   C3B  959  12.263  10.520   8.002 -0.2250 -0.0977 -0.0437
   60loPI   C4B  960  12.603  10.730   7.860  0.1642 -0.2272  0.0206
   61loPI    C1  961  12.512  13.515   9.376  0.0784  0.0617  0.1860
   61loPI    C2  962  12.287  13.845   9.404 -0.1816 -0.0908 -0.0495
   61loPI    C3  963  12.285  13.576   9.700 -0.0943  0.0395  0.0709
   61loPI   PO4  964  12.524  13.450   9.182  0.4986  0.2674  0.3816
   61loPI   GL1  965  12.521  13.786   8.919 -0.0419 -0.1033  0.1420
   61loPI   GL2  966  12.789  13.916   9.008 -0.0020 -0.0060  0.2966
   61loPI   C1A  967  12.246  13.754   8.549  0.1673 -0.1580 -0.1254
   61loPI   C2A  968  12.236  13.719   8.124 -0.1118 -0.2814  0.2002
   61loPI   C3A  969  12.368  13.786   7.721 -0.0772  0.0149  0.2075
   61loPI   C4A  970  12.390  13.867   7.316  0.0587 -0.2730 -0.1598
   61loPI   C5A  971  12.328  14.155   6.981  0.1544  0.0803 -0.1671
   61loPI   C6A  972  12.420  14.236   6.599  0.2510  0.1858 -0.4124
   61loPI   C1B  973  12.726  14.000   8.503 -0.0256  0.0869 -0.2171
   61loPI   C2B  974  12.673  14.016   8.084 -0.1889  0.0039  0.1521
   61loPI   C3B  975  12.804  13.984   7.675 -0.1794 -0.2438  0.2872
   61loPI   C4B  976  12.811  14.114   7.225 -0.1797  0.1694 -0.1784
   62loPI    C1  977  16.369   4.977  10.116 -0.2306 -0.0055  0.0277
   62loPI    C2  978  16.569   5.182  10.396 -0.0678 -0.1183 -0.0045
   62loPI    C3  979  16.171   5.215  10.370 -0.0776 -0.0609  0.2017
   62loPI   PO4  980  16.675   4.850   9.961 -0.0246  0.0792  0.1553
   62loPI   GL1  981  16.704   4.646   9.614 -0.1157 -0.0635  0.0031
   62loPI   GL2  982  17.119   4.615   9.572 -0.0703 -0.0666 -0.1692
   62loPI   C1A  983  16.461   4.436   9.248  0.0076 -0.2071  0.1143
   62loPI   C2A  984  16.387   4.220   8.826 -0.4236 -0.0945  0.1903
   62loPI   C3A  985  16.522   4.195   8.330 -0.0104 -0.2257 -0.2350
   62loPI   C4A  986  16.431   4.243   7.922 -0.2985  0.2104  0.4621
   62loPI   C5A  987  16.861   4.255   7.670 -0.0624  0.1505  0.2100
   62loPI   C6A  988  16.975   4.339   7.180 -0.0331 -0.0078  0.1472
   62loPI   C1B  989  17.004   4.686   9.185 -0.0396  0.1011  0.2326
   62loPI   C2B  990  16.876   4.510   8.718 -0.4776  0.2817 -0.0210
   62loPI   C3B  991  16.939   4.419   8.322 -0.1585  0.1518  0.0316
   62loPI   C4B  992  17.219   4.129   8.083  0.1250  0.1777 -0.0817
   63loPI    C1  993  16.110  12.181   9.716  0.0087  0.1540 -0.0956
   63loPI    C2  994  15.989  11.933  10.006  0.2121  0.0246 -0.1196
   63loPI    C3  995  15.741  12.214   9.868  0.0614 -0.0113  0.0732
   63loPI   PO4  996  16.231  12.122   9.543 -0.0222  0.0154 -0.0896
   63loPI   GL1  997  16.201  12.181   9.145  0.0263  0.0954 -0.0176
   63loPI   GL2  998  15.872  12.185   9.141 -0.1675 -0.2801  0.0395
   63loPI   C1A  999  16.274  12.215   8.628 -0.3608 -0.0933 -0.1913
   63loPI   C2A 1000  16.050  11.900   8.332  0.2100  0.2417 -0.3875
   63loPI   C3A 1001  15.905  11.866   7.864 -0.1831 -0.0175 -0.0674
   63loPI   C4A 1002  15.619  11.704   7.643 -0.1291  0.1438  0.0259
   63loPI   C5A 1003  15.498  11.481   7.289  0.3178  0.1489  0.0450
   63loPI   C6A 1004  15.656  11.280   7.043  0.1147  0.0385  0.0074
   63loPI   C1B 1005  15.925  12.497   8.823 -0.2414  0.0838  0.4133
   63loPI   C2B 1006  15.842  12.515   8.429  0.1413  0.1774 -0.0638
   63loPI   C3B 1007  15.674  12.637   8.015  0.0717  0.2392  0.0450
   63loPI   C4B 1008  15.866  12.479   7.654  0.2780  0.1377  0.1470
   64loPI    C1 1009  13.858   2.398   9.599  0.0731 -0.0624 -0.0969
   64loPI    C2 1010  14.160   2.385   9.862  0.0287  0.1955 -0.0304
   64loPI    C3 1011  13.812   2.209   9.948  0.1077  0.0329 -0.0402
   64loPI   PO4 1012  13.985   2.242   9.363  0.0262  0.0703  0.1599
   64loPI   GL1 1013  14.332   2.425   9.070  0.1857 -0.3657  0.0695
   64loPI   GL2 1014  14.007   2.698   8.940  0.2109  0.0184  0.1404
   64loPI   C1A 1015  14.159   2.206   8.687 -0.0554 -0.2532 -0.1374
   64loPI   C2A 1016  13.972   2.152   8.352  0.1480  0.1361 -0.2324
   64loPI   C3A 1017  13.890   2.045   7.890  0.3033 -0.0613  0.2853
   64loPI   C4A 1018  14.085   2.046   7.543 -0.0526  0.0495 -0.1387
   64loPI   C5A 1019  13.941   1.780   7.237  0.0375 -0.1509  0.0072
   64loPI   C6A 1020  13.458   1.659   6.968  0.2390  0.1044  0.0509
   64loPI   C1B 1021  13.964   2.952   8.630  0.0141  0.2371 -0.0561
   64loPI   C2B 1022  13.819   3.110   8.287  0.1460 -0.1674 -0.1240
   64loPI   C3B 1023  13.779   2.960   7.898 -0.2803 -0.2036  0.1185
   64loPI   C4B 1024  13.671   2.918   7.600  0.2522 -0.2566 -0.4365
   65loPI    C1 1025   2.444   0.278  10.361 -0.0640  0.0568  0.1817
   65loPI    C2 1026   2.194   0.469  10.114  0.2066  0.0321 -0.1170
   65loPI    C3 1027   2.291   0.633  10.466 -0.2222  0.0431  0.0018
   65loPI   PO4 1028   2.639   0.288  10.155 -0.0694  0.1312 -0.1481
   65loPI   GL1 1029   2.605   0.422   9.733  0.4718  0.2205 -0.1410
   65loPI   GL2 1030   2.629   0.742   9.585 -0.2041 -0.2729  0.1103
   65loPI   C1A 1031   2.505   0.383   9.238 -0.4139  0.1525 -0.1606
   65loPI   C2A 1032   2.498   0.256   8.824 -0.4023 -0.3033 -0.3126
   65loPI   C3A 1033   2.506   0.457   8.414  0.2136 -0.1783  0.2415
   65loPI   C4A 1034   2.647   0.614   8.020 -0.1344  0.0642 -0.0207
   65loPI   C5A 1035   2.813   0.748   7.615  0.0233  0.1064 -0.1983
   65loPI   C6A 1036   3.090   0.866   7.390 -0.0917  0.1680 -0.0504
   65loPI   C1B 1037   2.835   0.810   9.163 -0.0049 -0.2453 -0.1488
   65loPI   C2B 1038   2.788   0.805   8.796 -0.0310 -0.0212 -0.0849
   65loPI   C3B 1039   2.596   0.977   8.464 -0.0163 -0.0991  0.1517
   65loPI   C4B 1040   2.743   1.175   8.067 -0.1447  0.1923  0.0037
   66loPI    C1 1041  18.999   3.173  10.637 -0.0105  0.0681 -0.1666
   66loPI    C2 1042  18.836   2.829  10.760  0.3064 -0.0540 -0.0768
   66loPI    C3 1043  18.648   3.176  10.829  0.2330 -0.1639  0.3014
   66loPI   PO4 1044  18.976   3.125  10.306  0.3739  0.0110  0.3026
   66loPI   GL1 1045  18.876   3.198   9.834 -0.3579 -0.1983  0.2543
   66loPI   GL2 1046  18.765   3.004   9.680  0.2383  0.2893 -0.0020
   66loPI   C1A 1047  18.958   3.507   9.434  0.0926 -0.0122  0.1390
   66loPI   C2A 1048  19.094   3.520   9.097 -0.0839 -0.1806 -0.1605
   66loPI   C3A 1049  19.112   3.589   8.681  0.0601  0.2547 -0.0979
   66loPI   C4A 1050  18.975   3.799   8.370 -0.0363  0.0420 -0.0081
   66loPI   C5A 1051  18.889   4.148   8.158 -0.4432 -0.0455  0.0946
   66loPI   C6A 1052  18.567   4.154   7.753  0.0187  0.0891  0.0205
   66loPI   C1B 1053  18.850   2.974   9.231  0.1542 -0.0888  0.1273
   66loPI   C2B 1054  18.846   3.111   8.784  0.2393 -0.0530 -0.0987
   66loPI   C3B 1055  18.761   3.290   8.375 -0.1066  0.1095 -0.2560
   66loPI   C4B 1056  19.070   3.220   7.933  0.3005  0.1684  0.1507
   67loPI    C1 1057  13.136   4.146  10.002  0.1241  0.0233  0.1298
   67loPI    C2 1058  13.136   4.542  10.058 -0.0608  0.0990 -0.3578
   67loPI    C3 1059  12.844   4.318  10.215  0.0278  0.1563 -0.1060
   67loPI   PO4 1060  13.224   4.073   9.758 -0.1964  0.1226  0.2208
   67loPI   GL1 1061  13.049   4.481   9.451  0.0089  0.0667  0.1506
   67loPI   GL2 1062  13.250   4.703   9.294 -0.0897 -0.0722  0.1404
   67loPI   C1A 1063  12.841   4.463   9.102  0.0635 -0.0262 -0.1291
   67loPI   C2A 1064  12.663   4.604   8.916  0.1830 -0.4168  0.2102
   67loPI   C3A 1065  12.518   4.748   8.509  0.2964 -0.1526  0.2199
   67loPI   C4A 1066  12.432   5.023   8.164  0.1447  0.0939  0.0586
   67loPI   C5A 1067  12.864   5.018   7.864 -0.1794  0.3563 -0.1828
   67loPI   C6A 1068  12.924   5.090   7.389 -0.0232  0.0193  0.1506
   67loPI   C1B 1069  13.256   4.433   8.874 -0.3596  0.1323  0.1572
   67loPI   C2B 1070  13.212   4.208   8.457 -0.3026 -0.0431  0.0644
   67loPI   C3B 1071  13.069   4.185   8.020 -0.3293  0.0811  0.0015
   67loPI   C4B 1072  13.092   4.201   7.558 -0.2568 -0.3861 -0.2280
   68loPI    C1 1073  10.921   6.335   9.495 -0.3682 -0.2520 -0.3387
   68loPI    C2 1074  10.558   6.378   9.659 -0.2022 -0.2472  0.0375
   68loPI    C3 1075  10.847   6.188   9.860  0.1079  0.0603 -0.1061
   68loPI   PO4 1076  10.903   6.538   9.394  0.0175  0.3835 -0.0686
   68loPI   GL1 1077  10.936   6.861   8.986 -0.0731  0.0680  0.0775
   68loPI   GL2 1078  11.197   6.942   9.155  0.0866 -0.2039 -0.2579
   68loPI   C1A 1079  10.954   6.391   8.574 -0.2374 -0.3777 -0.4984
   68loPI   C2A 1080  10.975   6.266   8.162  0.1173  0.2925  0.1373
   68loPI   C3A 1081  10.801   6.394   7.881  0.1457 -0.0521 -0.3511
   68loPI   C4A 1082  10.828   6.488   7.464  0.2222 -0.0801 -0.0181
   68loPI   C5A 1083  10.862   6.467   6.953  0.0256  0.0928  0.0602
   68loPI   C6A 1084  11.117   6.243   6.634  0.0766  0.3239 -0.3398
   68loPI   C1B 1085  11.261   7.246   8.770 -0.0419 -0.0611 -0.1147
   68loPI   C2B 1086  11.432   7.593   8.481  0.0988  0.0795  0.0293
   68loPI   C3B 1087  11.258   7.980   8.290  0.1768  0.1313  0.1570
   68loPI   C4B 1088  10.932   8.325   8.263 -0.5026 -0.1258 -0.0468
   69loPI    C1 1089   5.033  12.874   9.942  0.1945  0.0828 -0.3297
   69loPI    C2 1090   5.201  12.565  10.134 -0.2030 -0.1047 -0.2737
   69loPI    C3 1091   5.410  12.901  10.074  0.0553 -0.1832  0.1457
   69loPI   PO4 1092   4.947  12.791   9.699 -0.4256  0.0648 -0.0004
   69loPI   GL1 1093   5.092  12.522   9.294  0.0649  0.0704 -0.4616
   69loPI   GL2 1094   5.503  12.442   9.313 -0.1441  0.0838 -0.0228
   69loPI   C1A 1095   4.975  12.435   8.973  0.1874 -0.1873  0.1341
   69loPI   C2A 1096   4.963  12.579   8.531  0.1135  0.1118  0.0743
   69loPI   C3A 1097   4.746  12.754   8.225  0.2990 -0.2103  0.1011
   69loPI   C4A 1098   4.796  12.907   7.848 -0.1057 -0.1116  0.0494
   69loPI   C5A 1099   4.811  12.898   7.433 -0.0713 -0.0580 -0.1378
   69loPI   C6A 1100   4.803  12.774   6.975  0.1278  0.1331 -0.3040
   69loPI   C1B 1101   5.447  12.531   8.766 -0.2936  0.0647 -0.0699
   69loPI   C2B 1102   5.329  12.314   8.325 -0.1591  0.0505 -0.4404
   69loPI   C3B 1103   5.446  11.906   8.287  0.1513 -0.1063  0.0284
   69loPI   C4B 1104   5.899  11.826   8.195  0.1421 -0.2947 -0.2234
   70loPI    C1 1105   4.704  14.877   9.735 -0.0669  0.1512  0.0676
   70loPI    C2 1106   4.371  14.904   9.954 -0.0712 -0.1221  0.0972
   70loPI    C3 1107   4.684  14.694  10.090  0.1406  0.1894  0.1005
   70loPI   PO4 1108   4.805  15.039   9.615  0.1566  0.5228 -0.3091
   70loPI   GL1 1109   4.667  15.004   9.207 -0.1565 -0.1282  0.1868
   70loPI   GL2 1110   4.461  14.857   9.198 -0.3811 -0.2450  0.0145
   70loPI   C1A 1111   4.386  15.333   8.843 -0.1078 -0.2424  0.0772
   70loPI   C2A 1112   4.329  15.832   8.776  0.0629  0.1399 -0.2559
   70loPI   C3A 1113   4.551  16.197   8.873 -0.0677  0.1437 -0.1564
   70loPI   C4A 1114   4.685  16.593   8.599  0.3562  0.0709 -0.1208
   70loPI   C5A 1115   5.041  16.782   8.648 -0.0822 -0.2546 -0.1585
   70loPI   C6A 1116   5.515  17.029   8.648 -0.2280 -0.3154  0.0697
   70loPI   C1B 1117   4.454  14.808   8.811  0.2033 -0.3097  0.0951
   70loPI   C2B 1118   4.468  15.008   8.380 -0.0046 -0.0084  0.0138
   70loPI   C3B 1119   4.427  15.099   7.976  0.1229  0.1114  0.2136
   70loPI   C4B 1120   4.370  14.850   7.622  0.0628  0.0366  0.1823
   71loPI    C1 1121   0.583   8.563  10.179 -0.3035 -0.1359 -0.2437
   71loPI    C2 1122   0.474   8.948  10.186  0.2196  0.0196 -0.2938
   71loPI    C3 1123   0.223   8.667  10.320  0.0459  0.4298  0.2777
   71loPI   PO4 1124   0.872   8.597  10.074 -0.1753  0.0986  0.0373
   71loPI   GL1 1125   0.969   8.622   9.634  0.0408 -0.2852 -0.2713
   71loPI   GL2 1126   0.666   8.398   9.434  0.0719 -0.1441 -0.1437
   71loPI   C1A 1127   1.154   8.561   9.197  0.1734 -0.1050 -0.0861
   71loPI   C2A 1128   1.202   8.382   8.804  0.1351 -0.0258  0.0902
   71loPI   C3A 1129   1.223   8.204   8.408  0.1512  0.1469  0.1843
   71loPI   C4A 1130   0.972   7.880   8.119  0.0258 -0.1863  0.0271
   71loPI   C5A 1131   0.821   8.018   7.782 -0.1542 -0.0171  0.2826
   71loPI   C6A 1132   0.901   7.882   7.250  0.0498 -0.0773  0.1526
   71loPI   C1B 1133   0.755   8.246   9.114  0.3118 -0.0687  0.1892
   71loPI   C2B 1134   0.680   8.381   8.617 -0.3499 -0.1695  0.3178
   71loPI   C3B 1135   0.801   8.515   8.142 -0.1796  0.0239  0.2426
   71loPI   C4B 1136   1.189   8.274   7.938 -0.2758 -0.1851  0.0906
   72loPI    C1 1137   2.375  14.229   9.465 -0.0016  0.0596  0.0509
   72loPI    C2 1138   2.579  13.934   9.643 -0.1125  0.1760  0.3788
   72loPI    C3 1139   2.731  14.303   9.632 -0.0948  0.1644  0.2056
   72loPI   PO4 1140   2.255  14.153   9.201  0.0530  0.2489 -0.1259
   72loPI   GL1 1141   2.541  14.025   8.977  0.1821 -0.1299 -0.0692
   72loPI   GL2 1142   2.353  13.824   8.794  0.1660 -0.1551  0.0533
   72loPI   C1A 1143   2.535  14.275   8.563  0.3127 -0.2470  0.2140
   72loPI   C2A 1144   2.615  14.209   8.091 -0.3811 -0.2098  0.3210
   72loPI   C3A 1145   2.548  14.075   7.651  0.1774  0.0645 -0.0163
   72loPI   C4A 1146   2.359  13.845   7.291  0.0668 -0.0162 -0.1200
   72loPI   C5A 1147   2.096  13.727   7.041 -0.1725 -0.3647 -0.1732
   72loPI   C6A 1148   2.090  13.514   6.648 -0.0077 -0.0214 -0.1140
   72loPI   C1B 1149   2.462  13.816   8.352  0.1219  0.0550 -0.3217
   72loPI   C2B 1150   2.546  13.688   8.012  0.2082 -0.1081  0.0290
   72loPI   C3B 1151   2.647  13.320   7.809  0.1505 -0.1045 -0.1628
   72loPI   C4B 1152   2.921  13.068   7.702  0.0166 -0.3854 -0.0793
   73loPI    C1 1153   1.886  15.799   9.816  0.0168  0.1249 -0.1479
   73loPI    C2 1154   2.174  16.029   9.972 -0.1130  0.1320  0.0872
   73loPI    C3 1155   2.004  15.743  10.194  0.0209 -0.1701 -0.1908
   73loPI   PO4 1156   2.048  15.763   9.530  0.1950  0.0111  0.0095
   73loPI   GL1 1157   1.929  16.009   9.198  0.0540 -0.1380 -0.1876
   73loPI   GL2 1158   2.149  15.797   8.992  0.0225 -0.2740  0.1363
   73loPI   C1A 1159   1.637  15.862   8.817 -0.1043  0.0805 -0.0075
   73loPI   C2A 1160   1.229  16.055   8.626  0.1011 -0.0679  0.0544
   73loPI   C3A 1161   1.192  16.129   8.184  0.2336  0.3366 -0.1314
   73loPI   C4A 1162   1.416  16.249   7.869 -0.0996 -0.0532 -0.5493
   73loPI   C5A 1163   1.747  16.367   7.570 -0.3424 -0.0200 -0.0758
   73loPI   C6A 1164   2.006  16.153   7.249 -0.1818  0.2430  0.3520
   73loPI   C1B 1165   2.458  15.824   8.667 -0.2643 -0.3291  0.0630
   73loPI   C2B 1166   2.717  15.802   8.203  0.4429  0.3191  0.1265
   73loPI   C3B 1167   2.746  15.949   7.870 -0.1173  0.0092 -0.7306
   73loPI   C4B 1168   2.582  16.400   7.841  0.1670  0.0612  0.1212
   74loPI    C1 1169  18.278  16.392   9.732  0.0015  0.1187  0.0935
   74loPI    C2 1170  18.247  16.704   9.980  0.0554  0.0007  0.2495
   74loPI    C3 1171  18.599  16.519   9.934  0.0811  0.1141 -0.0288
   74loPI   PO4 1172  18.160  16.468   9.504 -0.0071 -0.0832  0.2474
   74loPI   GL1 1173  18.204  16.510   9.062 -0.2170  0.0820  0.1623
   74loPI   GL2 1174  17.943  16.282   9.098  0.2672  0.0358  0.3356
   74loPI   C1A 1175  18.079  16.524   8.636 -0.2314 -0.3640  0.2744
   74loPI   C2A 1176  18.368  16.657   8.344 -0.2368  0.3659 -0.3422
   74loPI   C3A 1177  18.255  16.573   7.929 -0.1088 -0.1892  0.3348
   74loPI   C4A 1178  17.842  16.400   7.846  0.0686  0.1446 -0.2349
   74loPI   C5A 1179  17.387  16.256   7.728 -0.2371  0.3201 -0.0356
   74loPI   C6A 1180  17.172  16.251   7.394  0.0396 -0.1829  0.2099
   74loPI   C1B 1181  17.729  15.815   8.913  0.1023 -0.2005 -0.1824
   74loPI   C2B 1182  17.607  15.424   8.822  0.1087  0.0218 -0.0365
   74loPI   C3B 1183  17.657  15.214   8.430 -0.3225 -0.2527  0.2287
   74loPI   C4B 1184  17.595  14.865   8.097  0.1137 -0.0668 -0.0831
   75loPI    C1 1185   7.844  15.851   9.559 -0.0046 -0.1089 -0.0616
   75loPI    C2 1186   7.473  15.774   9.688 -0.1198  0.0946 -0.2634
   75loPI    C3 1187   7.644  16.127   9.768  0.1502 -0.1083  0.0885
   75loPI   PO4 1188   7.803  15.647   9.303 -0.0604 -0.2273  0.0839
   75loPI   GL1 1189   7.867  15.400   8.923 -0.1848  0.1565  0.0800
   75loPI   GL2 1190   7.954  15.809   8.809 -0.1080 -0.0312 -0.0263
   75loPI   C1A 1191   7.994  15.402   8.457 -0.0232  0.5924 -0.0411
   75loPI   C2A 1192   8.140  15.393   7.975 -0.2507  0.4039  0.0325
   75loPI   C3A 1193   8.052  15.267   7.525  0.1851 -0.1102 -0.0773
   75loPI   C4A 1194   8.029  15.400   7.062 -0.0529  0.3421 -0.2372
   75loPI   C5A 1195   7.580  15.572   6.776  0.2921 -0.0862 -0.2122
   75loPI   C6A 1196   7.443  15.598   6.326  0.1039 -0.2289  0.0900
   75loPI   C1B 1197   7.792  15.890   8.431  0.0222  0.1202 -0.3221
   75loPI   C2B 1198   8.008  16.099   8.068  0.1057 -0.3348 -0.0300
   75loPI   C3B 1199   7.869  16.204   7.552  0.1434  0.1144 -0.2007
   75loPI   C4B 1200   7.792  16.247   7.125  0.0661 -0.1492 -0.1952
   76loPI    C1 1201   9.486  15.732   9.438  0.1732 -0.3436  0.0344
   76loPI    C2 1202   9.746  15.864   9.712  0.1234  0.1486 -0.1466
   76loPI    C3 1203   9.491  15.570   9.804  0.1902  0.2214  0.2941
   76loPI   PO4 1204   9.477  15.942   9.258 -0.3722  0.2684  0.1178
   76loPI   GL1 1205   9.673  16.013   8.946  0.1066 -0.2950 -0.0155
   76loPI   GL2 1206   9.355  16.025   8.754 -0.3668  0.0719 -0.2363
   76loPI   C1A 1207   9.804  16.045   8.497  0.2035  0.0053 -0.0428
   76loPI   C2A 1208   9.858  16.206   8.195 -0.1764  0.3342  0.0947
   76loPI   C3A 1209  10.027  16.530   7.939  0.0822 -0.2443  0.0598
   76loPI   C4A 1210  10.349  16.518   7.588  0.1913 -0.1141 -0.0956
   76loPI   C5A 1211  10.458  16.386   7.212  0.2794  0.0664  0.1737
   76loPI   C6A 1212  10.395  15.983   7.123 -0.1422 -0.0619  0.2977
   76loPI   C1B 1213   9.302  16.063   8.315 -0.1094  0.2296  0.1244
   76loPI   C2B 1214   9.379  16.049   7.810  0.0677 -0.0727 -0.1094
   76loPI   C3B 1215   9.355  16.003   7.477  0.1628 -0.0649 -0.0050
   76loPI   C4B 1216   9.535  16.027   7.049 -0.1742  0.1467  0.2834
   77loPI    C1 1217   3.264  10.370  10.163 -0.1646  0.2283  0.1737
   77loPI    C2 1218   3.140  10.208  10.507  0.0010  0.1211  0.1842
   77loPI    C3 1219   2.877  10.382  10.261 -0.2293 -0.4063  0.0415
   77loPI   PO4 1220   3.497  10.207  10.081 -0.5168 -0.1789  0.3821
   77loPI   GL1 1221   3.600   9.931   9.658  0.1397 -0.2111  0.0229
   77loPI   GL2 1222   3.520   9.570   9.705  0.2273 -0.0739 -0.2835
   77loPI   C1A 1223   3.725   9.728   9.270 -0.0775  0.1528  0.2976
   77loPI   C2A 1224   3.648   9.649   8.826 -0.0940  0.2446 -0.1566
   77loPI   C3A 1225   3.656   9.540   8.422  0.0650 -0.1896  0.1679
   77loPI   C4A 1226   3.735   9.644   8.103 -0.1239 -0.0095 -0.0236
   77loPI   C5A 1227   3.942   9.753   7.641  0.1703 -0.2637 -0.2076
   77loPI   C6A 1228   4.318   9.565   7.540  0.0189 -0.3901 -0.1618
   77loPI   C1B 1229   3.480   9.179   9.461 -0.1756  0.0986 -0.1960
   77loPI   C2B 1230   3.354   9.011   9.013  0.1603 -0.0958 -0.2247
   77loPI   C3B 1231   3.164   8.899   8.578  0.3681 -0.0108 -0.0151
   77loPI   C4B 1232   3.030   8.859   8.164 -0.1398  0.3446  0.1909
   78loPI    C1 1233   1.397  16.536   9.938  0.0437  0.0344  0.0591
   78loPI    C2 1234   1.168  16.811  10.117  0.0360 -0.1179  0.2864
   78loPI    C3 1235   1.003  16.477   9.971  0.0060  0.1110 -0.2232
   78loPI   PO4 1236   1.421  16.652   9.699  0.0451 -0.1442  0.0173
   78loPI   GL1 1237   1.361  16.763   9.323  0.3398  0.2287 -0.0323
   78loPI   GL2 1238   1.565  16.916   9.161  0.3755 -0.1405  0.1480
   78loPI   C1A 1239   1.192  16.422   9.058  0.0229 -0.0591  0.0858
   78loPI   C2A 1240   0.957  16.576   8.636 -0.1672 -0.3287 -0.4415
   78loPI   C3A 1241   0.841  16.620   8.221  0.1371  0.4730 -0.1474
   78loPI   C4A 1242   1.027  16.749   7.920  0.2513  0.1239  0.0687
   78loPI   C5A 1243   1.230  17.027   7.465  0.1330 -0.0044 -0.2794
   78loPI   C6A 1244   1.277  17.391   7.314  0.2200  0.0102  0.0091
   78loPI   C1B 1245   1.416  16.742   8.731  0.0837  0.2796  0.0391
   78loPI   C2B 1246   1.353  16.681   8.264 -0.2514  0.1929  0.1882
   78loPI   C3B 1247   1.555  16.711   7.843  0.0820 -0.0483  0.0740
   78loPI   C4B 1248   1.695  16.854   7.430 -0.4525  0.3346 -0.0621
   79loPI    C1 1249   5.272  16.338   9.381 -0.0900  0.0556  0.3645
   79loPI    C2 1250   5.272  16.189   9.752 -0.1507 -0.2644  0.2392
   79loPI    C3 1251   5.134  15.969   9.448 -0.0151 -0.0404  0.0114
   79loPI   PO4 1252   5.509  16.444   9.407  0.4326 -0.1771  0.1370
   79loPI   GL1 1253   5.766  16.393   9.074  0.1754  0.0218 -0.0492
   79loPI   GL2 1254   5.427  16.679   8.991  0.1255  0.1929 -0.3334
   79loPI   C1A 1255   5.596  16.534   8.529  0.2130  0.1771 -0.0345
   79loPI   C2A 1256   5.408  16.705   8.088 -0.2242  0.2520 -0.0011
   79loPI   C3A 1257   5.220  16.819   7.718  0.0804 -0.0655  0.3808
   79loPI   C4A 1258   4.908  16.683   7.594 -0.4307  0.0329  0.1223
   79loPI   C5A 1259   4.700  16.240   7.495  0.1601 -0.0134  0.1112
   79loPI   C6A 1260   4.485  16.046   7.617 -0.0774  0.2695  0.1245
   79loPI   C1B 1261   5.165  16.365   8.797 -0.3013 -0.0465 -0.1402
   79loPI   C2B 1262   5.067  16.293   8.386  0.0243 -0.3917 -0.1356
   79loPI   C3B 1263   5.159  16.326   7.908 -0.1790 -0.1242  0.1659
   79loPI   C4B 1264   5.162  16.315   7.457  0.1713  0.0088 -0.1782
   80loPI    C1 1265   5.718   1.025  10.118  0.1271  0.1188 -0.2486
   80loPI    C2 1266   6.091   0.925  10.222  0.0028 -0.2347 -0.1281
   80loPI    C3 1267   5.805   0.949  10.501  0.0141  0.4319 -0.1580
   80loPI   PO4 1268   5.757   1.281   9.992  0.0944  0.1633  0.0996
   80loPI   GL1 1269   5.612   1.257   9.530  0.2156 -0.0205 -0.1413
   80loPI   GL2 1270   5.505   1.587   9.700 -0.2372  0.0537 -0.0699
   80loPI   C1A 1271   5.881   1.189   9.240  0.3790  0.0056 -0.2699
   80loPI   C2A 1272   5.973   1.265   8.892 -0.0363 -0.3421  0.0737
   80loPI   C3A 1273   5.983   1.466   8.438  0.1830 -0.2737  0.1312
   80loPI   C4A 1274   5.937   1.810   8.304  0.4649 -0.1827 -0.0736
   80loPI   C5A 1275   5.893   2.046   8.091  0.0693  0.2582 -0.0283
   80loPI   C6A 1276   5.749   2.262   7.828  0.2158  0.0006 -0.0728
   80loPI   C1B 1277   5.537   1.630   9.285  0.3063 -0.0550 -0.3345
   80loPI   C2B 1278   5.748   1.671   8.836 -0.2644  0.1393 -0.2402
   80loPI   C3B 1279   5.519   1.954   8.577 -0.2477  0.1283 -0.1990
   80loPI   C4B 1280   5.474   2.255   8.247 -0.2513 -0.3369 -0.2131
   81loPI    C1 1281   4.640  13.235   9.739  0.0515 -0.0361  0.0630
   81loPI    C2 1282   4.275  13.129   9.864  0.0275  0.2206  0.2177
   81loPI    C3 1283   4.599  13.000  10.060  0.0213  0.0029  0.0877
   81loPI   PO4 1284   4.639  13.168   9.507 -0.0681 -0.2766 -0.3834
   81loPI   GL1 1285   4.620  13.266   9.123 -0.3962  0.0750 -0.2644
   81loPI   GL2 1286   4.333  13.239   8.893 -0.3064 -0.2050  0.0371
   81loPI   C1A 1287   4.811  13.311   8.696 -0.3628  0.0900  0.2138
   81loPI   C2A 1288   4.993  13.177   8.317 -0.0810  0.0941  0.2058
   81loPI   C3A 1289   5.042  13.341   7.923  0.2137 -0.2394  0.0187
   81loPI   C4A 1290   5.239  13.215   7.577  0.2157  0.1345  0.1077
   81loPI   C5A 1291   5.500  13.183   7.245  0.3010  0.1053 -0.3965
   81loPI   C6A 1292   5.325  13.039   6.889 -0.1194  0.1920 -0.0151
   81loPI   C1B 1293   4.389  13.524   8.573 -0.1653  0.1176  0.2214
   81loPI   C2B 1294   4.189  13.686   8.195 -0.1679 -0.1164  0.0029
   81loPI   C3B 1295   3.935  13.700   7.840  0.2791 -0.0384  0.2919
   81loPI   C4B 1296   3.666  13.682   7.429 -0.1739 -0.2727 -0.4110
   82loPI    C1 1297   9.668   3.868  10.062 -0.0133 -0.1083  0.0790
   82loPI    C2 1298   9.799   3.775  10.428  0.2733 -0.0681 -0.0117
   82loPI    C3 1299  10.044   3.954  10.167  0.0838 -0.1344 -0.2379
   82loPI   PO4 1300   9.614   3.676   9.893 -0.0138  0.1722  0.2387
   82loPI   GL1 1301   9.382   3.599   9.552  0.2756 -0.0059  0.1638
   82loPI   GL2 1302   9.036   3.781   9.572  0.1385 -0.0474  0.1623
   82loPI   C1A 1303   9.605   3.515   9.130 -0.4458 -0.1475  0.0856
   82loPI   C2A 1304   9.690   3.405   8.715  0.3795  0.0557  0.3188
   82loPI   C3A 1305   9.791   3.459   8.293  0.0611  0.1268 -0.3905
   82loPI   C4A 1306   9.882   3.608   7.932  0.1057 -0.3497  0.0679
   82loPI   C5A 1307  10.106   3.792   7.741  0.0065 -0.1079 -0.0717
   82loPI   C6A 1308   9.980   4.131   7.645  0.0528  0.0643 -0.2939
   82loPI   C1B 1309   9.088   3.579   9.161 -0.1470  0.0027 -0.1091
   82loPI   C2B 1310   9.170   3.429   8.782 -0.0290  0.0580  0.1477
   82loPI   C3B 1311   9.315   3.222   8.418 -0.2022  0.2072  0.0395
   82loPI   C4B 1312   9.391   3.322   8.012 -0.0308 -0.1817 -0.1601
   83loPI    C1 1313   5.584  15.818   9.879  0.1466 -0.0153  0.3918
   83loPI    C2 1314   5.982  15.819   9.919  0.1579 -0.1202  0.2852
   83loPI    C3 1315   5.801  16.110   9.713  0.2075 -0.2368  0.0743
   83loPI   PO4 1316   5.447  15.615   9.745  0.0900  0.2921  0.1625
   83loPI   GL1 1317   5.589  15.237   9.469 -0.3275  0.0701 -0.5235
   83loPI   GL2 1318   5.409  15.471   9.215  0.1574 -0.1624  0.1352
   83loPI   C1A 1319   5.724  15.022   9.107  0.1142  0.0940  0.1390
   83loPI   C2A 1320   5.573  15.104   8.783 -0.4589  0.0439  0.0112
   83loPI   C3A 1321   5.745  14.868   8.402 -0.2243  0.0887  0.0143
   83loPI   C4A 1322   5.742  14.814   7.986 -0.2543 -0.0015 -0.0474
   83loPI   C5A 1323   5.755  14.724   7.631 -0.0261 -0.0635  0.1023
   83loPI   C6A 1324   5.844  14.562   7.172  0.0016 -0.0151 -0.2179
   83loPI   C1B 1325   5.263  15.535   8.827 -0.2943  0.0316  0.1679
   83loPI   C2B 1326   5.317  15.376   8.382  0.0739 -0.1741  0.0363
   83loPI   C3B 1327   5.384  15.090   8.134  0.1678 -0.1757 -0.1426
   83loPI   C4B 1328   5.325  14.866   7.795  0.2728  0.2304 -0.3017
   84loPI    C1 1329   3.483   2.338  10.343 -0.2301 -0.0484 -0.3140
   84loPI    C2 1330   3.792   2.530  10.509 -0.3590 -0.1374  0.0396
   84loPI    C3 1331   3.473   2.736  10.383 -0.3761 -0.0930  0.1549
   84loPI   PO4 1332   3.597   2.172  10.171 -0.0914 -0.1152 -0.1471
   84loPI   GL1 1333   3.498   2.124   9.693  0.3333  0.4677 -0.1144
   84loPI   GL2 1334   3.590   1.761   9.826  0.4633 -0.0109 -0.0014
   84loPI   C1A 1335   3.315   2.258   9.325 -0.3012 -0.3409  0.0190
   84loPI   C2A 1336   3.209   2.345   8.908  0.2219 -0.2358  0.2503
   84loPI   C3A 1337   2.985   2.380   8.499  0.1271 -0.0965 -0.0915
   84loPI   C4A 1338   3.024   2.683   8.211  0.1676 -0.2146 -0.3348
   84loPI   C5A 1339   3.107   2.971   7.894  0.1168 -0.3295 -0.0471
   84loPI   C6A 1340   3.346   2.922   7.516  0.1636 -0.3060 -0.1731
   84loPI   C1B 1341   3.808   1.821   9.441 -0.3503  0.0829  0.0129
   84loPI   C2B 1342   3.767   2.108   9.112  0.1917  0.0212  0.0334
   84loPI   C3B 1343   3.658   2.266   8.693  0.1225  0.0367  0.1211
   84loPI   C4B 1344   3.535   2.451   8.367  0.1961  0.0894  0.4308
   85loPI    C1 1345   4.350   9.063  10.546 -0.1178 -0.1674  0.0718
   85loPI    C2 1346   4.010   9.272  10.571  0.1675  0.3248 -0.0149
   85loPI    C3 1347   4.304   9.338  10.833  0.2432 -0.0170 -0.0085
   85loPI   PO4 1348   4.269   8.843  10.396  0.1945  0.0387 -0.0085
   85loPI   GL1 1349   4.391   8.582   9.959 -0.1374  0.2446  0.1049
   85loPI   GL2 1350   4.130   8.730   9.848  0.0579 -0.1444  0.0005
   85loPI   C1A 1351   4.506   8.383   9.563 -0.0469 -0.0547 -0.0535
   85loPI   C2A 1352   4.426   8.331   9.154 -0.5116  0.1278  0.0043
   85loPI   C3A 1353   4.297   8.171   8.711 -0.2458  0.0172  0.2780
   85loPI   C4A 1354   4.262   8.318   8.285  0.0394 -0.5245 -0.0489
   85loPI   C5A 1355   4.184   8.406   7.757  0.2214  0.1753 -0.3321
   85loPI   C6A 1356   4.013   8.330   7.372  0.2231  0.2129 -0.3431
   85loPI   C1B 1357   4.061   8.592   9.539 -0.1821  0.0410 -0.0477
   85loPI   C2B 1358   3.911   8.396   9.071  0.0352 -0.3148 -0.2598
   85loPI   C3B 1359   3.840   8.256   8.571  0.0475 -0.3080 -0.1090
   85loPI   C4B 1360   3.887   8.023   8.244  0.2184  0.1573 -0.3592
   86loPI    C1 1361   7.185   4.434  10.199 -0.2213  0.0871  0.1092
   86loPI    C2 1362   6.876   4.684  10.249 -0.1422  0.1929  0.0737
   86loPI    C3 1363   7.071   4.540  10.568  0.0497  0.4758  0.0876
   86loPI   PO4 1364   7.397   4.490  10.059  0.3956  0.1945  0.0628
   86loPI   GL1 1365   7.451   4.646   9.797  0.1975 -0.0210 -0.2554
   86loPI   GL2 1366   7.620   4.911   9.723  0.0408 -0.3026  0.2292
   86loPI   C1A 1367   7.279   4.649   9.454  0.0081  0.1300  0.1917
   86loPI   C2A 1368   7.226   4.582   9.035 -0.1851  0.0055  0.1782
   86loPI   C3A 1369   7.215   4.605   8.520  0.0494  0.0237  0.2851
   86loPI   C4A 1370   7.069   4.667   8.131  0.1626  0.1682 -0.0626
   86loPI   C5A 1371   7.174   4.547   7.770 -0.0664 -0.2397 -0.0840
   86loPI   C6A 1372   7.251   4.897   7.524  0.3968  0.0495 -0.1577
   86loPI   C1B 1373   7.822   4.847   9.287 -0.7188  0.0899 -0.0414
   86loPI   C2B 1374   7.757   4.984   8.911  0.0867 -0.1207  0.1775
   86loPI   C3B 1375   7.635   4.927   8.392  0.1975  0.0082  0.0284
   86loPI   C4B 1376   7.604   4.938   7.967 -0.0702 -0.0012 -0.0486
   87loPI    C1 1377  15.752  14.570   9.733 -0.0167 -0.2245  0.1414
   87loPI    C2 1378  15.506  14.863   9.849  0.0063 -0.0258 -0.2945
   87loPI    C3 1379  15.807  14.749  10.086 -0.0883  0.2047 -0.0588
   87loPI   PO4 1380  15.862  14.636   9.545 -0.0931 -0.0033 -0.1374
   87loPI   GL1 1381  15.894  14.554   9.125  0.2404 -0.0835 -0.1051
   87loPI   GL2 1382  15.697  14.769   9.029 -0.1121  0.4516 -0.0606
   87loPI   C1A 1383  16.011  14.458   8.799  0.1455 -0.2821  0.0792
   87loPI   C2A 1384  16.241  14.474   8.454  0.0627 -0.1298  0.0146
   87loPI   C3A 1385  16.381  14.494   8.027  0.1302  0.1544 -0.1073
   87loPI   C4A 1386  16.265  14.783   7.625 -0.1043  0.0719 -0.2391
   87loPI   C5A 1387  16.383  15.142   7.335  0.1128 -0.0950 -0.0023
   87loPI   C6A 1388  16.619  15.240   7.025  0.3294  0.2035 -0.1621
   87loPI   C1B 1389  15.375  14.819   8.772 -0.0414 -0.0081  0.2332
   87loPI   C2B 1390  15.480  14.911   8.372 -0.0826  0.2545  0.0656
   87loPI   C3B 1391  15.277  14.959   7.967 -0.0737  0.2297 -0.2213
   87loPI   C4B 1392  15.034  15.020   7.638 -0.1016  0.2714 -0.2531
   88loPI    C1 1393  17.615   8.086   9.827  0.2307  0.1301 -0.0988
   88loPI    C2 1394  17.734   8.253  10.171  0.0666  0.1663 -0.0589
   88loPI    C3 1395  17.377   8.345  10.016  0.0661  0.0171 -0.1493
   88loPI   PO4 1396  17.776   8.011   9.723 -0.2002 -0.3209  0.0309
   88loPI   GL1 1397  17.943   7.988   9.320 -0.0229 -0.3448 -0.0661
   88loPI   GL2 1398  18.165   8.084   9.399  0.1585 -0.2883 -0.4940
   88loPI   C1A 1399  17.953   8.017   8.970  0.1175  0.3125  0.4610
   88loPI   C2A 1400  17.850   8.112   8.589  0.0367 -0.3154  0.2459
   88loPI   C3A 1401  17.962   8.234   8.153  0.1467 -0.0842 -0.0577
   88loPI   C4A 1402  18.279   8.356   7.796  0.2422  0.4447  0.1370
   88loPI   C5A 1403  18.680   8.183   7.820 -0.2711 -0.0379  0.2843
   88loPI   C6A 1404  18.716   7.711   7.580  0.0034 -0.2035  0.1105
   88loPI   C1B 1405  18.441   8.265   9.159 -0.0183 -0.0333  0.4472
   88loPI   C2B 1406  18.460   8.330   8.733  0.1215 -0.1183 -0.0407
   88loPI   C3B 1407  18.184   8.509   8.554  0.3412 -0.0008 -0.1824
   88loPI   C4B 1408  18.081   8.723   8.103  0.3511  0.2476 -0.0687
   89loPI    C1 1409   5.457   7.484  10.389 -0.2779 -0.0186  0.0335
   89loPI    C2 1410   5.462   7.186  10.656 -0.1637 -0.1185 -0.0791
   89loPI    C3 1411   5.132   7.408  10.611 -0.1825 -0.0978  0.1474
   89loPI   PO4 1412   5.534   7.480  10.169  0.0830 -0.0453 -0.2713
   89loPI   GL1 1413   5.355   7.297   9.832 -0.0369  0.2159  0.2635
   89loPI   GL2 1414   5.152   7.134   9.907  0.0149 -0.3379 -0.2601
   89loPI   C1A 1415   5.292   7.367   9.417  0.3036 -0.0039 -0.0067
   89loPI   C2A 1416   5.336   7.295   8.989  0.1867 -0.3203 -0.1279
   89loPI   C3A 1417   5.303   7.263   8.622  0.0530  0.0268  0.0375
   89loPI   C4A 1418   5.203   7.188   8.149  0.1101 -0.0870  0.0778
   89loPI   C5A 1419   5.534   7.086   7.850  0.0213  0.0846  0.1099
   89loPI   C6A 1420   5.748   6.623   7.828 -0.0040  0.1820  0.1316
   89loPI   C1B 1421   5.196   6.832   9.613  0.1440 -0.1724  0.0890
   89loPI   C2B 1422   5.000   6.951   9.222 -0.0548 -0.0360  0.0137
   89loPI   C3B 1423   4.924   6.923   8.767 -0.1984 -0.0883  0.1985
   89loPI   C4B 1424   4.794   6.986   8.353  0.2645  0.5083 -0.1487
   90loPI    C1 1425   2.070   2.904  10.579 -0.0722  0.0458 -0.0366
   90loPI    C2 1426   2.445   2.946  10.711 -0.0752 -0.1809  0.0500
   90loPI    C3 1427   2.187   2.717  10.913 -0.1496 -0.3384 -0.2185
   90loPI   PO4 1428   2.077   2.919  10.291  0.0705  0.1222  0.3422
   90loPI   GL1 1429   1.746   2.873   9.915  0.4935  0.1622 -0.3847
   90loPI   GL2 1430   1.530   2.828   9.586  0.1754  0.2494  0.1039
   90loPI   C1A 1431   1.943   3.072   9.586  0.0498  0.1478 -0.0029
   90loPI   C2A 1432   1.965   3.085   9.114 -0.2814  0.2655  0.2850
   90loPI   C3A 1433   1.793   3.248   8.738 -0.1123 -0.3877  0.0191
   90loPI   C4A 1434   1.612   3.104   8.294 -0.1146 -0.2853  0.1727
   90loPI   C5A 1435   1.380   3.012   7.939  0.0370  0.1056 -0.0176
   90loPI   C6A 1436   1.171   2.979   7.588 -0.1531  0.3015 -0.1218
   90loPI   C1B 1437   1.526   3.129   9.351  0.1103  0.1377  0.3394
   90loPI   C2B 1438   1.342   3.286   9.029 -0.1229  0.1133  0.4444
   90loPI   C3B 1439   1.217   3.072   8.572 -0.1502 -0.3273 -0.0001
   90loPI   C4B 1440   1.185   2.782   8.304  0.3636 -0.1160  0.0528
   91loPI    C1 1441  12.190  15.840   9.514  0.0657  0.0715  0.0336
   91loPI    C2 1442  12.531  15.763   9.709  0.1607  0.2513 -0.0598
   91loPI    C3 1443  12.190  15.592   9.828  0.2532  0.2034  0.1397
   91loPI   PO4 1444  12.321  15.885   9.269 -0.3424 -0.2731  0.1842
   91loPI   GL1 1445  12.326  15.656   8.895  0.0109 -0.0451  0.1506
   91loPI   GL2 1446  12.625  15.505   8.856 -0.0807 -0.1512 -0.2960
   91loPI   C1A 1447  12.159  15.796   8.496 -0.1484  0.0884  0.0171
   91loPI   C2A 1448  12.172  15.713   8.033  0.0834 -0.0314 -0.1985
   91loPI   C3A 1449  12.063  15.621   7.534 -0.1532  0.2647 -0.0007
   91loPI   C4A 1450  11.956  15.634   7.090  0.3441  0.0467  0.0289
   91loPI   C5A 1451  12.232  15.518   6.780  0.5048  0.1066  0.0206
   91loPI   C6A 1452  12.261  15.178   6.493  0.0959  0.4793 -0.4097
   91loPI   C1B 1453  12.708  15.920   8.542  0.0753 -0.2798  0.2277
   91loPI   C2B 1454  12.662  15.914   8.087  0.1827  0.1459 -0.2909
   91loPI   C3B 1455  12.529  16.001   7.663 -0.0741  0.0931  0.1001
   91loPI   C4B 1456  12.447  15.791   7.362 -0.2079 -0.0221 -0.2600
   92loPI    C1 1457   2.176   5.123  10.356  0.0693 -0.0445  0.1602
   92loPI    C2 1458   2.007   5.383  10.609 -0.0910 -0.0802  0.0913
   92loPI    C3 1459   2.085   5.009  10.728  0.1804  0.0103  0.2043
   92loPI   PO4 1460   2.056   5.296  10.151  0.4844  0.0643 -0.1088
   92loPI   GL1 1461   2.297   5.448   9.832  0.0917 -0.0078  0.0828
   92loPI   GL2 1462   2.451   5.646   9.843  0.1316  0.1207  0.0432
   92loPI   C1A 1463   2.126   5.126   9.535  0.0308  0.1840 -0.1642
   92loPI   C2A 1464   2.023   5.086   9.125  0.0139 -0.1636 -0.0376
   92loPI   C3A 1465   2.014   5.133   8.586  0.1564 -0.2066  0.0747
   92loPI   C4A 1466   1.878   5.185   8.175 -0.1191 -0.2918 -0.1785
   92loPI   C5A 1467   1.682   5.482   7.964  0.0889 -0.0897 -0.3745
   92loPI   C6A 1468   1.620   5.699   7.537  0.0646 -0.1083 -0.1418
   92loPI   C1B 1469   2.678   5.586   9.545  0.1151  0.1154  0.3641
   92loPI   C2B 1470   2.663   5.454   9.032  0.1328  0.0671  0.1594
   92loPI   C3B 1471   2.458   5.536   8.608  0.0570  0.2883  0.1905
   92loPI   C4B 1472   2.538   5.681   8.205 -0.1440  0.1787 -0.2394
   93loPI    C1 1473   3.231   5.702  10.383  0.0990 -0.0158  0.0915
   93loPI    C2 1474   2.980   5.394  10.427  0.1797 -0.0660  0.2038
   93loPI    C3 1475   2.924   5.729  10.637  0.0894 -0.0017  0.0785
   93loPI   PO4 1476   3.318   5.640  10.104 -0.2183  0.1130 -0.4397
   93loPI   GL1 1477   3.501   5.568   9.728 -0.0796  0.1994  0.0022
   93loPI   GL2 1478   3.566   6.012   9.781 -0.0028  0.0247 -0.0165
   93loPI   C1A 1479   3.520   5.419   9.314  0.4897 -0.3524 -0.0661
   93loPI   C2A 1480   3.507   5.602   9.018  0.0405  0.1026  0.1486
   93loPI   C3A 1481   3.430   5.645   8.561 -0.3815 -0.0997  0.0095
   93loPI   C4A 1482   3.496   5.570   8.197 -0.0846  0.2479 -0.1169
   93loPI   C5A 1483   3.139   5.564   8.052  0.3879  0.1382 -0.4154
   93loPI   C6A 1484   2.857   5.237   7.958 -0.1347  0.1263 -0.2091
   93loPI   C1B 1485   3.637   6.101   9.376  0.4040 -0.2001  0.1151
   93loPI   C2B 1486   3.634   6.161   8.861 -0.3043 -0.1494  0.2472
   93loPI   C3B 1487   3.506   6.106   8.451 -0.1425 -0.3710  0.1059
   93loPI   C4B 1488   3.317   6.048   8.057 -0.4416 -0.1142 -0.0063
   94loPI    C1 1489  16.810   6.459   9.944 -0.1057 -0.4311  0.4191
   94loPI    C2 1490  17.126   6.299  10.129  0.3010  0.0059  0.1276
   94loPI    C3 1491  16.926   6.600  10.299  0.1635 -0.1358  0.2195
   94loPI   PO4 1492  16.900   6.514   9.677  0.1806 -0.1061 -0.1668
   94loPI   GL1 1493  17.078   6.306   9.246  0.1431 -0.3582  0.0547
   94loPI   GL2 1494  16.916   6.507   9.065 -0.0599  0.1373 -0.1119
   94loPI   C1A 1495  16.950   6.075   8.794 -0.2176  0.2796 -0.1536
   94loPI   C2A 1496  16.754   5.986   8.504  0.0050  0.1145  0.1858
   94loPI   C3A 1497  16.602   5.761   8.217  0.2113  0.4740  0.1329
   94loPI   C4A 1498  16.589   5.661   7.813  0.1244 -0.2971  0.0380
   94loPI   C5A 1499  16.769   5.912   7.454  0.1040  0.2754 -0.0566
   94loPI   C6A 1500  16.735   6.334   7.368  0.1044  0.1426  0.0655
   94loPI   C1B 1501  16.998   6.546   8.635  0.2208 -0.1094 -0.0835
   94loPI   C2B 1502  17.351   6.642   8.355  0.1427  0.1351 -0.2540
   94loPI   C3B 1503  17.412   6.705   7.944  0.0747 -0.1971  0.0902
   94loPI   C4B 1504  17.766   6.758   7.703 -0.0745 -0.0852 -0.2780
   95loPI    C1 1505   4.283  12.167  10.012 -0.0112 -0.1915 -0.1559
   95loPI    C2 1506   3.996  11.963  10.201 -0.0520 -0.0203 -0.0306
   95loPI    C3 1507   4.377  11.924  10.316 -0.0576 -0.0392 -0.0180
   95loPI   PO4 1508   4.263  12.064   9.682  0.2139 -0.0191  0.1211
   95loPI   GL1 1509   4.373  11.976   9.285  0.0582  0.3116  0.3704
   95loPI   GL2 1510   4.676  11.866   9.280  0.0038  0.1023 -0.1666
   95loPI   C1A 1511   4.019  12.082   8.948  0.1398  0.1267 -0.1427
   95loPI   C2A 1512   3.680  11.931   8.757 -0.1442 -0.2153 -0.1340
   95loPI   C3A 1513   3.550  12.019   8.333  0.0628 -0.1846 -0.1748
   95loPI   C4A 1514   3.504  11.978   7.948  0.0299 -0.0727 -0.1106
   95loPI   C5A 1515   3.476  11.738   7.530 -0.0850 -0.1003  0.1642
   95loPI   C6A 1516   3.201  11.869   7.130  0.1373  0.4070  0.1518
   95loPI   C1B 1517   4.844  11.944   8.890 -0.4963  0.1248 -0.1765
   95loPI   C2B 1518   5.055  12.015   8.629  0.0318 -0.2930 -0.1635
   95loPI   C3B 1519   4.899  11.867   8.269  0.0416 -0.0833  0.0369
   95loPI   C4B 1520   4.687  11.496   8.006  0.2332  0.0557  0.2607
   96loPI    C1 1521  18.698   2.594  10.086  0.2688 -0.1129  0.1126
   96loPI    C2 1522  18.384   2.431  10.273 -0.0290  0.2619 -0.0486
   96loPI    C3 1523  18.732   2.471  10.465 -0.0533 -0.2244  0.1090
   96loPI   PO4 1524  18.691   2.499   9.874  0.0270 -0.2278 -0.0522
   96loPI   GL1 1525  18.805   2.218   9.641  0.2647  0.1501  0.1907
   96loPI   GL2 1526  19.050   2.509   9.540 -0.1838  0.1098 -0.3791
   96loPI   C1A 1527  18.649   2.178   9.217 -0.0512  0.3900  0.0421
   96loPI   C2A 1528  18.792   2.008   8.761  0.0897  0.0161 -0.1343
   96loPI   C3A 1529  18.900   2.095   8.377  0.0081 -0.3144  0.0733
   96loPI   C4A 1530  19.217   2.231   8.127  0.2268 -0.0443 -0.1309
   96loPI   C5A 1531  19.652   2.340   8.106 -0.3127 -0.2809 -0.1007
   96loPI   C6A 1532  20.146   2.313   8.141  0.1853 -0.3541  0.1811
   96loPI   C1B 1533  19.225   2.659   9.208 -0.1123 -0.3278 -0.0378
   96loPI   C2B 1534  19.267   2.563   8.752  0.1045 -0.1129 -0.2058
   96loPI   C3B 1535  19.431   2.661   8.450 -0.2209 -0.1453 -0.1971
   96loPI   C4B 1536  19.826   2.780   8.254  0.0094  0.1446  0.3511
   97loPI    C1 1537   6.086  12.281  10.046 -0.2021 -0.1007 -0.1126
   97loPI    C2 1538   6.140  12.397  10.425  0.0526 -0.1368 -0.1362
   97loPI    C3 1539   5.841  12.148  10.333 -0.1001 -0.0126  0.0166
   97loPI   PO4 1540   6.107  12.467   9.934  0.0412 -0.0232  0.0434
   97loPI   GL1 1541   6.046  12.554   9.451  0.2507 -0.0645 -0.2181
   97loPI   GL2 1542   6.257  12.470   9.104  0.3684 -0.0487 -0.2299
   97loPI   C1A 1543   5.821  12.755   9.245 -0.0490 -0.0581 -0.3432
   97loPI   C2A 1544   5.620  12.981   8.934 -0.3883  0.0032  0.2658
   97loPI   C3A 1545   5.486  12.965   8.539  0.1510 -0.1428  0.2194
   97loPI   C4A 1546   5.314  12.808   8.157 -0.0092  0.2837 -0.0431
   97loPI   C5A 1547   5.104  12.491   7.825 -0.0903  0.1422  0.2902
   97loPI   C6A 1548   5.011  12.305   7.317  0.0970 -0.1759 -0.1680
   97loPI   C1B 1549   5.954  12.382   8.864  0.0091  0.0378 -0.2246
   97loPI   C2B 1550   5.900  12.299   8.421 -0.2885  0.4569 -0.4871
   97loPI   C3B 1551   5.927  12.238   7.928  0.3132 -0.0189 -0.0943
   97loPI   C4B 1552   5.941  12.150   7.424  0.1431  0.2665 -0.2842
   98loPI    C1 1553   5.057  19.148  10.319 -0.0816 -0.1648 -0.0710
   98loPI    C2 1554   4.887  19.249  10.667  0.0797 -0.3577  0.0658
   98loPI    C3 1555   5.237  19.411  10.561 -0.0215 -0.2177 -0.0582
   98loPI   PO4 1556   4.712  19.145  10.120 -0.3971 -0.1042  0.2430
   98loPI   GL1 1557   4.797  19.016   9.725 -0.0339  0.2515  0.0931
   98loPI   GL2 1558   5.100  19.118   9.809  0.3203  0.3093 -0.0848
   98loPI   C1A 1559   4.534  19.088   9.423  0.0391 -0.0462 -0.1415
   98loPI   C2A 1560   4.456  19.388   9.193  0.0129  0.1332  0.1486
   98loPI   C3A 1561   4.422  19.417   8.780 -0.0055 -0.2795  0.3080
   98loPI   C4A 1562   4.169  19.614   8.621  0.2288 -0.0643  0.2144
   98loPI   C5A 1563   4.075  19.662   8.157 -0.0245 -0.0435  0.2991
   98loPI   C6A 1564   4.111  19.818   7.712  0.0750  0.0382  0.2547
   98loPI   C1B 1565   5.347  19.014   9.452 -0.3069  0.1653 -0.0023
   98loPI   C2B 1566   5.531  18.989   9.132 -0.0743  0.2933  0.2946
   98loPI   C3B 1567   5.703  18.899   8.717 -0.2827  0.4757  0.0692
   98loPI   C4B 1568   5.752  18.931   8.294  0.3698 -0.0167  0.0163
   99loPI    C1 1569  19.194   0.332   9.765 -0.0451 -0.0766  0.0645
   99loPI    C2 1570  19.155   0.096  10.086  0.0987 -0.0120  0.1305
   99loPI    C3 1571  19.349   0.445  10.116 -0.1630  0.1438  0.0475
   99loPI   PO4 1572  19.338   0.208   9.543 -0.1362  0.4768  0.0825
   99loPI   GL1 1573  19.493   0.273   9.206  0.0656 -0.0553  0.0272
   99loPI   GL2 1574  19.223   0.243   8.933  0.1708 -0.1222  0.2365
   99loPI   C1A 1575  19.772   0.266   8.842  0.2671 -0.2197 -0.0867
   99loPI   C2A 1576  19.964   0.415   8.653 -0.2260  0.0710 -0.0655
   99loPI   C3A 1577  20.034   0.655   8.209 -0.1004  0.0727  0.1094
   99loPI   C4A 1578  19.942   0.630   7.832 -0.1517 -0.1830  0.5114
   99loPI   C5A 1579  19.775   0.643   7.506 -0.1313 -0.2386 -0.1773
   99loPI   C6A 1580  19.577   0.632   7.157 -0.4083 -0.2179 -0.0061
   99loPI   C1B 1581  19.430   0.371   8.525 -0.0594 -0.0430  0.0883
   99loPI   C2B 1582  19.620   0.287   8.188 -0.2518  0.4282 -0.2792
   99loPI   C3B 1583  19.570   0.286   7.814 -0.0268  0.1940 -0.2373
   99loPI   C4B 1584  19.480   0.154   7.390  0.0401 -0.1604 -0.2019
  100loPI    C1 1585  13.512   4.555   9.711  0.3899 -0.1307  0.0709
  100loPI    C2 1586  13.640   4.647  10.079  0.0657 -0.0649  0.1709
  100loPI    C3 1587  13.626   4.265   9.962  0.1134 -0.0905  0.2476
  100loPI   PO4 1588  13.674   4.777   9.549 -0.2324  0.1924  0.4949
  100loPI   GL1 1589  13.792   5.012   9.175 -0.0596 -0.1893  0.1676
  100loPI   GL2 1590  14.055   5.068   9.322  0.0064 -0.0661 -0.1094
  100loPI   C1A 1591  13.911   5.184   8.752 -0.0439 -0.0389 -0.1813
  100loPI   C2A 1592  13.769   5.369   8.334  0.1004  0.3905 -0.0455
  100loPI   C3A 1593  13.562   5.744   8.217  0.1222 -0.4734 -0.1732
  100loPI   C4A 1594  13.480   6.047   8.075  0.1276  0.3486 -0.0473
  100loPI   C5A 1595  13.745   6.278   7.685  0.1412 -0.0525  0.0201
  100loPI   C6A 1596  14.060   6.083   7.303  0.1940 -0.4047  0.1235
  100loPI   C1B 1597  14.323   4.826   9.104 -0.1939 -0.2960 -0.1021
  100loPI   C2B 1598  14.534   4.817   8.685  0.1323  0.1513  0.2735
  100loPI   C3B 1599  14.785   5.099   8.317 -0.1563  0.1386  0.2142
  100loPI   C4B 1600  15.299   5.157   8.240  0.3731  0.0400 -0.0290
  101loPI    C1 1601  13.285   2.062   9.866 -0.3693 -0.0501  0.0639
  101loPI    C2 1602  13.310   1.824  10.187  0.1278  0.0119  0.0790
  101loPI    C3 1603  13.082   2.153  10.198 -0.2185 -0.2269  0.2066
  101loPI   PO4 1604  13.173   1.910   9.677 -0.0077 -0.0271  0.3108
  101loPI   GL1 1605  13.319   1.905   9.158 -0.0771  0.3230  0.0574
  101loPI   GL2 1606  13.034   1.776   9.174 -0.1251 -0.1608 -0.0193
  101loPI   C1A 1607  13.407   1.888   8.750  0.0302 -0.2763  0.4184
  101loPI   C2A 1608  13.379   2.111   8.454 -0.3117 -0.2983 -0.2358
  101loPI   C3A 1609  13.449   2.011   8.113 -0.0951  0.2304  0.0713
  101loPI   C4A 1610  13.300   1.567   7.972 -0.1607 -0.2008  0.0635
  101loPI   C5A 1611  13.129   1.358   7.674 -0.0896  0.1708 -0.2361
  101loPI   C6A 1612  12.811   1.363   7.384 -0.1183 -0.1768 -0.1792
  101loPI   C1B 1613  12.978   1.642   8.718  0.1429 -0.0715  0.0014
  101loPI   C2B 1614  12.912   1.706   8.261 -0.1835  0.0027  0.0185
  101loPI   C3B 1615  12.919   1.799   7.776 -0.0534 -0.0690 -0.0453
  101loPI   C4B 1616  13.113   1.792   7.372 -0.0644  0.2194 -0.0002
  102loPI    C1 1617  12.653  16.817   9.819  0.1144  0.0175 -0.0371
  102loPI    C2 1618  12.999  16.848  10.016  0.0175 -0.0112  0.1398
  102loPI    C3 1619  12.791  16.507  10.030  0.0369 -0.0325 -0.0593
  102loPI   PO4 1620  12.663  16.888   9.560  0.2196  0.2966 -0.0694
  102loPI   GL1 1621  12.877  16.813   9.112  0.1296  0.2373 -0.0914
  102loPI   GL2 1622  12.683  16.990   8.886 -0.0414  0.0761  0.1999
  102loPI   C1A 1623  12.863  16.504   8.793  0.1687 -0.1230  0.3231
  102loPI   C2A 1624  12.825  16.423   8.396 -0.4136  0.3521  0.3030
  102loPI   C3A 1625  12.768  16.479   8.015  0.2903  0.0648 -0.0428
  102loPI   C4A 1626  12.593  16.522   7.626 -0.0386 -0.2482  0.1110
  102loPI   C5A 1627  12.545  16.456   7.233  0.2629  0.3454  0.0509
  102loPI   C6A 1628  12.818  16.099   7.124 -0.2522  0.2478  0.0498
  102loPI   C1B 1629  12.468  17.257   8.662 -0.1981  0.0013 -0.1810
  102loPI   C2B 1630  12.474  17.227   8.188  0.1790 -0.3242 -0.0198
  102loPI   C3B 1631  12.270  17.421   7.955 -0.2040 -0.0544  0.0969
  102loPI   C4B 1632  12.169  17.469   7.480 -0.0297  0.3469  0.2388
  103loPI    C1 1633   5.439   1.449  10.445 -0.0797 -0.0249 -0.1361
  103loPI    C2 1634   5.293   1.081  10.501  0.1469 -0.0949  0.0094
  103loPI    C3 1635   5.505   1.257  10.790  0.1120  0.1172 -0.0923
  103loPI   PO4 1636   5.197   1.559  10.212  0.1271 -0.2773  0.1852
  103loPI   GL1 1637   5.041   1.659   9.824  0.2012 -0.2816  0.1990
  103loPI   GL2 1638   4.762   1.756   9.847 -0.0494 -0.1307 -0.3470
  103loPI   C1A 1639   4.920   1.823   9.372  0.2215 -0.3994 -0.0491
  103loPI   C2A 1640   5.110   1.992   8.941 -0.1074 -0.1014  0.0346
  103loPI   C3A 1641   5.066   2.179   8.530  0.0699 -0.1807 -0.1588
  103loPI   C4A 1642   5.015   2.165   8.105 -0.0150  0.0049  0.0139
  103loPI   C5A 1643   4.810   2.407   7.801 -0.2996 -0.2393  0.1504
  103loPI   C6A 1644   4.506   2.686   7.574 -0.2475 -0.2656 -0.0298
  103loPI   C1B 1645   5.032   2.192   9.676 -0.0560 -0.1361 -0.0941
  103loPI   C2B 1646   5.349   2.289   9.435  0.2736 -0.1827  0.1622
  103loPI   C3B 1647   5.490   2.366   9.003 -0.1105 -0.2132 -0.0967
  103loPI   C4B 1648   5.567   2.613   8.630  0.1028  0.1895  0.0398
  104loPI    C1 1649   5.493   9.606   9.900  0.0179 -0.3318  0.3279
  104loPI    C2 1650   5.539   9.829  10.229  0.0012 -0.0018  0.1120
  104loPI    C3 1651   5.857   9.729  10.009 -0.0043 -0.0989  0.1474
  104loPI   PO4 1652   5.325   9.668   9.793 -0.0330 -0.1177  0.3717
  104loPI   GL1 1653   5.258   9.488   9.345  0.0649  0.1267 -0.2776
  104loPI   GL2 1654   5.163   9.774   9.352 -0.0059  0.1912 -0.1977
  104loPI   C1A 1655   5.268   9.448   8.934 -0.0255 -0.2755  0.0212
  104loPI   C2A 1656   5.229   9.480   8.479  0.1118  0.2060  0.2086
  104loPI   C3A 1657   5.111   9.315   8.090  0.1249  0.2774 -0.0641
  104loPI   C4A 1658   4.946   8.858   7.869 -0.0065  0.0029 -0.0624
  104loPI   C5A 1659   4.715   8.414   7.835  0.0317 -0.1662 -0.1890
  104loPI   C6A 1660   4.455   7.934   7.824 -0.0754  0.0302 -0.0283
  104loPI   C1B 1661   5.214   9.946   8.944 -0.0290 -0.0568  0.1219
  104loPI   C2B 1662   5.208   9.970   8.448 -0.2339  0.2363 -0.0362
  104loPI   C3B 1663   5.323  10.010   7.975 -0.2998 -0.1187  0.2771
  104loPI   C4B 1664   5.217  10.195   7.560 -0.3004  0.1589 -0.1378
  105loPI    C1 1665  11.802   6.002   9.884  0.0489  0.0325  0.0630
  105loPI    C2 1666  11.720   6.385   9.969 -0.0128 -0.0177  0.2346
  105loPI    C3 1667  11.475   6.095  10.097 -0.0704 -0.1019 -0.0595
  105loPI   PO4 1668  11.851   6.054   9.621 -0.1632  0.1806 -0.1260
  105loPI   GL1 1669  11.707   6.191   9.283 -0.1369 -0.0008 -0.0074
  105loPI   GL2 1670  11.571   5.795   9.123 -0.0206 -0.1608  0.0309
  105loPI   C1A 1671  11.691   6.157   8.833  0.1240  0.2144  0.0473
  105loPI   C2A 1672  11.549   6.220   8.475 -0.1056  0.1131 -0.0019
  105loPI   C3A 1673  11.394   5.936   8.289  0.3139  0.1299  0.0594
  105loPI   C4A 1674  11.284   5.921   7.944  0.0804 -0.3796  0.0513
  105loPI   C5A 1675  10.926   5.939   7.646 -0.0337 -0.1539 -0.0117
  105loPI   C6A 1676  10.671   6.114   7.201  0.3791  0.1349 -0.4591
  105loPI   C1B 1677  11.287   5.720   8.900  0.0604 -0.0529  0.0382
  105loPI   C2B 1678  11.243   5.493   8.496 -0.2944  0.0472  0.0200
  105loPI   C3B 1679  11.139   5.447   8.036  0.1140  0.1110 -0.2527
  105loPI   C4B 1680  11.150   5.074   7.736  0.3877 -0.2036 -0.1655
  106loPI    C1 1681   0.677  17.976   9.923 -0.1285 -0.0952 -0.0414
  106loPI    C2 1682   0.383  17.730   9.811 -0.0644 -0.2076  0.0352
  106loPI    C3 1683   0.503  17.736  10.192  0.0028 -0.1305  0.0130
  106loPI   PO4 1684   0.629  18.153   9.646  0.3091  0.1912  0.1032
  106loPI   GL1 1685   0.577  18.098   9.208 -0.5160  0.3121  0.1119
  106loPI   GL2 1686   0.911  18.105   9.260  0.0496  0.2915  0.2882
  106loPI   C1A 1687   0.547  17.988   8.774  0.2862  0.0565 -0.0355
  106loPI   C2A 1688   0.400  18.178   8.357 -0.2915  0.1661 -0.0981
  106loPI   C3A 1689   0.324  18.126   7.881  0.0191 -0.2455 -0.1472
  106loPI   C4A 1690   0.207  18.439   7.532  0.2411 -0.2978  0.2682
  106loPI   C5A 1691   0.021  18.866   7.291  0.1991  0.0530  0.0817
  106loPI   C6A 1692  -0.118  18.964   6.889 -0.0835 -0.1944 -0.2757
  106loPI   C1B 1693   0.958  18.240   8.889 -0.0450  0.1358 -0.0935
  106loPI   C2B 1694   0.940  18.072   8.474 -0.0614  0.3096  0.1901
  106loPI   C3B 1695   1.199  18.162   8.136 -0.1684  0.0288  0.1932
  106loPI   C4B 1696   1.056  17.997   7.742 -0.1630  0.0987 -0.1729
  107loPI    C1 1697  12.654  11.323  10.184 -0.0196  0.0901 -0.1062
  107loPI    C2 1698  12.492  11.562  10.461 -0.1744  0.0461 -0.1576
  107loPI    C3 1699  12.794  11.319  10.559 -0.1857  0.0773 -0.0433
  107loPI   PO4 1700  12.572  11.479   9.938  0.1399  0.2113 -0.0107
  107loPI   GL1 1701  12.592  11.253   9.539 -0.2519  0.0096 -0.1254
  107loPI   GL2 1702  12.382  11.102   9.154 -0.3664  0.1464 -0.1313
  107loPI   C1A 1703  12.933  11.426   9.352 -0.2740 -0.1425 -0.0959
  107loPI   C2A 1704  12.879  11.347   8.908 -0.3641 -0.1941 -0.2363
  107loPI   C3A 1705  12.851  10.904   8.762  0.0715 -0.0962  0.2326
  107loPI   C4A 1706  13.125  10.549   8.668  0.1964 -0.1658 -0.0109
  107loPI   C5A 1707  13.122  10.160   8.389  0.1980 -0.0510 -0.2999
  107loPI   C6A 1708  13.145   9.966   7.995 -0.2681 -0.2086 -0.0439
  107loPI   C1B 1709  12.433  11.229   8.769  0.0328 -0.0880  0.1053
  107loPI   C2B 1710  12.445  11.174   8.392  0.1485  0.1925 -0.0681
  107loPI   C3B 1711  12.290  11.051   8.052 -0.0007 -0.2624  0.0970
  107loPI   C4B 1712  11.900  10.874   7.925  0.0071 -0.2260  0.1341
  108loPI    C1 1713  18.233  17.099   9.706  0.2494  0.0346 -0.0274
  108loPI    C2 1714  18.600  17.051   9.857  0.2899  0.5434  0.0520
  108loPI    C3 1715  18.317  17.234  10.073 -0.0576  0.0310  0.0474
  108loPI   PO4 1716  18.273  17.109   9.418  0.2085  0.0257 -0.2839
  108loPI   GL1 1717  18.189  17.028   8.962  0.1429  0.0834 -0.2487
  108loPI   GL2 1718  18.178  17.348   8.966 -0.1499  0.1811 -0.2533
  108loPI   C1A 1719  18.137  17.030   8.534  0.1272 -0.1005  0.0085
  108loPI   C2A 1720  18.040  16.951   8.157  0.0234 -0.1200 -0.0433
  108loPI   C3A 1721  17.913  16.859   7.644 -0.1731 -0.1311 -0.0426
  108loPI   C4A 1722  18.021  16.913   7.146  0.0141  0.2651 -0.0628
  108loPI   C5A 1723  18.183  16.737   6.815  0.0480 -0.1719 -0.1329
  108loPI   C6A 1724  18.440  16.767   6.427  0.0327 -0.2703  0.4411
  108loPI   C1B 1725  18.275  17.475   8.541 -0.1151 -0.2141 -0.2411
  108loPI   C2B 1726  18.208  17.490   8.121 -0.0319  0.2446  0.1141
  108loPI   C3B 1727  18.247  17.281   7.782  0.0768  0.1112 -0.2365
  108loPI   C4B 1728  18.423  17.115   7.523 -0.2201 -0.0297 -0.0451
  109loPI    C1 1729  10.587   3.758  10.038  0.4314  0.0618 -0.0045
  109loPI    C2 1730  10.697   3.622  10.398  0.1296  0.0233  0.0763
  109loPI    C3 1731  10.592   4.006  10.352 -0.0933 -0.0352  0.0894
  109loPI   PO4 1732  10.531   3.558   9.922 -0.1469  0.0529  0.0637
  109loPI   GL1 1733  10.552   3.344   9.567  0.0194  0.0428 -0.1929
  109loPI   GL2 1734  10.644   3.644   9.465 -0.1112 -0.3242  0.1843
  109loPI   C1A 1735  10.409   3.085   9.154  0.1233  0.1091 -0.3435
  109loPI   C2A 1736  10.284   3.136   8.860 -0.2193 -0.0202  0.1894
  109loPI   C3A 1737  10.221   3.206   8.564 -0.0006 -0.3490  0.2473
  109loPI   C4A 1738  10.212   3.225   8.183  0.2025  0.0494 -0.0291
  109loPI   C5A 1739  10.237   3.251   7.809  0.1307  0.2480  0.2568
  109loPI   C6A 1740  10.316   3.340   7.431  0.3599 -0.1258  0.0674
  109loPI   C1B 1741  10.612   3.525   8.986 -0.0866 -0.0860  0.1455
  109loPI   C2B 1742  10.676   3.446   8.547  0.3237 -0.0682  0.2064
  109loPI   C3B 1743  10.624   3.515   8.031  0.0322  0.4131 -0.0267
  109loPI   C4B 1744  10.692   3.645   7.678  0.0556 -0.0015 -0.0352
  110loPI    C1 1745  12.267  18.193   9.391 -0.0999 -0.0030 -0.1553
  110loPI    C2 1746  12.034  18.202   9.066  0.0075  0.0422 -0.2321
  110loPI    C3 1747  11.918  17.998   9.390 -0.0244 -0.1408 -0.3571
  110loPI   PO4 1748  12.514  18.218   9.263 -0.1438  0.1878 -0.0790
  110loPI   GL1 1749  12.910  18.368   9.020 -0.0262  0.0650  0.1488
  110loPI   GL2 1750  12.776  18.200   8.872  0.1598  0.0695  0.0225
  110loPI   C1A 1751  13.272  18.200   8.715  0.3300  0.4027  0.1048
  110loPI   C2A 1752  13.262  17.839   8.325  0.5002 -0.0427  0.1646
  110loPI   C3A 1753  13.336  17.846   7.864 -0.0519 -0.1096 -0.0218
  110loPI   C4A 1754  13.687  17.796   7.657  0.0092 -0.3308  0.3197
  110loPI   C5A 1755  14.040  17.607   7.387  0.0374 -0.3850 -0.1341
  110loPI   C6A 1756  14.263  17.537   7.051 -0.3167 -0.3707  0.1723
  110loPI   C1B 1757  12.769  18.236   8.548 -0.0268  0.1470  0.3192
  110loPI   C2B 1758  12.914  18.162   8.189 -0.0849 -0.2744  0.0065
  110loPI   C3B 1759  13.110  18.245   7.657 -0.1876  0.1288 -0.2000
  110loPI   C4B 1760  13.178  18.337   7.163 -0.4788  0.0056  0.1648
  111loPI    C1 1761   7.700   5.271  10.260  0.0586  0.1426 -0.1354
  111loPI    C2 1762   7.605   5.306  10.647 -0.2092  0.0835 -0.1937
  111loPI    C3 1763   7.976   5.392  10.524 -0.2493  0.5681  0.0024
  111loPI   PO4 1764   7.475   5.389  10.141 -0.2385 -0.2318 -0.2227
  111loPI   GL1 1765   7.295   5.344   9.769  0.1835  0.1304 -0.2783
  111loPI   GL2 1766   7.221   5.222   9.545  0.0657  0.1866 -0.1593
  111loPI   C1A 1767   7.740   5.343   9.545 -0.0809  0.2906  0.0493
  111loPI   C2A 1768   7.721   5.460   9.118  0.2957  0.0342  0.0091
  111loPI   C3A 1769   7.681   5.502   8.711 -0.0350  0.0380  0.1372
  111loPI   C4A 1770   7.709   5.477   8.124  0.0406 -0.0992 -0.0979
  111loPI   C5A 1771   7.805   5.645   7.672 -0.2716  0.3356 -0.0096
  111loPI   C6A 1772   8.013   5.595   7.264  0.3326 -0.1300 -0.0790
  111loPI   C1B 1773   7.262   5.175   9.184 -0.0011  0.1876  0.0646
  111loPI   C2B 1774   7.300   5.048   8.773 -0.2764 -0.2350  0.0757
  111loPI   C3B 1775   7.113   5.112   8.367  0.1415 -0.1408 -0.1224
  111loPI   C4B 1776   6.967   5.105   7.901  0.0359 -0.3749  0.2943
  112loPI    C1 1777   0.684   9.597  10.152 -0.0033 -0.0721  0.0174
  112loPI    C2 1778   0.888   9.484  10.477  0.2020 -0.2259 -0.1624
  112loPI    C3 1779   0.506   9.374  10.432  0.0969  0.0024  0.1416
  112loPI   PO4 1780   0.890   9.567   9.957  0.1772 -0.2057 -0.1322
  112loPI   GL1 1781   1.021   9.545   9.482 -0.2078 -0.4312  0.0302
  112loPI   GL2 1782   0.716   9.680   9.431  0.0219  0.1060 -0.2315
  112loPI   C1A 1783   1.297   9.475   9.112 -0.0491 -0.0946 -0.0491
  112loPI   C2A 1784   1.355   9.297   8.644  0.0603  0.4082  0.1289
  112loPI   C3A 1785   1.469   9.410   8.281  0.0334  0.1402 -0.0510
  112loPI   C4A 1786   1.455   9.416   7.932 -0.1768 -0.0962 -0.1768
  112loPI   C5A 1787   1.170   9.586   7.709  0.0897  0.5449 -0.1282
  112loPI   C6A 1788   0.661   9.616   7.450  0.0687 -0.3155 -0.1448
  112loPI   C1B 1789   0.854   9.736   8.981  0.0114  0.1353  0.6141
  112loPI   C2B 1790   0.783  10.041   8.629  0.5370  0.3400 -0.4834
  112loPI   C3B 1791   0.891   9.947   8.250  0.4629 -0.0029  0.3038
  112loPI   C4B 1792   0.812   9.998   7.796 -0.1405  0.2201 -0.3846
  113loPI    C1 1793  15.184   4.456   9.990 -0.1562 -0.1691  0.0869
  113loPI    C2 1794  15.008   4.395  10.344 -0.1387  0.4307  0.2092
  113loPI    C3 1795  15.398   4.481  10.327 -0.0729  0.1124  0.0155
  113loPI   PO4 1796  15.025   4.509   9.816 -0.0371 -0.0348 -0.1298
  113loPI   GL1 1797  14.948   4.812   9.515  0.1286  0.2028 -0.2022
  113loPI   GL2 1798  15.121   5.072   9.377  0.0923  0.1252  0.0718
  113loPI   C1A 1799  14.796   4.600   9.160 -0.0449  0.1891 -0.1356
  113loPI   C2A 1800  14.786   4.419   8.773 -0.1208  0.3205 -0.1432
  113loPI   C3A 1801  14.725   4.449   8.366 -0.1013  0.0950 -0.1434
  113loPI   C4A 1802  14.684   4.474   7.953  0.1015 -0.0450  0.1912
  113loPI   C5A 1803  14.493   4.519   7.593 -0.3078 -0.1173 -0.2602
  113loPI   C6A 1804  14.558   4.453   7.244  0.4638  0.2670 -0.1738
  113loPI   C1B 1805  15.139   4.902   8.986  0.0784  0.6554  0.1952
  113loPI   C2B 1806  15.169   4.845   8.593 -0.1305  0.1678  0.4052
  113loPI   C3B 1807  15.173   4.702   8.203 -0.0332 -0.0107 -0.1143
  113loPI   C4B 1808  15.036   4.889   7.888 -0.1983  0.2568  0.0042
  114loPI    C1 1809   0.700  11.601   9.530 -0.0153  0.1757  0.1434
  114loPI    C2 1810   0.447  11.663   9.832 -0.3536 -0.1529 -0.0637
  114loPI    C3 1811   0.524  11.290   9.710  0.1353 -0.0492 -0.0901
  114loPI   PO4 1812   0.571  11.765   9.294 -0.3148 -0.2099  0.3125
  114loPI   GL1 1813   0.651  12.025   8.873  0.2727  0.0011 -0.0185
  114loPI   GL2 1814   0.753  12.391   8.826  0.2277  0.1948  0.2788
  114loPI   C1A 1815   0.718  11.712   8.524  0.0625 -0.0785  0.0529
  114loPI   C2A 1816   0.503  11.822   8.197  0.0857  0.0965  0.3270
  114loPI   C3A 1817   0.537  11.819   7.828  0.1427  0.0280  0.1777
  114loPI   C4A 1818   0.522  11.828   7.389  0.1302  0.2256 -0.0076
  114loPI   C5A 1819   0.397  11.816   6.960  0.0618  0.0834 -0.1431
  114loPI   C6A 1820   0.456  11.907   6.538  0.5497  0.1485 -0.0185
  114loPI   C1B 1821   0.716  12.166   8.412 -0.1685 -0.3054  0.0888
  114loPI   C2B 1822   0.702  12.300   8.034  0.2986  0.5857  0.1803
  114loPI   C3B 1823   0.757  12.386   7.695  0.1623 -0.1827 -0.2360
  114loPI   C4B 1824   0.661  12.690   7.503  0.0241 -0.0867  0.0079
  115loPI    C1 1825   2.650  16.756   9.743  0.1486 -0.0823 -0.0315
  115loPI    C2 1826   3.032  16.866   9.789  0.0818  0.2005 -0.1323
  115loPI    C3 1827   2.806  16.789  10.110  0.2468 -0.0579 -0.0750
  115loPI   PO4 1828   2.725  16.530   9.519  0.0294  0.1050 -0.1393
  115loPI   GL1 1829   2.469  16.197   9.156 -0.3167  0.0889  0.1322
  115loPI   GL2 1830   2.521  15.941   9.393 -0.0152  0.0533  0.0690
  115loPI   C1A 1831   2.357  16.321   8.788  0.0996  0.1333 -0.0728
  115loPI   C2A 1832   2.443  16.282   8.334 -0.0174  0.0913  0.0437
  115loPI   C3A 1833   2.323  16.057   8.072 -0.1932  0.2191  0.2296
  115loPI   C4A 1834   1.961  15.915   7.876 -0.0341 -0.2381 -0.0398
  115loPI   C5A 1835   1.719  15.428   7.604  0.0503  0.0218 -0.0075
  115loPI   C6A 1836   1.539  15.384   7.238  0.1773  0.0246 -0.2748
  115loPI   C1B 1837   2.727  15.631   9.133 -0.1613 -0.1498  0.3010
  115loPI   C2B 1838   2.846  15.482   8.880  0.0795 -0.2882 -0.0560
  115loPI   C3B 1839   3.068  15.099   8.662 -0.1269 -0.1129  0.0361
  115loPI   C4B 1840   3.235  14.732   8.359 -0.2043  0.3149 -0.0426
  116loPI    C1 1841   0.460  17.239   9.866  0.0165 -0.0095 -0.1181
  116loPI    C2 1842   0.654  16.925  10.021 -0.0636  0.0532  0.1126
  116loPI    C3 1843   0.798  17.295  10.073 -0.0944  0.0754  0.0415
  116loPI   PO4 1844   0.437  17.195   9.597  0.0948  0.0346 -0.0183
  116loPI   GL1 1845   0.627  17.183   9.296 -0.1438  0.0579 -0.0064
  116loPI   GL2 1846   0.507  17.532   9.178  0.1155 -0.0398 -0.1301
  116loPI   C1A 1847   0.353  17.157   8.931 -0.4830 -0.2113  0.1050
  116loPI   C2A 1848  -0.037  17.156   8.868  0.3792  0.0027 -0.0093
  116loPI   C3A 1849  -0.085  17.300   8.516  0.4159  0.0350 -0.3231
  116loPI   C4A 1850  -0.183  17.292   8.030 -0.1212  0.1066 -0.0749
  116loPI   C5A 1851   0.059  17.110   7.648 -0.0205  0.2035  0.3025
  116loPI   C6A 1852   0.310  16.975   7.252  0.0961 -0.1853 -0.1045
  116loPI   C1B 1853   0.244  17.628   8.733 -0.1134 -0.0102 -0.3017
  116loPI   C2B 1854   0.184  17.741   8.257  0.0684  0.2247 -0.2539
  116loPI   C3B 1855  -0.004  17.714   7.847 -0.1900  0.0086  0.0658
  116loPI   C4B 1856   0.011  17.808   7.426  0.1274 -0.2535  0.0163
  117loPI    C1 1857   6.358   9.598  10.179  0.1285  0.0336  0.0686
  117loPI    C2 1858   6.733   9.512  10.286  0.1156  0.0490  0.1262
  117loPI    C3 1859   6.426   9.359  10.491  0.0907  0.0612  0.0981
  117loPI   PO4 1860   6.371   9.606   9.926 -0.0056  0.1498  0.0530
  117loPI   GL1 1861   6.507   9.385   9.584 -0.1699 -0.0743  0.0405
  117loPI   GL2 1862   6.229   9.622   9.475  0.0046  0.2724 -0.0521
  117loPI   C1A 1863   6.630   9.179   9.183 -0.0012 -0.0231 -0.3107
  117loPI   C2A 1864   6.607   9.317   8.704 -0.1227 -0.0106  0.2323
  117loPI   C3A 1865   6.736   9.230   8.334 -0.1375  0.0633  0.2142
  117loPI   C4A 1866   6.710   9.368   7.974 -0.1023  0.3863  0.1338
  117loPI   C5A 1867   6.581   9.358   7.568 -0.2593  0.0550 -0.2020
  117loPI   C6A 1868   6.784   9.388   7.213  0.4910 -0.1133 -0.0066
  117loPI   C1B 1869   6.179   9.601   9.115  0.1694 -0.1907 -0.1361
  117loPI   C2B 1870   6.160   9.514   8.679 -0.0441 -0.4239 -0.0037
  117loPI   C3B 1871   6.329   9.566   8.286  0.0406 -0.1545  0.0160
  117loPI   C4B 1872   6.439   9.750   7.879  0.0467 -0.4168  0.1535
  118loPI    C1 1873  11.723  12.977   9.530  0.1858 -0.2491  0.2009
  118loPI    C2 1874  11.487  13.151   9.802  0.0831  0.0712 -0.0872
  118loPI    C3 1875  11.873  13.251   9.779  0.1215 -0.0497  0.0229
  118loPI   PO4 1876  11.590  13.061   9.239  0.3719  0.3557  0.0180
  118loPI   GL1 1877  11.537  12.694   8.862 -0.3706 -0.3147 -0.1726
  118loPI   GL2 1878  11.313  12.949   8.862  0.3365  0.2326 -0.2122
  118loPI   C1A 1879  11.399  12.586   8.402  0.0273  0.0689  0.4951
  118loPI   C2A 1880  11.487  12.574   7.965  0.1914  0.1411 -0.0406
  118loPI   C3A 1881  11.831  12.603   7.695 -0.3212 -0.0101  0.0352
  118loPI   C4A 1882  11.845  12.768   7.267  0.0834  0.1816 -0.3176
  118loPI   C5A 1883  12.208  13.009   7.040  0.1259 -0.2055 -0.2655
  118loPI   C6A 1884  12.515  12.943   6.774  0.0678  0.0977  0.3732
  118loPI   C1B 1885  11.452  13.093   8.442 -0.1293 -0.2283  0.3005
  118loPI   C2B 1886  11.720  13.017   8.125 -0.0384  0.3133 -0.2465
  118loPI   C3B 1887  11.733  13.115   7.715 -0.2671  0.0317  0.1064
  118loPI   C4B 1888  11.619  13.253   7.323 -0.2248  0.0620 -0.0225
  119loPI    C1 1889  17.505  12.684   9.819 -0.0657 -0.1315 -0.1360
  119loPI    C2 1890  17.865  12.788   9.959 -0.0172 -0.1388 -0.2546
  119loPI    C3 1891  17.535  12.946  10.120  0.0266 -0.3258  0.0265
  119loPI   PO4 1892  17.544  12.705   9.503  0.1168 -0.1373 -0.2528
  119loPI   GL1 1893  17.425  12.915   9.143  0.0211  0.0906  0.0232
  119loPI   GL2 1894  17.810  13.027   8.984  0.1896 -0.2662 -0.2025
  119loPI   C1A 1895  17.768  12.524   8.880 -0.3091  0.0142 -0.1563
  119loPI   C2A 1896  17.797  12.503   8.414  0.2795  0.0152  0.0901
  119loPI   C3A 1897  17.817  12.381   8.028  0.0945  0.0454 -0.3039
  119loPI   C4A 1898  17.862  12.328   7.603  0.0133 -0.0369  0.0235
  119loPI   C5A 1899  17.684  12.175   7.161  0.1860  0.2324 -0.0640
  119loPI   C6A 1900  17.453  11.972   6.779  0.1243  0.0622  0.0301
  119loPI   C1B 1901  17.931  12.959   8.547 -0.2547 -0.2574  0.1189
  119loPI   C2B 1902  18.193  12.677   8.175 -0.0028 -0.1999 -0.4263
  119loPI   C3B 1903  18.278  12.668   7.793 -0.2684 -0.0282 -0.0992
  119loPI   C4B 1904  18.433  12.643   7.373  0.0021  0.0163  0.1816
  120loPI    C1 1905   0.213   3.539  10.297 -0.0329 -0.4123  0.0964
  120loPI    C2 1906  -0.111   3.640  10.508  0.0520 -0.0092  0.0437
  120loPI    C3 1907   0.239   3.819  10.582  0.1547 -0.0947 -0.2237
  120loPI   PO4 1908   0.018   3.548  10.038 -0.1537 -0.3620 -0.0585
  120loPI   GL1 1909   0.135   3.690   9.632 -0.1262  0.2158 -0.3229
  120loPI   GL2 1910  -0.058   3.912   9.751 -0.0479 -0.0364  0.1191
  120loPI   C1A 1911   0.314   3.890   9.331 -0.2927  0.0804 -0.1793
  120loPI   C2A 1912   0.602   3.951   8.996  0.0309 -0.0419  0.1207
  120loPI   C3A 1913   0.663   3.947   8.576  0.1882  0.0240  0.0997
  120loPI   C4A 1914   0.741   3.831   8.077 -0.0452  0.1140 -0.1601
  120loPI   C5A 1915   0.764   3.935   7.628  0.3231 -0.1450 -0.3631
  120loPI   C6A 1916   0.757   3.793   7.254  0.0879  0.1047 -0.0815
  120loPI   C1B 1917  -0.215   3.998   9.338 -0.0178  0.3529  0.2530
  120loPI   C2B 1918  -0.365   4.066   8.831  0.0184  0.3605 -0.1532
  120loPI   C3B 1919  -0.661   4.023   8.507 -0.0034 -0.0866 -0.1042
  120loPI   C4B 1920  -0.770   3.818   8.179  0.0572 -0.1274  0.0413
  121loPI    C1 1921   0.995  13.569   9.451 -0.0935 -0.1108 -0.1892
  121loPI    C2 1922   1.252  13.267   9.394 -0.0720 -0.1676  0.1826
  121loPI    C3 1923   1.167  13.391   9.765  0.0259  0.3781  0.0326
  121loPI   PO4 1924   1.071  13.742   9.263 -0.1148 -0.0235  0.0474
  121loPI   GL1 1925   1.427  13.831   9.035 -0.1554  0.1636  0.0624
  121loPI   GL2 1926   1.508  14.091   8.931 -0.0188  0.2391  0.1481
  121loPI   C1A 1927   1.282  13.644   8.645 -0.0301 -0.2741  0.2286
  121loPI   C2A 1928   1.573  13.650   8.301  0.0347  0.0569  0.0634
  121loPI   C3A 1929   1.629  13.471   7.909 -0.0363  0.1261  0.0877
  121loPI   C4A 1930   1.338  13.447   7.594 -0.0248 -0.1697  0.3250
  121loPI   C5A 1931   1.198  13.576   7.181  0.4017  0.0978 -0.1812
  121loPI   C6A 1932   1.209  13.346   6.795 -0.1929 -0.0152 -0.0222
  121loPI   C1B 1933   1.505  14.155   8.532  0.1814 -0.0769 -0.1807
  121loPI   C2B 1934   1.468  14.126   8.129  0.0758  0.0319 -0.0612
  121loPI   C3B 1935   1.497  14.177   7.700 -0.1391 -0.1470  0.0650
  121loPI   C4B 1936   1.504  14.001   7.402 -0.1393 -0.2859  0.2488
  122loPI    C1 1937  12.388   2.381   9.633 -0.0519 -0.1550  0.0033
  122loPI    C2 1938  12.123   2.676   9.685  0.1008 -0.0152 -0.0023
  122loPI    C3 1939  12.240   2.454   9.998  0.1069  0.0350  0.0310
  122loPI   PO4 1940  12.569   2.542   9.441  0.2299  0.4745 -0.0153
  122loPI   GL1 1941  12.654   2.682   9.041  0.2413  0.0347 -0.0479
  122loPI   GL2 1942  13.003   2.878   9.024  0.2766 -0.0345 -0.0452
  122loPI   C1A 1943  12.560   2.731   8.566  0.1415 -0.0322 -0.0507
  122loPI   C2A 1944  12.672   2.738   8.221 -0.0524 -0.0232  0.0716
  122loPI   C3A 1945  12.738   2.777   7.825 -0.1367 -0.0885 -0.2373
  122loPI   C4A 1946  12.693   2.725   7.402  0.3420  0.2079 -0.1795
  122loPI   C5A 1947  12.647   2.526   7.115 -0.0220 -0.2539  0.0183
  122loPI   C6A 1948  12.779   2.117   6.855 -0.2187  0.0550 -0.2536
  122loPI   C1B 1949  13.299   3.036   8.715 -0.2488  0.0342  0.2306
  122loPI   C2B 1950  13.369   2.871   8.294 -0.2120 -0.1088 -0.1549
  122loPI   C3B 1951  13.261   2.813   7.873  0.2763 -0.1327  0.2238
  122loPI   C4B 1952  13.166   2.884   7.453  0.5544 -0.0830  0.2374
  123loPI    C1 1953  16.244   9.036  10.089 -0.0091 -0.0049 -0.1406
  123loPI    C2 1954  16.435   8.764  10.313 -0.1757 -0.0884 -0.0981
  123loPI    C3 1955  16.296   9.100  10.481  0.1197  0.0740 -0.1699
  123loPI   PO4 1956  16.018   8.916   9.941  0.1344 -0.1924 -0.2288
  123loPI   GL1 1957  16.092   8.770   9.562  0.3761  0.1990 -0.0661
  123loPI   GL2 1958  16.326   8.892   9.503 -0.3125 -0.1904  0.1696
  123loPI   C1A 1959  15.895   8.664   9.183  0.0769 -0.2961 -0.2132
  123loPI   C2A 1960  15.965   8.457   8.816 -0.1479  0.2814 -0.2796
  123loPI   C3A 1961  16.122   8.356   8.418 -0.5010  0.1807  0.0994
  123loPI   C4A 1962  16.065   8.236   8.054  0.4779  0.1075  0.0234
  123loPI   C5A 1963  15.775   8.334   7.693 -0.0422 -0.0451  0.1888
  123loPI   C6A 1964  15.425   8.114   7.394  0.0318  0.0479  0.0946
  123loPI   C1B 1965  16.460   8.849   9.140 -0.1921  0.0425 -0.0034
  123loPI   C2B 1966  16.444   8.647   8.705 -0.0847 -0.2297  0.0673
  123loPI   C3B 1967  16.675   8.658   8.319  0.0773 -0.0829  0.0968
  123loPI   C4B 1968  16.822   8.780   7.797  0.0282  0.4270  0.2309
  124loPI    C1 1969  13.851   6.260   9.882 -0.0882  0.0398  0.1292
  124loPI    C2 1970  14.150   6.396  10.110  0.1259  0.0066 -0.1270
  124loPI    C3 1971  14.122   6.006  10.029 -0.0995 -0.0168  0.0526
  124loPI   PO4 1972  13.817   6.486   9.729 -0.2544  0.3895  0.0033
  124loPI   GL1 1973  13.897   6.582   9.339 -0.0164  0.1601 -0.1485
  124loPI   GL2 1974  13.705   6.402   9.044 -0.0515  0.0851 -0.0574
  124loPI   C1A 1975  14.115   6.774   8.906 -0.2570 -0.2623 -0.1394
  124loPI   C2A 1976  14.197   6.829   8.460  0.3776  0.1843  0.1872
  124loPI   C3A 1977  14.185   6.815   8.093 -0.0375  0.2952 -0.2103
  124loPI   C4A 1978  14.413   6.780   7.586 -0.0724 -0.1563 -0.0358
  124loPI   C5A 1979  14.271   6.536   7.334  0.0949  0.2764 -0.1525
  124loPI   C6A 1980  14.244   6.404   6.851 -0.3964  0.0946  0.1900
  124loPI   C1B 1981  14.003   6.283   8.691  0.2871  0.0733  0.2795
  124loPI   C2B 1982  13.882   6.308   8.164  0.1888 -0.1212 -0.0518
  124loPI   C3B 1983  14.197   6.365   7.802  0.2198 -0.1205 -0.0446
  124loPI   C4B 1984  14.441   6.115   7.715  0.2887 -0.2831  0.0690
  125loPI    C1 1985  13.394   0.767   9.545 -0.0357  0.1013 -0.0263
  125loPI    C2 1986  13.259   0.649   9.902 -0.1057  0.1098 -0.0496
  125loPI    C3 1987  13.096   0.967   9.723 -0.0519  0.1223 -0.0767
  125loPI   PO4 1988  13.467   0.628   9.476 -0.3190  0.1389 -0.1352
  125loPI   GL1 1989  13.373   0.607   9.080  0.2126  0.1183 -0.1772
  125loPI   GL2 1990  13.367   0.280   9.017 -0.0820  0.1412  0.1159
  125loPI   C1A 1991  13.196   0.818   8.709  0.1471 -0.3527 -0.3314
  125loPI   C2A 1992  13.103   0.872   8.269 -0.3164  0.0387  0.0028
  125loPI   C3A 1993  13.060   0.718   7.856 -0.0213 -0.3076 -0.0736
  125loPI   C4A 1994  13.145   0.670   7.364  0.0719  0.0346  0.1990
  125loPI   C5A 1995  13.073   0.638   6.977 -0.1012  0.1605  0.2811
  125loPI   C6A 1996  12.937   0.665   6.674  0.0678 -0.3623 -0.0119
  125loPI   C1B 1997  13.114   0.307   8.664 -0.2514  0.2479  0.0439
  125loPI   C2B 1998  12.895   0.318   8.292 -0.0123 -0.5400 -0.2040
  125loPI   C3B 1999  12.866   0.168   7.915  0.1606  0.2977 -0.0386
  125loPI   C4B 2000  12.790   0.321   7.468 -0.0415  0.4912  0.1836
  126loPI    C1 2001   4.473   1.379  10.130 -0.1893  0.0662 -0.0210
  126loPI    C2 2002   4.496   0.994  10.236 -0.1893  0.1043  0.1193
  126loPI    C3 2003   4.816   1.231  10.274 -0.1635  0.0980 -0.0494
  126loPI   PO4 2004   4.345   1.428   9.927  0.1376  0.0943 -0.0074
  126loPI   GL1 2005   4.318   1.609   9.672  0.0229  0.0829 -0.0371
  126loPI   GL2 2006   4.477   1.842   9.491  0.0793  0.2834 -0.2383
  126loPI   C1A 2007   4.129   1.493   9.286 -0.0632  0.2574  0.0001
  126loPI   C2A 2008   4.160   1.343   8.897 -0.2196  0.1153 -0.3008
  126loPI   C3A 2009   4.068   1.397   8.482 -0.0423  0.0004 -0.0101
  126loPI   C4A 2010   4.213   0.998   8.146  0.0683  0.3509 -0.1105
  126loPI   C5A 2011   4.512   0.711   8.150  0.0349  0.0500 -0.0369
  126loPI   C6A 2012   4.560   0.316   7.802 -0.3665 -0.0217 -0.1927
  126loPI   C1B 2013   4.245   1.920   9.118  0.1206  0.0282 -0.0947
  126loPI   C2B 2014   4.187   1.836   8.768 -0.0693  0.0690 -0.0061
  126loPI   C3B 2015   4.246   1.895   8.370  0.3350  0.0660  0.1780
  126loPI   C4B 2016   4.068   1.915   7.925 -0.2212 -0.0785  0.1700
  127loPI    C1 2017   0.454   4.379  10.205  0.0078 -0.3153 -0.2383
  127loPI    C2 2018   0.817   4.406  10.372 -0.1654  0.1073  0.0895
  127loPI    C3 2019   0.559   4.128  10.498 -0.0532 -0.0186  0.0436
  127loPI   PO4 2020   0.468   4.418   9.947 -0.2891  0.3578  0.0803
  127loPI   GL1 2021   0.650   4.405   9.559  0.1380  0.1418 -0.2097
  127loPI   GL2 2022   0.689   4.098   9.569 -0.2282  0.4375  0.1551
  127loPI   C1A 2023   0.572   4.437   9.189  0.1815 -0.0207 -0.0224
  127loPI   C2A 2024   0.601   4.391   8.752 -0.1172  0.1456  0.0539
  127loPI   C3A 2025   0.406   4.474   8.420  0.1132 -0.0809 -0.2944
  127loPI   C4A 2026   0.014   4.563   8.137 -0.0952 -0.2747  0.0855
  127loPI   C5A 2027  -0.127   4.670   7.915  0.2079 -0.1229 -0.1719
  127loPI   C6A 2028   0.003   4.763   7.474 -0.3130 -0.0182  0.1312
  127loPI   C1B 2029   1.016   4.151   9.280  0.0054 -0.1909  0.1259
  127loPI   C2B 2030   1.096   4.069   8.873  0.0831  0.3456  0.2204
  127loPI   C3B 2031   1.238   4.079   8.471  0.0206 -0.1098  0.3259
  127loPI   C4B 2032   0.870   4.261   8.213 -0.2295 -0.2999 -0.2709
  128loPI    C1 2033  14.192  19.200   9.637  0.3110  0.0084 -0.1294
  128loPI    C2 2034  14.481  19.395   9.833  0.1227 -0.0513  0.2175
  128loPI    C3 2035  14.301  19.081  10.003 -0.1268 -0.0332 -0.0058
  128loPI   PO4 2036  14.217  19.159   9.393  0.1537 -0.1005 -0.2349
  128loPI   GL1 2037  14.335  18.881   9.200  0.0520 -0.3374 -0.3557
  128loPI   GL2 2038  14.640  18.685   9.242  0.0660  0.2831  0.0355
  128loPI   C1A 2039  14.126  18.977   8.796  0.0395  0.2482 -0.4191
  128loPI   C2A 2040  13.743  19.119   8.667 -0.0718 -0.0538 -0.0264
  128loPI   C3A 2041  13.501  19.285   8.356 -0.0471  0.0057 -0.0470
  128loPI   C4A 2042  13.143  19.116   8.214  0.0458  0.1366 -0.0830
  128loPI   C5A 2043  13.173  19.006   7.787  0.0344 -0.1003 -0.1594
  128loPI   C6A 2044  12.860  19.002   7.480  0.1794 -0.0356 -0.0468
  128loPI   C1B 2045  14.616  18.765   8.812 -0.0186 -0.3432  0.1903
  128loPI   C2B 2046  14.520  18.617   8.368 -0.0370 -0.2802 -0.0991
  128loPI   C3B 2047  14.654  18.615   7.956 -0.4030  0.4496  0.0277
  128loPI   C4B 2048  14.856  18.375   7.677  0.0856  0.1095  0.1896
  129loPI    C1 2049  15.782  10.285   9.863  0.1526 -0.2450 -0.1182
  129loPI    C2 2050  16.151  10.390   9.973  0.0188 -0.0639  0.1683
  129loPI    C3 2051  15.884  10.280  10.249 -0.1597 -0.1376 -0.0309
  129loPI   PO4 2052  15.744  10.406   9.588 -0.0798 -0.0803  0.0056
  129loPI   GL1 2053  15.903  10.229   9.364 -0.0217 -0.1245 -0.1132
  129loPI   GL2 2054  15.655   9.942   9.437 -0.0682 -0.0907  0.0658
  129loPI   C1A 2055  16.023  10.055   8.947 -0.0289  0.0889  0.0318
  129loPI   C2A 2056  16.284  10.051   8.479  0.3508 -0.2734  0.0615
  129loPI   C3A 2057  16.295   9.825   8.123  0.0503  0.0718  0.1828
  129loPI   C4A 2058  16.136   9.786   7.693  0.3436 -0.0656  0.0836
  129loPI   C5A 2059  15.785   9.748   7.590  0.1109 -0.1170 -0.1737
  129loPI   C6A 2060  15.428   9.651   7.581  0.0482 -0.2774 -0.0132
  129loPI   C1B 2061  15.878   9.679   9.176 -0.0065  0.3237  0.0203
  129loPI   C2B 2062  15.774   9.378   8.804 -0.0941 -0.1706 -0.1067
  129loPI   C3B 2063  15.689   9.262   8.494  0.1599  0.0184  0.0883
  129loPI   C4B 2064  15.482   8.974   8.270  0.2678  0.2189  0.2251
  130loPI    C1 2065  16.066   4.140  10.261 -0.1275  0.1432 -0.2989
  130loPI    C2 2066  15.784   3.879  10.148  0.1188 -0.2815  0.0367
  130loPI    C3 2067  15.717   4.125  10.456 -0.0873  0.0111 -0.2356
  130loPI   PO4 2068  16.288   4.013  10.137  0.0375  0.0730  0.1233
  130loPI   GL1 2069  16.133   3.970   9.702 -0.2229  0.0624 -0.1655
  130loPI   GL2 2070  15.870   3.943   9.628 -0.5552 -0.0188 -0.1495
  130loPI   C1A 2071  16.506   3.906   9.318  0.1248  0.1161  0.1654
  130loPI   C2A 2072  16.714   3.872   8.957 -0.2569 -0.2274  0.0931
  130loPI   C3A 2073  16.868   3.991   8.588 -0.5111  0.2008 -0.1176
  130loPI   C4A 2074  16.804   3.882   8.038  0.1860 -0.0688  0.1619
  130loPI   C5A 2075  17.113   3.791   7.674  0.0626 -0.1426  0.0740
  130loPI   C6A 2076  17.378   3.792   7.311  0.1830 -0.1888 -0.1110
  130loPI   C1B 2077  15.934   4.148   9.178  0.1911  0.0027 -0.0582
  130loPI   C2B 2078  15.923   4.128   8.726 -0.1008 -0.0308 -0.0041
  130loPI   C3B 2079  15.835   4.000   8.370 -0.2990 -0.0814 -0.1866
  130loPI   C4B 2080  15.920   3.944   7.921 -0.1742 -0.0947  0.0921
  131loPI    C1 2081  16.535   8.094   9.992 -0.0852 -0.0669 -0.0088
  131loPI    C2 2082  16.562   7.737  10.172 -0.0201 -0.0540  0.0073
  131loPI    C3 2083  16.610   8.073  10.384  0.2178 -0.0420 -0.0629
  131loPI   PO4 2084  16.759   8.117   9.760 -0.2421 -0.0535  0.2755
  131loPI   GL1 2085  16.873   8.001   9.404  0.1135 -0.0352  0.1393
  131loPI   GL2 2086  17.200   8.198   9.485 -0.0093  0.1851 -0.1475
  131loPI   C1A 2087  16.864   7.909   8.977  0.0626 -0.1655  0.1381
  131loPI   C2A 2088  16.901   7.815   8.511  0.0003 -0.1020 -0.1781
  131loPI   C3A 2089  16.901   7.844   8.120  0.2968  0.0130  0.2236
  131loPI   C4A 2090  17.111   7.896   7.708  0.0647 -0.1516 -0.1438
  131loPI   C5A 2091  17.383   7.641   7.510  0.0181  0.1131  0.0502
  131loPI   C6A 2092  17.635   7.515   7.148 -0.1692 -0.0779  0.1726
  131loPI   C1B 2093  17.398   7.905   9.143 -0.2473 -0.1678 -0.1053
  131loPI   C2B 2094  17.407   7.887   8.801 -0.1083 -0.1121  0.3744
  131loPI   C3B 2095  17.433   7.977   8.423  0.2690 -0.0221 -0.1797
  131loPI   C4B 2096  17.505   8.108   7.976  0.0931  0.0569 -0.3927
  132loPI    C1 2097   3.470  11.392   9.456 -0.0007  0.0555  0.0196
  132loPI    C2 2098   3.071  11.356   9.467  0.0049  0.0316  0.1497
  132loPI    C3 2099   3.303  11.041   9.552  0.0521 -0.0217 -0.1660
  132loPI   PO4 2100   3.490  11.617   9.389 -0.2536 -0.1204 -0.0150
  132loPI   GL1 2101   3.280  11.820   9.135 -0.1302  0.3483 -0.4177
  132loPI   GL2 2102   3.165  12.010   9.029 -0.1336  0.1892 -0.1359
  132loPI   C1A 2103   3.076  11.496   8.903 -0.1068  0.0435 -0.2891
  132loPI   C2A 2104   2.822  11.326   8.623  0.1697  0.0304  0.0998
  132loPI   C3A 2105   2.794  11.208   8.182 -0.1237 -0.5042  0.2412
  132loPI   C4A 2106   2.692  11.266   7.771 -0.0493  0.2199 -0.3558
  132loPI   C5A 2107   2.693  11.220   7.416  0.0344 -0.0410 -0.1167
  132loPI   C6A 2108   2.789  10.788   7.088  0.0990 -0.0736  0.3676
  132loPI   C1B 2109   3.273  12.214   8.686  0.1378 -0.2540  0.3165
  132loPI   C2B 2110   3.098  12.218   8.236  0.1264  0.0784  0.3315
  132loPI   C3B 2111   2.928  12.125   7.807 -0.0473  0.2610  0.0782
  132loPI   C4B 2112   2.713  12.068   7.358 -0.1122 -0.0492 -0.0889
  133loPI    C1 2113   8.953  18.821   9.865  0.2353 -0.0844 -0.0766
  133loPI    C2 2114   8.716  18.819  10.187 -0.0692  0.1679 -0.2930
  133loPI    C3 2115   9.111  18.773  10.230 -0.1264 -0.0072  0.0947
  133loPI   PO4 2116   8.769  18.666   9.664 -0.2461 -0.1001 -0.0134
  133loPI   GL1 2117   8.621  18.726   9.239 -0.2049 -0.2270 -0.2738
  133loPI   GL2 2118   8.306  18.574   9.122  0.0349 -0.1692 -0.0539
  133loPI   C1A 2119   8.435  18.948   8.840  0.0506  0.3665  0.1931
  133loPI   C2A 2120   8.409  19.054   8.399 -0.1795  0.2419  0.3886
  133loPI   C3A 2121   8.478  19.131   7.866  0.0655  0.0820 -0.3483
  133loPI   C4A 2122   8.348  19.372   7.563 -0.2556 -0.1046  0.0701
  133loPI   C5A 2123   8.667  19.725   7.464  0.2691 -0.4660  0.1746
  133loPI   C6A 2124   9.041  19.790   7.169  0.1895  0.0923 -0.1680
  133loPI   C1B 2125   8.270  18.461   8.739 -0.0243  0.1007  0.0596
  133loPI   C2B 2126   8.327  18.489   8.389  0.3004  0.0165  0.0590
  133loPI   C3B 2127   8.620  18.683   8.075  0.0895  0.2124  0.2449
  133loPI   C4B 2128   8.910  18.656   7.828  0.2127 -0.0841  0.0569
  134loPI    C1 2129   9.726   8.050   9.701  0.2737  0.0078  0.2766
  134loPI    C2 2130   9.752   8.442   9.775  0.0747  0.0425  0.1697
  134loPI    C3 2131   9.402   8.253   9.819  0.0895 -0.0536 -0.1095
  134loPI   PO4 2132   9.817   8.033   9.451 -0.0072 -0.3809 -0.2216
  134loPI   GL1 2133   9.581   7.940   9.066 -0.0373  0.3087  0.1326
  134loPI   GL2 2134   9.477   7.564   8.983 -0.0831 -0.0791  0.3852
  134loPI   C1A 2135   9.605   8.032   8.574 -0.0756 -0.1397  0.0223
  134loPI   C2A 2136   9.638   8.146   8.153  0.1020 -0.2189  0.4802
  134loPI   C3A 2137   9.451   8.262   7.827 -0.1215 -0.0919  0.2302
  134loPI   C4A 2138   9.455   8.231   7.443  0.5073  0.2131  0.0317
  134loPI   C5A 2139   9.499   8.454   7.088 -0.0944 -0.0076 -0.0411
  134loPI   C6A 2140   9.841   8.689   6.852  0.1669  0.1969  0.2190
  134loPI   C1B 2141   9.666   7.446   8.624 -0.1239  0.1569  0.2828
  134loPI   C2B 2142   9.912   7.638   8.402 -0.0551  0.4680 -0.0453
  134loPI   C3B 2143  10.091   7.468   8.045  0.0804  0.0756 -0.1105
  134loPI   C4B 2144  10.298   7.539   7.655 -0.0856 -0.0880 -0.1799
  135loPI    C1 2145  13.453   0.214   9.740  0.0463  0.0580  0.0788
  135loPI    C2 2146  13.326  -0.121   9.918  0.0043  0.0773  0.0852
  135loPI    C3 2147  13.470   0.181  10.138  0.0601  0.0560  0.0781
  135loPI   PO4 2148  13.316   0.142   9.509  0.0468 -0.1856 -0.1835
  135loPI   GL1 2149  13.302  -0.213   9.131  0.0768 -0.0817  0.0929
  135loPI   GL2 2150  13.001  -0.398   9.136  0.0343  0.0094 -0.0909
  135loPI   C1A 2151  13.230  -0.183   8.748  0.1680  0.0250 -0.2032
  135loPI   C2A 2152  13.522  -0.469   8.386 -0.0152 -0.1950  0.1320
  135loPI   C3A 2153  13.865  -0.594   8.355  0.0856  0.1048  0.0430
  135loPI   C4A 2154  14.176  -0.461   7.996 -0.0402  0.2177  0.0164
  135loPI   C5A 2155  14.337  -0.682   7.585 -0.0337  0.0995  0.1812
  135loPI   C6A 2156  14.165  -0.334   7.343  0.0361  0.2279 -0.0787
  135loPI   C1B 2157  12.826  -0.435   8.734 -0.2272  0.1476 -0.5097
  135loPI   C2B 2158  13.048  -0.584   8.350  0.0893  0.1515 -0.3058
  135loPI   C3B 2159  12.886  -0.573   7.906  0.0879  0.0320 -0.0994
  135loPI   C4B 2160  12.527  -0.302   7.919 -0.2079  0.2708 -0.2424
  136loPI    C1 2161  16.272   5.729  10.017  0.1463  0.1327 -0.0040
  136loPI    C2 2162  16.359   5.701  10.406 -0.0256  0.2868  0.0467
  136loPI    C3 2163  15.980   5.668  10.283  0.0566 -0.0162 -0.1347
  136loPI   PO4 2164  16.424   5.580   9.921 -0.2090  0.1310 -0.0202
  136loPI   GL1 2165  16.709   5.630   9.548  0.0078 -0.0107  0.5839
  136loPI   GL2 2166  16.708   5.229   9.588 -0.4327  0.3755 -0.1171
  136loPI   C1A 2167  17.058   5.673   9.156 -0.3936 -0.3515  0.0517
  136loPI   C2A 2168  17.176   5.639   8.766 -0.3632  0.2274  0.0218
  136loPI   C3A 2169  17.028   5.548   8.294 -0.2783  0.0199 -0.0492
  136loPI   C4A 2170  17.080   5.843   7.927 -0.0292  0.0744  0.4131
  136loPI   C5A 2171  17.177   6.182   7.624  0.3628  0.0692  0.0251
  136loPI   C6A 2172  17.433   6.374   7.487 -0.2534  0.0194  0.1000
  136loPI   C1B 2173  16.583   4.981   9.221  0.1640 -0.4409  0.2206
  136loPI   C2B 2174  16.590   4.859   8.815 -0.1070  0.1929 -0.3422
  136loPI   C3B 2175  16.529   4.773   8.357  0.0287  0.3049 -0.0572
  136loPI   C4B 2176  16.469   4.714   7.890 -0.1276  0.1951 -0.0987
  137loPI    C1 2177   5.444  18.871  10.164 -0.0920 -0.3571  0.0866
  137loPI    C2 2178   5.705  19.140  10.303 -0.3247  0.0121 -0.1730
  137loPI    C3 2179   5.484  18.925  10.558  0.0075 -0.0825  0.0412
  137loPI   PO4 2180   5.623  18.772   9.940  0.1060 -0.1969  0.1482
  137loPI   GL1 2181   5.690  18.616   9.525 -0.2770  0.1910 -0.0817
  137loPI   GL2 2182   5.912  18.877   9.503  0.0146 -0.0509  0.0570
  137loPI   C1A 2183   5.375  18.554   9.235 -0.0744 -0.0592  0.3251
  137loPI   C2A 2184   5.173  18.698   8.819 -0.1293  0.0911  0.1527
  137loPI   C3A 2185   4.782  18.729   8.606 -0.1894  0.0834  0.0768
  137loPI   C4A 2186   4.709  18.818   8.103 -0.1177  0.2852 -0.0742
  137loPI   C5A 2187   4.759  18.957   7.696 -0.2255  0.1434  0.0423
  137loPI   C6A 2188   5.106  19.184   7.498 -0.1043 -0.1745  0.2255
  137loPI   C1B 2189   6.084  18.778   9.056 -0.1563 -0.3652 -0.1172
  137loPI   C2B 2190   6.074  18.593   8.660 -0.1194 -0.2229  0.6574
  137loPI   C3B 2191   5.947  18.458   8.277 -0.1104 -0.0379  0.0067
  137loPI   C4B 2192   5.770  18.630   7.943 -0.1996  0.0748 -0.0240
  138loPI    C1 2193   8.730   3.519   9.976  0.1180  0.0684 -0.0316
  138loPI    C2 2194   8.510   3.264   9.761 -0.0494  0.1055  0.0938
  138loPI    C3 2195   8.909   3.250   9.740 -0.0629  0.0989 -0.2058
  138loPI   PO4 2196   8.532   3.762   9.857  0.1463 -0.1677 -0.1161
  138loPI   GL1 2197   8.465   3.732   9.448 -0.1679  0.1179 -0.2023
  138loPI   GL2 2198   8.613   3.468   9.312  0.2771 -0.0741 -0.2547
  138loPI   C1A 2199   8.128   3.565   9.190  0.3528  0.0112  0.0306
  138loPI   C2A 2200   8.079   3.497   8.844  0.2173 -0.1589  0.3173
  138loPI   C3A 2201   8.242   3.726   8.580  0.1415 -0.1020  0.1496
  138loPI   C4A 2202   8.410   3.743   8.249 -0.0386  0.2192 -0.3433
  138loPI   C5A 2203   8.495   3.532   7.784  0.2537  0.2016  0.0505
  138loPI   C6A 2204   8.599   3.124   7.773 -0.0897 -0.1150 -0.0447
  138loPI   C1B 2205   8.606   3.424   8.911  0.2031 -0.1023  0.1483
  138loPI   C2B 2206   8.506   3.358   8.475  0.3280  0.3237  0.1779
  138loPI   C3B 2207   8.395   3.018   8.246 -0.0599 -0.1867  0.3022
  138loPI   C4B 2208   8.288   2.725   7.849  0.0031  0.1340 -0.0725
  139loPI    C1 2209   5.893  11.838   9.761 -0.0426  0.0011  0.1355
  139loPI    C2 2210   5.562  11.959   9.572  0.0295  0.1095  0.0782
  139loPI    C3 2211   5.564  11.928   9.971 -0.0192  0.2061  0.0864
  139loPI   PO4 2212   5.977  11.605   9.579  0.0799 -0.0819  0.1937
  139loPI   GL1 2213   6.066  11.410   9.139  0.0786 -0.0463 -0.1383
  139loPI   GL2 2214   6.085  10.995   9.153 -0.2146 -0.1512  0.0608
  139loPI   C1A 2215   6.309  11.786   8.979  0.2833  0.1304 -0.4742
  139loPI   C2A 2216   6.291  12.090   8.762  0.0110 -0.4788  0.0087
  139loPI   C3A 2217   6.329  12.112   8.364  0.0489 -0.0882  0.1655
  139loPI   C4A 2218   6.321  11.907   7.986  0.4415  0.0464  0.1516
  139loPI   C5A 2219   6.070  11.691   7.668  0.0984  0.5406 -0.0024
  139loPI   C6A 2220   6.196  11.567   7.203 -0.0835  0.2188 -0.0444
  139loPI   C1B 2221   6.229  11.140   8.709 -0.0176  0.0752  0.0872
  139loPI   C2B 2222   6.121  10.994   8.301 -0.4027 -0.1834 -0.1787
  139loPI   C3B 2223   5.978  10.802   7.891 -0.3266  0.1656  0.3921
  139loPI   C4B 2224   5.707  10.674   7.529 -0.0586 -0.1369 -0.0540
  140loPI    C1 2225  11.692   7.307   9.998  0.0405  0.1694  0.1116
  140loPI    C2 2226  11.371   7.545  10.011 -0.1931 -0.1371  0.0840
  140loPI    C3 2227  11.567   7.455  10.348 -0.2198 -0.0616  0.1200
  140loPI   PO4 2228  11.967   7.564   9.750 -0.0259  0.2936 -0.2255
  140loPI   GL1 2229  12.239   7.643   9.496  0.1632 -0.0951 -0.0256
  140loPI   GL2 2230  12.497   7.870   9.434  0.2431 -0.1351  0.3641
  140loPI   C1A 2231  12.258   7.631   9.072 -0.5514  0.2895  0.2501
  140loPI   C2A 2232  12.446   7.748   8.627  0.1665  0.0993  0.2007
  140loPI   C3A 2233  12.485   7.746   8.307 -0.1895 -0.1956 -0.3760
  140loPI   C4A 2234  12.490   7.567   7.975  0.0774 -0.0198 -0.0460
  140loPI   C5A 2235  12.295   7.788   7.545  0.0939  0.1752 -0.2863
  140loPI   C6A 2236  12.112   7.968   7.151 -0.0318 -0.3600  0.1489
  140loPI   C1B 2237  12.763   8.038   9.011 -0.1068 -0.1622  0.3780
  140loPI   C2B 2238  13.194   8.065   8.693 -0.0200 -0.0153  0.1300
  140loPI   C3B 2239  13.216   8.221   8.302  0.4177 -0.2227  0.0910
  140loPI   C4B 2240  13.308   8.175   7.861 -0.1200  0.1351  0.0285
  141loPI    C1 2241  17.424   4.866  10.369  0.0264  0.2400 -0.2269
  141loPI    C2 2242  17.050   4.995  10.309 -0.0402  0.1491 -0.0183
  141loPI    C3 2243  17.128   4.738  10.605  0.1327 -0.0951 -0.2705
  141loPI   PO4 2244  17.518   4.804  10.047 -0.0371  0.2011  0.1925
  141loPI   GL1 2245  17.678   4.921   9.771 -0.1259  0.0836 -0.0099
  141loPI   GL2 2246  17.880   5.241   9.817  0.2065 -0.1795 -0.0063
  141loPI   C1A 2247  17.425   4.843   9.359  0.1822 -0.0215  0.1080
  141loPI   C2A 2248  17.457   4.791   8.958 -0.1833  0.2313 -0.0446
  141loPI   C3A 2249  17.459   4.674   8.555 -0.0907 -0.0260  0.1630
  141loPI   C4A 2250  17.415   4.580   8.085  0.0394 -0.0519 -0.0188
  141loPI   C5A 2251  17.780   4.515   7.804 -0.3105 -0.1330  0.0651
  141loPI   C6A 2252  18.216   4.495   7.776  0.2206  0.0029  0.4171
  141loPI   C1B 2253  17.925   4.932   9.375  0.1785  0.0201  0.3194
  141loPI   C2B 2254  17.902   4.968   9.002 -0.1567 -0.1594 -0.0778
  141loPI   C3B 2255  17.924   4.981   8.593  0.1958 -0.0316 -0.1072
  141loPI   C4B 2256  17.975   5.317   8.380  0.1647 -0.0594 -0.2436
  142loPI    C1 2257   9.176   9.196   9.723  0.0870 -0.0250  0.2219
  142loPI    C2 2258   8.897   9.474   9.794 -0.0034 -0.0410 -0.0594
  142loPI    C3 2259   8.922   9.152  10.029 -0.1146  0.0412  0.0665
  142loPI   PO4 2260   9.171   9.236   9.450 -0.0849 -0.1361  0.0266
  142loPI   GL1 2261   9.528   9.040   9.209 -0.2655  0.0004  0.4288
  142loPI   GL2 2262   9.723   8.732   9.308  0.2308  0.2550 -0.0354
  142loPI   C1A 2263   9.372   8.867   8.839 -0.1464 -0.2371  0.1643
  142loPI   C2A 2264   9.563   9.037   8.520  0.1158  0.6606 -0.0949
  142loPI   C3A 2265   9.543   9.378   8.203 -0.1497  0.2726  0.1453
  142loPI   C4A 2266   9.531   9.490   7.723 -0.0754  0.1304 -0.0737
  142loPI   C5A 2267   9.615   9.795   7.347 -0.1425 -0.1470  0.0299
  142loPI   C6A 2268   9.853  10.205   7.054 -0.0946 -0.0547  0.0447
  142loPI   C1B 2269   9.773   8.479   8.931  0.0786  0.3121 -0.3731
  142loPI   C2B 2270   9.508   8.573   8.484 -0.1653 -0.1134 -0.0641
  142loPI   C3B 2271   9.491   8.759   8.131  0.0137  0.1783  0.3698
  142loPI   C4B 2272   9.466   9.019   7.791 -0.1258  0.1682 -0.0353
  143loPI    C1 2273   9.629  10.500   9.923  0.1337 -0.0516 -0.0404
  143loPI    C2 2274   9.909  10.237  10.035  0.0056 -0.2114 -0.0903
  143loPI    C3 2275   9.812  10.540  10.277  0.2247 -0.1507 -0.0757
  143loPI   PO4 2276   9.776  10.619   9.627 -0.0348 -0.1710 -0.1563
  143loPI   GL1 2277   9.594  10.403   9.168 -0.1147 -0.1519 -0.2474
  143loPI   GL2 2278   9.372  10.587   9.337  0.2740  0.1928  0.0974
  143loPI   C1A 2279   9.723  10.292   8.808 -0.0209 -0.1339  0.2071
  143loPI   C2A 2280   9.755  10.372   8.405 -0.2655 -0.2569 -0.0461
  143loPI   C3A 2281   9.620  10.708   8.074 -0.2448 -0.2395 -0.1297
  143loPI   C4A 2282   9.754  10.548   7.676 -0.1898 -0.2085  0.0347
  143loPI   C5A 2283   9.619  10.037   7.933  0.1716 -0.3516  0.1926
  143loPI   C6A 2284   9.630   9.901   8.435  0.3219  0.1600 -0.1989
  143loPI   C1B 2285   9.541  10.760   8.909 -0.1730  0.0706  0.0810
  143loPI   C2B 2286   9.588  10.823   8.550  0.0427 -0.3015 -0.4147
  143loPI   C3B 2287   9.671  11.225   8.430  0.3589  0.1748  0.0280
  143loPI   C4B 2288   9.894  11.498   8.483  0.4775  0.0277  0.2717
  144loPI    C1 2289  19.120  18.169   9.628  0.1027 -0.0836  0.0522
  144loPI    C2 2290  19.068  17.832   9.838 -0.0879  0.0352  0.1998
  144loPI    C3 2291  18.772  18.100   9.814  0.0247  0.1440 -0.0059
  144loPI   PO4 2292  19.342  18.039   9.506 -0.0069  0.0508 -0.0476
  144loPI   GL1 2293  19.279  18.090   9.090  0.2637  0.0081 -0.0271
  144loPI   GL2 2294  19.141  18.403   9.204  0.1627  0.1488  0.1477
  144loPI   C1A 2295  19.229  18.005   8.618 -0.2209 -0.2940  0.1262
  144loPI   C2A 2296  19.159  18.194   8.232  0.1110  0.0312  0.1181
  144loPI   C3A 2297  19.053  18.164   7.861  0.2003 -0.6589 -0.0751
  144loPI   C4A 2298  18.983  18.491   7.573  0.1516  0.2525 -0.1003
  144loPI   C5A 2299  18.773  18.601   7.094 -0.1393 -0.1207 -0.2811
  144loPI   C6A 2300  18.583  18.299   6.782 -0.2615 -0.0937  0.0422
  144loPI   C1B 2301  18.964  18.605   8.821  0.0068 -0.0106  0.0072
  144loPI   C2B 2302  18.843  18.823   8.360  0.1876 -0.0535  0.0160
  144loPI   C3B 2303  18.918  18.907   7.879  0.3844  0.4033 -0.1855
  144loPI   C4B 2304  18.803  18.946   7.476  0.0032  0.2414 -0.1515
  145loPI    C1 2305  15.475  11.383   9.729 -0.1078  0.0848  0.2116
  145loPI    C2 2306  15.727  11.303   9.429  0.0120  0.1559  0.2921
  145loPI    C3 2307  15.863  11.473   9.764 -0.1771  0.3765  0.2602
  145loPI   PO4 2308  15.392  11.147   9.734 -0.1150  0.0437 -0.0831
  145loPI   GL1 2309  15.091  11.108   9.374  0.1984  0.1066 -0.0016
  145loPI   GL2 2310  15.343  11.300   9.183 -0.2849  0.1060 -0.0649
  145loPI   C1A 2311  15.005  11.034   8.885  0.2851 -0.1860  0.0351
  145loPI   C2A 2312  15.064  11.136   8.493  0.0843 -0.1519  0.1816
  145loPI   C3A 2313  15.355  11.193   8.125 -0.2068 -0.0212 -0.0430
  145loPI   C4A 2314  15.407  11.178   7.679  0.0817  0.0053  0.3932
  145loPI   C5A 2315  15.627  10.902   7.381  0.0778 -0.1017  0.0871
  145loPI   C6A 2316  15.690  10.459   7.394 -0.0510  0.2420  0.4923
  145loPI   C1B 2317  15.351  11.436   8.802 -0.2695  0.0638 -0.1672
  145loPI   C2B 2318  15.169  11.686   8.516 -0.2687  0.2008  0.4878
  145loPI   C3B 2319  15.057  12.045   8.267 -0.0066  0.2489 -0.1418
  145loPI   C4B 2320  14.835  12.192   7.887 -0.1591  0.2619  0.3815
  146loPI    C1 2321  18.365   8.867  10.027 -0.2013 -0.0262  0.2712
  146loPI    C2 2322  18.339   9.082  10.363  0.0661  0.3380  0.0660
  146loPI    C3 2323  18.670   9.099  10.139  0.0786 -0.2644  0.0212
  146loPI   PO4 2324  18.218   8.936   9.793  0.2562  0.1667 -0.1313
  146loPI   GL1 2325  18.154   8.678   9.338 -0.2015  0.1109 -0.1133
  146loPI   GL2 2326  18.483   8.857   9.367 -0.3378 -0.1314  0.1153
  146loPI   C1A 2327  18.005   8.604   9.001  0.2283  0.1251  0.2375
  146loPI   C2A 2328  17.768   8.805   8.596 -0.0607  0.0346  0.0735
  146loPI   C3A 2329  17.691   8.996   8.255 -0.3750  0.1749  0.4546
  146loPI   C4A 2330  17.791   9.140   7.936 -0.3163 -0.0686 -0.2735
  146loPI   C5A 2331  17.776   9.252   7.635  0.3277  0.2451 -0.1080
  146loPI   C6A 2332  17.541   9.152   7.336  0.3186  0.2126  0.0796
  146loPI   C1B 2333  18.487   8.774   8.949  0.0064 -0.2242  0.1437
  146loPI   C2B 2334  18.580   8.775   8.414  0.0260 -0.2470 -0.2061
  146loPI   C3B 2335  18.494   8.732   7.929 -0.2725  0.0572 -0.1050
  146loPI   C4B 2336  18.157   8.940   7.679 -0.4020  0.1221 -0.1935
  147loPI    C1 2337   5.175   5.613  10.513 -0.0249  0.0855  0.3960
  147loPI    C2 2338   5.240   6.008  10.525  0.1980  0.0594  0.1388
  147loPI    C3 2339   5.549   5.754  10.535  0.0801 -0.0967 -0.0893
  147loPI   PO4 2340   4.990   5.603  10.337  0.1408  0.1966 -0.0309
  147loPI   GL1 2341   4.918   5.545   9.957 -0.1096 -0.0413 -0.1045
  147loPI   GL2 2342   4.677   5.469   9.911  0.0639  0.0041  0.0442
  147loPI   C1A 2343   4.866   5.732   9.528 -0.0772 -0.0218  0.0860
  147loPI   C2A 2344   4.948   5.969   9.166 -0.0488 -0.0236 -0.1278
  147loPI   C3A 2345   4.981   5.991   8.682  0.2614  0.1393 -0.1965
  147loPI   C4A 2346   4.821   5.901   8.257 -0.1135  0.2880 -0.0140
  147loPI   C5A 2347   4.911   5.765   7.814  0.0821 -0.2575 -0.4690
  147loPI   C6A 2348   5.105   5.366   7.741 -0.0307 -0.0580  0.2484
  147loPI   C1B 2349   4.432   5.569   9.426 -0.2026  0.1691 -0.0225
  147loPI   C2B 2350   4.382   5.647   8.981  0.2147 -0.0782  0.0686
  147loPI   C3B 2351   4.424   5.517   8.552 -0.1447  0.0142 -0.3610
  147loPI   C4B 2352   4.413   5.568   8.154  0.3035 -0.0495  0.0037
  148loPI    C1 2353   6.759  12.119   9.520  0.2454  0.0358 -0.1587
  148loPI    C2 2354   6.685  12.349   9.840 -0.1137  0.0915 -0.2769
  148loPI    C3 2355   6.743  11.955   9.885  0.1516  0.1466 -0.1123
  148loPI   PO4 2356   6.651  12.289   9.331 -0.0173  0.1615 -0.3082
  148loPI   GL1 2357   6.708  12.553   8.955  0.0152  0.2139 -0.2926
  148loPI   GL2 2358   6.960  12.338   8.868  0.0761  0.2895 -0.0374
  148loPI   C1A 2359   6.342  12.585   8.645 -0.5242  0.1147  0.1427
  148loPI   C2A 2360   6.273  12.642   8.210 -0.0861  0.2642 -0.2005
  148loPI   C3A 2361   6.147  12.990   7.842  0.0314  0.3517  0.1273
  148loPI   C4A 2362   6.395  12.980   7.436 -0.3453  0.0983  0.1416
  148loPI   C5A 2363   6.467  12.777   7.105 -0.1752 -0.2410 -0.0440
  148loPI   C6A 2364   6.506  12.934   6.633 -0.3743 -0.1458  0.1075
  148loPI   C1B 2365   6.832  12.294   8.498  0.0866 -0.0445 -0.1144
  148loPI   C2B 2366   6.636  12.299   8.045  0.0792  0.1660  0.0263
  148loPI   C3B 2367   6.385  12.345   7.746 -0.3245  0.0231  0.3764
  148loPI   C4B 2368   6.196  12.566   7.617 -0.1459  0.1609 -0.1676
  149loPI    C1 2369   7.087   3.370  10.587 -0.1172 -0.0057  0.0533
  149loPI    C2 2370   6.800   3.643  10.644  0.1055  0.2675 -0.1045
  149loPI    C3 2371   7.100   3.610  10.907  0.0505  0.1357 -0.0573
  149loPI   PO4 2372   7.202   3.372  10.323 -0.1661  0.0046  0.0476
  149loPI   GL1 2373   7.222   3.286   9.773 -0.3664 -0.2332 -0.1017
  149loPI   GL2 2374   7.191   3.538   9.779  0.2055 -0.3014 -0.1212
  149loPI   C1A 2375   7.236   3.133   9.374  0.1330  0.1620 -0.2948
  149loPI   C2A 2376   7.119   3.034   8.977 -0.5942 -0.3413 -0.1617
  149loPI   C3A 2377   7.208   2.953   8.556  0.1247  0.0271  0.3524
  149loPI   C4A 2378   6.989   3.016   8.272 -0.0153  0.0694 -0.1361
  149loPI   C5A 2379   7.004   3.289   7.845 -0.1543  0.1670 -0.1416
  149loPI   C6A 2380   7.115   3.349   7.440 -0.1955 -0.2142  0.0569
  149loPI   C1B 2381   7.239   3.602   9.370 -0.1303  0.0053  0.2360
  149loPI   C2B 2382   7.294   3.622   8.958 -0.0231  0.3171  0.0229
  149loPI   C3B 2383   7.137   3.467   8.631  0.0133  0.0508 -0.3938
  149loPI   C4B 2384   7.171   3.551   8.322  0.0683 -0.1098 -0.0643
  150loPI    C1 2385   9.689   2.269  10.119 -0.1392  0.0333  0.1786
  150loPI    C2 2386   9.680   2.627  10.297 -0.0039  0.1899 -0.1214
  150loPI    C3 2387   9.984   2.377  10.367  0.0192  0.2273 -0.0880
  150loPI   PO4 2388   9.600   2.341   9.853 -0.5425 -0.3340  0.0731
  150loPI   GL1 2389   9.908   2.292   9.506  0.4246  0.1497  0.4536
  150loPI   GL2 2390  10.002   2.588   9.387 -0.1589 -0.1411 -0.1630
  150loPI   C1A 2391   9.473   2.112   9.294  0.0928  0.2125  0.2482
  150loPI   C2A 2392   9.292   2.180   8.885 -0.0459  0.1401  0.0725
  150loPI   C3A 2393   9.274   2.085   8.483 -0.1262 -0.0786  0.0634
  150loPI   C4A 2394   9.235   2.190   8.028  0.0171  0.1636  0.0491
  150loPI   C5A 2395   9.113   1.991   7.533  0.0186 -0.1581  0.0438
  150loPI   C6A 2396   8.983   2.079   7.033 -0.0611 -0.0031  0.0022
  150loPI   C1B 2397   9.811   2.386   9.009  0.1113  0.1690 -0.1140
  150loPI   C2B 2398   9.779   2.448   8.588  0.0213 -0.4427 -0.0572
  150loPI   C3B 2399   9.779   2.465   8.163 -0.0830  0.3404 -0.2885
  150loPI   C4B 2400   9.776   2.548   7.709  0.3725  0.2541  0.2032
  151loPI    C1 2401   0.030   7.049  10.304  0.1539  0.0417 -0.0613
  151loPI    C2 2402  -0.293   7.176  10.503  0.0956 -0.1930 -0.0031
  151loPI    C3 2403   0.045   7.388  10.515  0.0162 -0.0727  0.1368
  151loPI   PO4 2404  -0.062   6.958  10.093  0.0092  0.0441  0.0513
  151loPI   GL1 2405   0.052   7.088   9.665 -0.0424  0.2716 -0.3037
  151loPI   GL2 2406  -0.304   7.054   9.650  0.3632  0.1290  0.2683
  151loPI   C1A 2407   0.155   6.830   9.330  0.1617  0.1143  0.0059
  151loPI   C2A 2408   0.242   6.805   8.886 -0.1310  0.0811 -0.2624
  151loPI   C3A 2409   0.246   6.889   8.413 -0.0070  0.0199 -0.2795
  151loPI   C4A 2410   0.467   6.909   8.048 -0.2225  0.0054  0.0286
  151loPI   C5A 2411   0.457   6.549   7.768  0.0291 -0.2669 -0.0996
  151loPI   C6A 2412   0.237   6.538   7.456  0.2758  0.0760  0.2686
  151loPI   C1B 2413  -0.266   7.166   9.238 -0.0856 -0.3198  0.3834
  151loPI   C2B 2414  -0.382   7.402   8.806 -0.1283 -0.0418  0.2281
  151loPI   C3B 2415  -0.645   7.452   8.394  0.0985 -0.1499 -0.2317
  151loPI   C4B 2416  -0.753   7.429   8.024  0.1254  0.1259 -0.0198
  152loPI    C1 2417  12.418   1.404   9.806  0.2182  0.0086 -0.2001
  152loPI    C2 2418  12.723   1.206   9.972  0.0876  0.0288  0.0702
  152loPI    C3 2419  12.351   1.154  10.110 -0.0162  0.0965 -0.1768
  152loPI   PO4 2420  12.369   1.293   9.537 -0.0636  0.3241  0.2066
  152loPI   GL1 2421  12.459   1.447   9.107 -0.4101 -0.4191  0.3099
  152loPI   GL2 2422  12.714   1.341   8.999 -0.1931  0.0834 -0.2990
  152loPI   C1A 2423  12.067   1.366   8.914 -0.0024 -0.1179  0.1066
  152loPI   C2A 2424  11.909   1.491   8.498 -0.0105  0.1845 -0.1356
  152loPI   C3A 2425  11.779   1.718   8.117 -0.0021 -0.2157  0.0068
  152loPI   C4A 2426  11.825   1.665   7.635  0.1207  0.0408  0.1288
  152loPI   C5A 2427  11.914   1.575   7.239  0.1096 -0.1542 -0.0018
  152loPI   C6A 2428  11.905   1.500   6.826 -0.1268  0.0043 -0.1572
  152loPI   C1B 2429  12.838   1.180   8.619  0.0323 -0.2758 -0.3189
  152loPI   C2B 2430  12.691   1.240   8.134 -0.3967 -0.0771 -0.0814
  152loPI   C3B 2431  12.647   0.956   7.732 -0.1190 -0.0445  0.2895
  152loPI   C4B 2432  12.624   0.922   7.268  0.3078 -0.0305  0.3657
  153loPI    C1 2433  18.080   2.998  10.415  0.2179  0.4164  0.0445
  153loPI    C2 2434  18.466   2.984  10.312  0.1940 -0.5445  0.0004
  153loPI    C3 2435  18.340   2.794  10.641 -0.2083 -0.0055  0.1708
  153loPI   PO4 2436  17.983   3.150  10.193  0.1325 -0.2315  0.0513
  153loPI   GL1 2437  17.947   3.158   9.793  0.0659 -0.2232 -0.3942
  153loPI   GL2 2438  17.553   3.261   9.710  0.0407 -0.0913 -0.3673
  153loPI   C1A 2439  18.046   2.997   9.343 -0.1011 -0.3287  0.2799
  153loPI   C2A 2440  17.867   3.033   8.947 -0.0877  0.5225 -0.0372
  153loPI   C3A 2441  17.855   2.834   8.610 -0.0702  0.1923 -0.1721
  153loPI   C4A 2442  18.089   2.736   8.267 -0.1007 -0.0814  0.2241
  153loPI   C5A 2443  18.487   2.796   8.022 -0.1420  0.4624  0.2279
  153loPI   C6A 2444  18.498   3.168   7.859  0.0334  0.0773  0.3659
  153loPI   C1B 2445  17.814   3.451   9.372  0.3182  0.5320  0.0481
  153loPI   C2B 2446  18.129   3.590   9.001  0.1274 -0.0331 -0.0803
  153loPI   C3B 2447  18.271   4.022   8.863  0.1689  0.2215 -0.0557
  153loPI   C4B 2448  18.480   4.425   8.986  0.0765  0.1562  0.1712
  154loPI    C1 2449  16.408  13.831   9.496  0.1597  0.0455  0.1325
  154loPI    C2 2450  16.689  13.682   9.740  0.2357  0.1291  0.0966
  154loPI    C3 2451  16.369  13.867   9.892  0.1506 -0.0520  0.1407
  154loPI   PO4 2452  16.569  13.948   9.336  0.0423 -0.0867 -0.0649
  154loPI   GL1 2453  16.511  14.133   8.989  0.1209 -0.0278 -0.1424
  154loPI   GL2 2454  16.353  13.723   8.935  0.0890 -0.2382  0.0705
  154loPI   C1A 2455  16.712  14.351   8.638 -0.0193 -0.0046 -0.5157
  154loPI   C2A 2456  16.837  14.510   8.283 -0.1176  0.1971 -0.0355
  154loPI   C3A 2457  17.123  14.759   8.142 -0.0363  0.0613 -0.0208
  154loPI   C4A 2458  17.275  14.804   7.762  0.1285 -0.1316 -0.1086
  154loPI   C5A 2459  17.559  14.784   7.449  0.1555 -0.3647 -0.0156
  154loPI   C6A 2460  17.874  14.766   6.998 -0.0578 -0.0765  0.3509
  154loPI   C1B 2461  16.382  13.822   8.559 -0.1708 -0.0634 -0.3986
  154loPI   C2B 2462  16.581  14.078   8.251  0.4101  0.2409 -0.3048
  154loPI   C3B 2463  16.705  14.146   7.959  0.0251  0.2659 -0.2280
  154loPI   C4B 2464  17.021  14.371   7.765  0.0172 -0.1978  0.4455
  155loPI    C1 2465  10.087  13.329   9.516 -0.2616  0.0470  0.0419
  155loPI    C2 2466  10.158  13.449   9.891 -0.4532  0.0445  0.0805
  155loPI    C3 2467  10.211  13.066   9.791  0.0099  0.1246 -0.0042
  155loPI   PO4 2468  10.303  13.513   9.323 -0.1149  0.1000  0.2535
  155loPI   GL1 2469  10.444  13.877   9.034 -0.0486 -0.2392  0.0165
  155loPI   GL2 2470  10.326  14.201   9.020  0.3563  0.2453  0.1838
  155loPI   C1A 2471  10.482  13.816   8.576 -0.0160 -0.0759  0.0160
  155loPI   C2A 2472  10.540  13.829   8.072  0.5367 -0.2797  0.0337
  155loPI   C3A 2473  10.460  14.029   7.670 -0.0895 -0.1563  0.1156
  155loPI   C4A 2474  10.339  14.081   7.235 -0.0233 -0.0075 -0.3730
  155loPI   C5A 2475  10.057  13.997   6.910  0.1082 -0.2028 -0.0896
  155loPI   C6A 2476  10.090  14.058   6.520  0.2976  0.0172  0.0526
  155loPI   C1B 2477  10.165  14.188   8.627  0.0675 -0.0004 -0.2089
  155loPI   C2B 2478  10.185  14.133   8.154  0.0283 -0.1397 -0.1769
  155loPI   C3B 2479   9.997  14.200   7.766 -0.1316  0.0221  0.0583
  155loPI   C4B 2480   9.813  14.176   7.377 -0.1351 -0.1356  0.1185
  156loPI    C1 2481   1.820  18.476  10.250  0.0461  0.0059  0.3125
  156loPI    C2 2482   1.488  18.515  10.470 -0.0401  0.0571  0.1742
  156loPI    C3 2483   1.615  18.151  10.363 -0.2118  0.0500 -0.0126
  156loPI   PO4 2484   1.910  18.719  10.202 -0.0234 -0.1278 -0.2893
  156loPI   GL1 2485   1.931  18.991   9.767 -0.0983 -0.0641 -0.1233
  156loPI   GL2 2486   1.919  18.617   9.659 -0.0002 -0.2305  0.2065
  156loPI   C1A 2487   2.177  19.033   9.306 -0.0393  0.0708  0.1109
  156loPI   C2A 2488   2.273  19.064   8.803 -0.0334  0.1345  0.0993
  156loPI   C3A 2489   2.549  19.131   8.501 -0.2663  0.2272  0.0123
  156loPI   C4A 2490   2.563  19.223   7.990  0.2039  0.2123  0.2101
  156loPI   C5A 2491   2.857  19.403   7.610 -0.1066  0.1338 -0.2896
  156loPI   C6A 2492   3.044  19.568   7.270 -0.2425 -0.2087  0.0499
  156loPI   C1B 2493   1.904  18.609   9.200 -0.3674 -0.1696 -0.1364
  156loPI   C2B 2494   1.847  18.673   8.777 -0.1779  0.2388  0.0344
  156loPI   C3B 2495   2.052  18.898   8.368  0.0370  0.0498  0.0712
  156loPI   C4B 2496   2.246  18.849   7.950  0.1144 -0.1136 -0.2498
  157loPI    C1 2497  16.754  18.613   9.603 -0.0347 -0.1271  0.1896
  157loPI    C2 2498  16.471  18.512   9.340  0.0191  0.2524 -0.0209
  157loPI    C3 2499  16.823  18.322   9.338 -0.1543 -0.0786  0.1045
  157loPI   PO4 2500  16.704  18.884   9.648  0.1422  0.0567  0.0256
  157loPI   GL1 2501  16.485  19.054   9.171  0.2091 -0.1559 -0.0988
  157loPI   GL2 2502  16.802  18.887   9.173  0.0465 -0.0182 -0.1697
  157loPI   C1A 2503  16.330  19.226   8.795  0.2210 -0.3072  0.1205
  157loPI   C2A 2504  16.357  19.243   8.327 -0.2487 -0.4215  0.1781
  157loPI   C3A 2505  16.314  19.329   7.899 -0.1958 -0.1157 -0.1497
  157loPI   C4A 2506  16.257  19.431   7.448  0.2998 -0.0141  0.2034
  157loPI   C5A 2507  16.357  19.753   7.108 -0.0827 -0.5283 -0.0675
  157loPI   C6A 2508  16.088  20.071   6.893 -0.3400  0.2762  0.0202
  157loPI   C1B 2509  16.973  18.815   8.779  0.1786  0.0582 -0.0716
  157loPI   C2B 2510  17.081  18.966   8.464 -0.0355  0.0652 -0.0836
  157loPI   C3B 2511  17.089  18.947   8.061  0.0427  0.1267  0.2381
  157loPI   C4B 2512  16.963  18.978   7.672  0.2673 -0.2982  0.0373
  158loPI    C1 2513   0.101   7.882  10.192 -0.0725 -0.0969 -0.2821
  158loPI    C2 2514  -0.017   8.253  10.285 -0.1613 -0.1838 -0.0417
  158loPI    C3 2515  -0.051   7.958  10.554  0.2860 -0.2837 -0.0869
  158loPI   PO4 2516   0.250   7.958   9.948 -0.0222  0.3886  0.1148
  158loPI   GL1 2517   0.417   7.620   9.615 -0.1432 -0.0030 -0.2985
  158loPI   GL2 2518   0.665   7.906   9.495  0.2495 -0.1677  0.3012
  158loPI   C1A 2519   0.215   7.364   9.275  0.2618  0.3180  0.0495
  158loPI   C2A 2520   0.112   7.257   8.803 -0.2825 -0.2093 -0.0088
  158loPI   C3A 2521  -0.087   7.248   8.395  0.0634  0.1935 -0.2077
  158loPI   C4A 2522  -0.314   7.222   8.096  0.3550  0.0110  0.0346
  158loPI   C5A 2523  -0.202   6.826   7.968  0.1304 -0.2491 -0.0259
  158loPI   C6A 2524  -0.022   6.574   8.020 -0.3095 -0.0042  0.0934
  158loPI   C1B 2525   0.246   7.942   9.275 -0.0050 -0.0369 -0.1869
  158loPI   C2B 2526   0.098   7.840   8.873  0.0623  0.1320 -0.1675
  158loPI   C3B 2527  -0.193   7.758   8.477 -0.3141 -0.2002  0.1734
  158loPI   C4B 2528  -0.407   7.756   8.080  0.2080 -0.0298  0.1748
  159loPI    C1 2529  17.760  11.544   9.664 -0.1003 -0.1083 -0.0784
  159loPI    C2 2530  17.461  11.574   9.928  0.0789  0.1138  0.1044
  159loPI    C3 2531  17.756  11.311   9.989  0.0362  0.0504  0.0391
  159loPI   PO4 2532  17.600  11.715   9.407 -0.0079  0.1786  0.1695
  159loPI   GL1 2533  17.701  11.723   9.067  0.0202 -0.3480  0.0247
  159loPI   GL2 2534  18.101  11.779   9.104  0.0975  0.0652  0.1000
  159loPI   C1A 2535  17.643  12.017   8.730  0.0145 -0.0501  0.1217
  159loPI   C2A 2536  17.561  11.921   8.338  0.1200 -0.2913  0.5051
  159loPI   C3A 2537  17.466  11.940   7.861  0.0474  0.1121  0.2087
  159loPI   C4A 2538  17.321  12.155   7.533  0.2178  0.2861  0.0335
  159loPI   C5A 2539  17.176  12.120   7.213  0.0667  0.1575  0.0998
  159loPI   C6A 2540  17.322  12.439   6.826  0.3590  0.2847  0.1529
  159loPI   C1B 2541  18.361  11.529   8.775  0.1135 -0.2021 -0.0726
  159loPI   C2B 2542  18.545  11.400   8.347  0.0121  0.0565  0.1997
  159loPI   C3B 2543  18.538  11.117   7.987  0.1294 -0.1843 -0.1636
  159loPI   C4B 2544  18.577  11.153   7.572 -0.1097 -0.2933 -0.0113
  160loPI    C1 2545  10.790  13.574   9.513 -0.1942 -0.2141 -0.0237
  160loPI    C2 2546  10.885  13.723   9.872 -0.0434  0.1765 -0.2207
  160loPI    C3 2547  11.067  13.393   9.738 -0.1071  0.0235  0.0629
  160loPI   PO4 2548  10.783  13.672   9.300  0.0933 -0.1324  0.0836
  160loPI   GL1 2549  10.937  13.722   8.902  0.1652 -0.2206  0.2056
  160loPI   GL2 2550  10.962  13.917   8.660 -0.0453  0.0482 -0.1140
  160loPI   C1A 2551  11.080  13.382   8.567  0.0710  0.0822  0.2946
  160loPI   C2A 2552  11.203  13.378   8.100  0.3785  0.1448  0.0302
  160loPI   C3A 2553  11.125  13.353   7.658  0.1558 -0.2419 -0.1646
  160loPI   C4A 2554  10.870  13.505   7.270  0.1597  0.0075 -0.2680
  160loPI   C5A 2555  10.536  13.651   7.105  0.2548  0.0312  0.1258
  160loPI   C6A 2556  10.540  13.881   6.705  0.0269 -0.1102  0.2032
  160loPI   C1B 2557  10.989  13.782   8.236 -0.1907 -0.3030  0.1713
  160loPI   C2B 2558  10.924  13.793   7.768 -0.0330  0.0512  0.2902
  160loPI   C3B 2559  10.860  14.006   7.329  0.0825  0.0729  0.0683
  160loPI   C4B 2560  10.901  14.263   7.249 -0.0500 -0.2306  0.2921
  161loPI    C1 2561   3.893   9.985  10.210 -0.1074 -0.0658 -0.0216
  161loPI    C2 2562   4.147   9.838  10.482 -0.0925 -0.0230 -0.0122
  161loPI    C3 2563   4.109  10.234  10.437 -0.0133 -0.0302 -0.1485
  161loPI   PO4 2564   4.002   9.795   9.995  0.0559 -0.0707  0.1558
  161loPI   GL1 2565   4.065   9.712   9.616 -0.1172 -0.3665 -0.3267
  161loPI   GL2 2566   4.111  10.012   9.468  0.1873  0.2696  0.0471
  161loPI   C1A 2567   4.282   9.562   9.243 -0.0022 -0.1464  0.0735
  161loPI   C2A 2568   4.424   9.325   8.927  0.0687 -0.1861 -0.2128
  161loPI   C3A 2569   4.283   9.191   8.574  0.3129 -0.1322 -0.1963
  161loPI   C4A 2570   4.034   9.272   8.210 -0.1968 -0.1465 -0.0731
  161loPI   C5A 2571   4.040   9.221   7.777 -0.0556 -0.2126  0.1196
  161loPI   C6A 2572   3.906   8.799   7.600  0.1807 -0.2768  0.0673
  161loPI   C1B 2573   4.159   9.947   9.007  0.0142 -0.0367  0.2234
  161loPI   C2B 2574   4.093   9.660   8.776  0.3070  0.0677  0.0368
  161loPI   C3B 2575   4.217   9.731   8.370  0.0335 -0.0294  0.2159
  161loPI   C4B 2576   4.350   9.855   7.956  0.0707  0.0639  0.0194
  162loPI    C1 2577  14.827  10.234   9.932 -0.0378  0.1285  0.1960
  162loPI    C2 2578  14.701  10.606  10.003  0.1881  0.2071  0.1927
  162loPI    C3 2579  14.999  10.451  10.220  0.0671  0.0124  0.2219
  162loPI   PO4 2580  14.779  10.252   9.574  0.0524 -0.0960  0.2694
  162loPI   GL1 2581  14.813  10.054   9.240  0.0852  0.0060 -0.2965
  162loPI   GL2 2582  15.133   9.854   9.327  0.3720  0.0595  0.0467
  162loPI   C1A 2583  14.966  10.085   8.783  0.2214 -0.2289  0.0537
  162loPI   C2A 2584  14.879  10.253   8.285  0.3505  0.1399 -0.1329
  162loPI   C3A 2585  14.602  10.132   7.949 -0.0062  0.2321  0.1635
  162loPI   C4A 2586  14.513  10.496   7.735  0.3375  0.0096 -0.1571
  162loPI   C5A 2587  14.618  10.888   7.914 -0.0981  0.3042  0.2267
  162loPI   C6A 2588  14.873  11.270   7.964  0.0314  0.0419  0.1982
  162loPI   C1B 2589  15.400   9.912   9.016  0.3716 -0.1478  0.0604
  162loPI   C2B 2590  15.655   9.923   8.660 -0.1173  0.4372  0.0120
  162loPI   C3B 2591  15.715   9.904   8.234  0.2591 -0.1283 -0.0923
  162loPI   C4B 2592  15.497  10.101   7.978 -0.0110  0.2714  0.1049
  163loPI    C1 2593   3.769  16.209   9.671 -0.0612 -0.1661  0.2388
  163loPI    C2 2594   4.044  15.953   9.534  0.0782 -0.0063  0.2175
  163loPI    C3 2595   3.953  15.958   9.923  0.1406 -0.0269  0.2326
  163loPI   PO4 2596   3.470  16.144   9.495 -0.1021  0.2846  0.2596
  163loPI   GL1 2597   3.375  16.212   9.070 -0.1112  0.1563  0.0624
  163loPI   GL2 2598   3.348  16.524   8.860  0.1230  0.3058  0.0518
  163loPI   C1A 2599   2.968  16.047   8.912  0.1153 -0.0282 -0.1968
  163loPI   C2A 2600   2.972  15.844   8.570  0.0561 -0.2520 -0.2719
  163loPI   C3A 2601   3.158  15.473   8.344 -0.0691 -0.1113 -0.1009
  163loPI   C4A 2602   3.216  15.184   8.086 -0.4030  0.0524 -0.1316
  163loPI   C5A 2603   3.465  15.258   7.818  0.2284 -0.4219 -0.1680
  163loPI   C6A 2604   3.576  15.614   7.575  0.0495 -0.0013  0.1804
  163loPI   C1B 2605   3.213  16.305   8.573 -0.0087  0.1708 -0.2328
  163loPI   C2B 2606   3.132  16.268   8.150 -0.1267 -0.1928 -0.0908
  163loPI   C3B 2607   3.085  16.498   7.751  0.2405  0.1404 -0.0150
  163loPI   C4B 2608   3.189  16.861   7.422 -0.0022 -0.2303  0.0181
  164loPI    C1 2609   8.394   8.281   9.664  0.1524 -0.0750 -0.1415
  164loPI    C2 2610   8.378   8.467   9.311 -0.1000  0.0072 -0.0886
  164loPI    C3 2611   8.722   8.453   9.514 -0.0249  0.2200 -0.1985
  164loPI   PO4 2612   8.166   8.323   9.797 -0.1779  0.0462  0.1775
  164loPI   GL1 2613   7.780   8.343   9.563  0.0075 -0.0015 -0.3019
  164loPI   GL2 2614   7.688   8.006   9.427  0.1728  0.1207  0.2117
  164loPI   C1A 2615   7.873   8.440   9.130 -0.2503  0.0537 -0.0451
  164loPI   C2A 2616   7.628   8.280   8.771  0.1393  0.1039  0.1008
  164loPI   C3A 2617   7.762   8.331   8.461 -0.1339 -0.0001  0.1029
  164loPI   C4A 2618   7.759   8.480   8.083 -0.0671 -0.1205 -0.2162
  164loPI   C5A 2619   7.663   8.336   7.697  0.0366  0.1976 -0.1218
  164loPI   C6A 2620   7.641   8.505   7.333 -0.0983 -0.2082  0.1237
  164loPI   C1B 2621   7.379   8.047   9.102  0.1331 -0.2375  0.1248
  164loPI   C2B 2622   7.133   7.944   8.789 -0.1252 -0.1849  0.0361
  164loPI   C3B 2623   7.023   8.070   8.448  0.2328  0.0001 -0.2387
  164loPI   C4B 2624   6.923   8.069   7.946  0.1681  0.1746 -0.1278
  165loPI    C1 2625  19.127  13.001   9.387  0.1524  0.2183  0.1882
  165loPI    C2 2626  18.823  13.241   9.486  0.0282  0.0795  0.1465
  165loPI    C3 2627  19.046  13.072   9.772  0.1752  0.3175  0.1748
  165loPI   PO4 2628  19.265  13.142   9.207 -0.1331  0.3689  0.0428
  165loPI   GL1 2629  19.373  13.139   8.959  0.4093 -0.1299  0.1545
  165loPI   GL2 2630  19.681  13.039   8.817  0.1030  0.1276 -0.1471
  165loPI   C1A 2631  19.244  13.180   8.593  0.0970  0.2377 -0.0283
  165loPI   C2A 2632  19.158  13.082   8.147 -0.1683 -0.0408  0.2339
  165loPI   C3A 2633  19.249  13.185   7.740  0.1097 -0.0146 -0.0741
  165loPI   C4A 2634  18.975  13.036   7.494 -0.0208  0.0231  0.0682
  165loPI   C5A 2635  18.701  13.062   7.128  0.1639 -0.1298 -0.3341
  165loPI   C6A 2636  18.389  12.893   6.845 -0.1215 -0.2950 -0.0085
  165loPI   C1B 2637  19.696  12.861   8.367  0.5315  0.1078 -0.1523
  165loPI   C2B 2638  19.817  12.874   7.929 -0.0711  0.1032  0.3339
  165loPI   C3B 2639  20.206  12.796   7.891 -0.2179  0.0578 -0.2212
  165loPI   C4B 2640  20.538  13.069   7.892 -0.3321 -0.1338 -0.2507
  166loPI    C1 2641  10.851  10.248   9.913 -0.0421  0.1437  0.2706
  166loPI    C2 2642  10.636  10.522  10.110 -0.0357  0.0969  0.3427
  166loPI    C3 2643  10.511  10.142  10.095  0.0562  0.0636  0.4096
  166loPI   PO4 2644  10.831  10.280   9.592 -0.1219  0.0461  0.2096
  166loPI   GL1 2645  10.520  10.274   9.299 -0.1093  0.1606  0.1287
  166loPI   GL2 2646  10.210  10.169   9.436  0.1242 -0.0055  0.0012
  166loPI   C1A 2647  10.708  10.416   8.951  0.4835 -0.1160  0.3695
  166loPI   C2A 2648  10.841  10.330   8.542  0.0490 -0.2965 -0.0608
  166loPI   C3A 2649  10.668  10.338   8.083 -0.3299 -0.2965 -0.0065
  166loPI   C4A 2650  10.466  10.279   7.711 -0.0838 -0.1844 -0.0976
  166loPI   C5A 2651  10.213  10.431   7.411  0.1496 -0.0010  0.0960
  166loPI   C6A 2652   9.971  10.156   7.530  0.1539  0.2350 -0.0736
  166loPI   C1B 2653  10.123  10.154   9.070  0.0012  0.0180  0.0053
  166loPI   C2B 2654  10.247  10.351   8.683 -0.2707 -0.0523 -0.1562
  166loPI   C3B 2655  10.269  10.360   8.390 -0.2187 -0.1874 -0.0085
  166loPI   C4B 2656  10.072  10.185   8.054  0.3140  0.0673 -0.0110
  167loPI    C1 2657   7.888   2.507   9.982 -0.1433 -0.0389  0.0112
  167loPI    C2 2658   7.867   2.325  10.337 -0.3331  0.0650  0.0548
  167loPI    C3 2659   7.944   2.717  10.318 -0.0030 -0.0005 -0.0352
  167loPI   PO4 2660   7.721   2.359   9.823 -0.0632 -0.0848 -0.2944
  167loPI   GL1 2661   7.794   2.170   9.401  0.2513 -0.0551 -0.1111
  167loPI   GL2 2662   7.951   1.976   9.396 -0.0554  0.1819  0.0354
  167loPI   C1A 2663   7.737   2.137   8.991  0.0530  0.3037  0.0057
  167loPI   C2A 2664   7.775   2.104   8.575  0.2742  0.1166  0.1882
  167loPI   C3A 2665   7.733   1.787   8.289 -0.3969 -0.0411  0.2075
  167loPI   C4A 2666   7.631   1.646   7.965  0.0214 -0.2206  0.1775
  167loPI   C5A 2667   7.245   1.833   7.753 -0.2739  0.0999 -0.0563
  167loPI   C6A 2668   6.968   2.280   7.620  0.1227  0.0247  0.3082
  167loPI   C1B 2669   8.017   1.661   9.171  0.3357  0.3947  0.1502
  167loPI   C2B 2670   8.095   1.552   8.749  0.0909  0.1633  0.0016
  167loPI   C3B 2671   8.037   1.438   8.348  0.1019  0.0235 -0.0577
  167loPI   C4B 2672   8.049   1.378   7.886 -0.0380 -0.2269  0.2343
  168loPI    C1 2673  18.946   7.502  10.121  0.2475 -0.1240 -0.2379
  168loPI    C2 2674  18.803   7.876  10.121  0.1769 -0.1499 -0.0335
  168loPI    C3 2675  18.780   7.652  10.452  0.0831 -0.3878 -0.1981
  168loPI   PO4 2676  18.947   7.425   9.948  0.2902  0.0377 -0.0296
  168loPI   GL1 2677  18.690   7.542   9.663  0.3402 -0.1598 -0.0476
  168loPI   GL2 2678  18.616   7.795   9.667 -0.0063 -0.1765 -0.1302
  168loPI   C1A 2679  18.522   7.298   9.334  0.0997 -0.0416 -0.2548
  168loPI   C2A 2680  18.511   6.950   8.971  0.0261 -0.0371  0.2891
  168loPI   C3A 2681  18.415   6.556   8.715  0.1241  0.1250  0.1685
  168loPI   C4A 2682  18.306   6.330   8.370 -0.0577 -0.1096  0.1572
  168loPI   C5A 2683  18.108   6.192   8.057  0.3610 -0.0458  0.0209
  168loPI   C6A 2684  18.161   5.903   7.730  0.3541 -0.3229  0.0095
  168loPI   C1B 2685  18.857   7.841   9.284  0.1080  0.0945  0.1477
  168loPI   C2B 2686  18.786   7.929   8.911  0.1389 -0.0252 -0.0657
  168loPI   C3B 2687  18.931   8.269   8.605  0.3888  0.0135  0.1874
  168loPI   C4B 2688  19.044   8.620   8.310  0.0833  0.0419 -0.4323
  169loPI    C1 2689   7.050  12.577   9.491  0.0049 -0.1033 -0.1976
  169loPI    C2 2690   7.445  12.579   9.554 -0.0391  0.2653  0.1075
  169loPI    C3 2691   7.213  12.317   9.748  0.0531  0.0402 -0.0812
  169loPI   PO4 2692   7.054  12.880   9.482  0.2617  0.0501 -0.1014
  169loPI   GL1 2693   6.943  12.997   9.159  0.0887  0.3989  0.0257
  169loPI   GL2 2694   7.252  12.747   8.981 -0.5264 -0.3156  0.1336
  169loPI   C1A 2695   6.913  12.973   8.770 -0.0490 -0.0768  0.0829
  169loPI   C2A 2696   6.854  12.933   8.275  0.3541 -0.1228  0.0620
  169loPI   C3A 2697   7.151  12.981   7.897  0.1554 -0.1512  0.3492
  169loPI   C4A 2698   6.971  13.030   7.512 -0.1430  0.3137 -0.4001
  169loPI   C5A 2699   6.826  13.160   7.218  0.1286  0.0591 -0.1904
  169loPI   C6A 2700   7.020  13.222   6.778 -0.0788 -0.2170 -0.3348
  169loPI   C1B 2701   7.332  12.591   8.549 -0.2867 -0.0940  0.0796
  169loPI   C2B 2702   7.151  12.552   8.179 -0.2402 -0.2847  0.3205
  169loPI   C3B 2703   7.117  12.502   7.856  0.0183  0.2517 -0.4533
  169loPI   C4B 2704   7.099  12.235   7.640  0.0508 -0.1927 -0.1400
  170loPI    C1 2705  17.509  17.245   9.674  0.1112  0.4113 -0.0397
  170loPI    C2 2706  17.795  17.275   9.952  0.1244  0.0129 -0.0047
  170loPI    C3 2707  17.443  17.107  10.043  0.0596  0.0517 -0.1791
  170loPI   PO4 2708  17.572  17.104   9.420 -0.3158  0.2136 -0.3644
  170loPI   GL1 2709  17.568  17.308   9.060 -0.2345  0.1729  0.0022
  170loPI   GL2 2710  17.337  17.427   8.933 -0.3232 -0.2303 -0.0404
  170loPI   C1A 2711  17.661  17.020   8.732 -0.2423  0.0514  0.0351
  170loPI   C2A 2712  17.616  17.132   8.276 -0.1936 -0.0767  0.0744
  170loPI   C3A 2713  17.714  17.259   7.796 -0.0123  0.2229 -0.2523
  170loPI   C4A 2714  17.814  17.299   7.451 -0.2494 -0.4012 -0.0444
  170loPI   C5A 2715  18.105  17.474   7.282  0.1520 -0.1966 -0.0712
  170loPI   C6A 2716  18.346  17.269   7.031 -0.0102 -0.0669 -0.5811
  170loPI   C1B 2717  17.334  17.424   8.525  0.3637  0.0451 -0.0243
  170loPI   C2B 2718  17.210  17.513   8.055 -0.3716 -0.0712  0.0072
  170loPI   C3B 2719  17.388  17.603   7.652 -0.0173  0.0149  0.3182
  170loPI   C4B 2720  17.709  17.826   7.436 -0.0091  0.1494  0.1610
  171loPI    C1 2721  12.434   6.718   9.873  0.0949 -0.0787  0.1535
  171loPI    C2 2722  12.046   6.726   9.966 -0.0022 -0.0936 -0.2311
  171loPI    C3 2723  12.301   6.969  10.154 -0.1959 -0.0813  0.0221
  171loPI   PO4 2724  12.485   6.636   9.597 -0.0745  0.1627  0.2655
  171loPI   GL1 2725  12.395   6.606   9.200  0.3216 -0.1190 -0.0073
  171loPI   GL2 2726  12.273   6.924   9.157 -0.1541  0.0970  0.3836
  171loPI   C1A 2727  12.472   6.634   8.757 -0.3018 -0.0133 -0.1947
  171loPI   C2A 2728  12.543   6.634   8.286 -0.1863  0.1114 -0.1652
  171loPI   C3A 2729  12.358   6.490   8.035 -0.0080 -0.2120  0.1348
  171loPI   C4A 2730  12.265   6.341   7.674  0.1723 -0.0823  0.1967
  171loPI   C5A 2731  12.425   6.574   7.267 -0.4905  0.1852 -0.1141
  171loPI   C6A 2732  12.679   6.408   6.922  0.1678 -0.0631  0.1051
  171loPI   C1B 2733  12.288   7.189   8.787 -0.2081  0.3234 -0.0750
  171loPI   C2B 2734  12.075   7.423   8.425 -0.2093  0.0325  0.3614
  171loPI   C3B 2735  11.801   7.629   8.184 -0.1288 -0.0606 -0.1040
  171loPI   C4B 2736  11.339   7.651   7.938  0.1721 -0.0597  0.1884
  172loPI    C1 2737  10.405   5.831   9.613 -0.3231  0.1129 -0.1257
  172loPI    C2 2738  10.493   5.558   9.891  0.3358  0.1669 -0.2627
  172loPI    C3 2739  10.452   5.943   9.994  0.2567  0.1411 -0.1961
  172loPI   PO4 2740  10.147   5.731   9.411 -0.0447  0.6327 -0.1601
  172loPI   GL1 2741   9.910   5.420   9.222 -0.0538 -0.0115 -0.0370
  172loPI   GL2 2742   9.662   5.636   9.425  0.0872  0.0917 -0.1840
  172loPI   C1A 2743   9.943   5.448   8.752  0.1554  0.0375 -0.2075
  172loPI   C2A 2744   9.707   5.482   8.405  0.1269  0.0799  0.3100
  172loPI   C3A 2745   9.384   5.367   8.253  0.1910 -0.1653 -0.1008
  172loPI   C4A 2746   8.973   5.349   8.155  0.2635 -0.4406  0.0446
  172loPI   C5A 2747   8.581   5.353   8.080  0.0187  0.0760  0.2772
  172loPI   C6A 2748   8.574   5.433   8.515 -0.2931 -0.1614  0.2652
  172loPI   C1B 2749   9.508   5.557   9.022  0.2213 -0.2147  0.0413
  172loPI   C2B 2750   9.247   5.295   8.821 -0.0788 -0.1921  0.1643
  172loPI   C3B 2751   9.293   4.844   8.645  0.1086 -0.2029  0.1772
  172loPI   C4B 2752   9.016   4.636   8.308  0.3165  0.1023 -0.0726
  173loPI    C1 2753  16.498   1.456  10.070  0.2018  0.0325 -0.0176
  173loPI    C2 2754  16.281   1.339  10.385  0.0318 -0.2794 -0.2440
  173loPI    C3 2755  16.612   1.558  10.439 -0.0614 -0.2260  0.1392
  173loPI   PO4 2756  16.312   1.557   9.921 -0.1401  0.1295 -0.3614
  173loPI   GL1 2757  16.406   1.666   9.576 -0.1910 -0.0082 -0.1009
  173loPI   GL2 2758  16.151   1.611   9.372 -0.1482  0.0349 -0.0841
  173loPI   C1A 2759  16.671   1.778   9.190 -0.2109  0.1643 -0.0659
  173loPI   C2A 2760  16.542   1.999   8.839 -0.0427 -0.2540  0.3702
  173loPI   C3A 2761  16.716   2.010   8.384  0.5548  0.0215  0.1004
  173loPI   C4A 2762  16.678   1.977   7.921 -0.1714  0.3832  0.4100
  173loPI   C5A 2763  16.618   1.942   7.466 -0.1693  0.0346  0.0379
  173loPI   C6A 2764  16.894   2.037   7.049 -0.3609  0.1985  0.1123
  173loPI   C1B 2765  16.222   1.689   9.004  0.0941 -0.2361 -0.4794
  173loPI   C2B 2766  16.267   1.699   8.453 -0.0032 -0.1915 -0.0458
  173loPI   C3B 2767  16.305   1.598   7.977 -0.0358  0.1587  0.1180
  173loPI   C4B 2768  16.424   1.342   7.616 -0.0735  0.0238  0.1193
  174loPI    C1 2769   2.125   5.779  10.212  0.2182 -0.1603 -0.1923
  174loPI    C2 2770   2.275   5.838  10.578 -0.0253 -0.0808 -0.1035
  174loPI    C3 2771   2.413   5.539  10.351 -0.0084 -0.2527  0.1298
  174loPI   PO4 2772   2.152   6.003  10.065  0.2512  0.2244  0.2455
  174loPI   GL1 2773   1.962   6.007   9.667 -0.0903  0.1870 -0.0354
  174loPI   GL2 2774   1.623   6.124   9.534 -0.2458  0.0346 -0.0140
  174loPI   C1A 2775   2.203   5.623   9.398  0.3785 -0.0645  0.0590
  174loPI   C2A 2776   2.118   5.556   8.976  0.2560  0.1287  0.0382
  174loPI   C3A 2777   1.983   5.703   8.554 -0.1384  0.0898  0.2154
  174loPI   C4A 2778   1.967   5.831   8.133 -0.2050  0.1258 -0.1074
  174loPI   C5A 2779   2.102   5.797   7.775 -0.0499  0.0089 -0.0242
  174loPI   C6A 2780   2.503   6.041   7.583  0.0002  0.0279 -0.0193
  174loPI   C1B 2781   1.917   6.262   9.237  0.3524  0.0834  0.0839
  174loPI   C2B 2782   2.187   6.417   8.884 -0.2174  0.2423  0.0103
  174loPI   C3B 2783   2.023   6.645   8.466  0.0395  0.0300 -0.1653
  174loPI   C4B 2784   2.014   6.551   8.121 -0.0009  0.0845  0.3286
  175loPI    C1 2785  18.645  11.708   9.333  0.0223 -0.0315  0.0350
  175loPI    C2 2786  18.337  11.494   9.472 -0.0799  0.0815 -0.0158
  175loPI    C3 2787  18.522  11.757   9.710  0.0993 -0.1208  0.0722
  175loPI   PO4 2788  18.884  11.487   9.296  0.1147  0.0563 -0.3099
  175loPI   GL1 2789  19.052  11.486   8.949  0.2348 -0.0453 -0.0767
  175loPI   GL2 2790  18.868  11.731   8.787  0.1745 -0.1161 -0.1162
  175loPI   C1A 2791  18.971  11.221   8.605  0.1838 -0.0032  0.2242
  175loPI   C2A 2792  19.022  11.187   8.232  0.0288 -0.0314  0.0184
  175loPI   C3A 2793  19.000  11.231   7.720  0.2692  0.2682  0.3253
  175loPI   C4A 2794  19.325  11.235   7.512 -0.1958 -0.1528  0.1773
  175loPI   C5A 2795  19.592  11.292   7.041 -0.1083  0.2670 -0.0316
  175loPI   C6A 2796  19.737  11.382   6.591  0.3230 -0.2051  0.0056
  175loPI   C1B 2797  19.203  11.716   8.533  0.1448 -0.7018  0.3151
  175loPI   C2B 2798  19.270  11.729   8.067 -0.2283  0.2942 -0.0210
  175loPI   C3B 2799  19.273  11.713   7.639 -0.3137 -0.1225  0.2516
  175loPI   C4B 2800  19.244  11.643   7.237  0.0176  0.0923  0.4201
  176loPI    C1 2801   9.609  11.971   9.725  0.0127 -0.1345  0.1512
  176loPI    C2 2802   9.460  12.292   9.913 -0.0275 -0.1190  0.0934
  176loPI    C3 2803   9.679  12.024  10.115  0.0981  0.0011  0.1182
  176loPI   PO4 2804   9.543  12.022   9.410  0.1759  0.2373  0.0658
  176loPI   GL1 2805   9.776  11.857   9.046  0.1981  0.2569  0.1191
  176loPI   GL2 2806   9.621  11.551   9.047 -0.0191 -0.2257  0.1589
  176loPI   C1A 2807   9.728  12.026   8.640 -0.0368 -0.1084  0.0558
  176loPI   C2A 2808   9.836  11.934   8.141  0.1085 -0.1133  0.3100
  176loPI   C3A 2809   9.855  11.764   7.719  0.2008  0.0928  0.0097
  176loPI   C4A 2810  10.043  11.510   7.468 -0.1280  0.0963 -0.3832
  176loPI   C5A 2811  10.403  11.259   7.442  0.2389  0.1945 -0.1781
  176loPI   C6A 2812  10.420  11.064   7.098  0.0805 -0.0965 -0.0809
  176loPI   C1B 2813   9.831  11.235   8.904 -0.0863 -0.0336  0.0307
  176loPI   C2B 2814  10.107  10.896   8.640 -0.2857 -0.2501  0.2519
  176loPI   C3B 2815  10.055  10.857   8.179  0.0903 -0.3176 -0.0712
  176loPI   C4B 2816  10.218  10.672   7.812  0.1043 -0.0667 -0.1969
  177loPI    C1 2817  17.371  14.904   9.658 -0.0410  0.0353  0.0656
  177loPI    C2 2818  17.216  14.848  10.022 -0.1548  0.0832  0.0250
  177loPI    C3 2819  17.612  14.846   9.971 -0.1438 -0.2043  0.1026
  177loPI   PO4 2820  17.340  15.074   9.560  0.3216 -0.0132  0.4744
  177loPI   GL1 2821  17.366  15.154   9.144 -0.2399 -0.1342  0.1548
  177loPI   GL2 2822  17.613  14.980   9.168 -0.0783  0.2610 -0.0639
  177loPI   C1A 2823  17.112  15.441   8.919  0.0723 -0.0254 -0.0617
  177loPI   C2A 2824  16.854  15.495   8.514  0.1365  0.1280 -0.1235
  177loPI   C3A 2825  16.490  15.420   8.165  0.3550  0.0527 -0.2892
  177loPI   C4A 2826  16.256  15.334   7.771  0.3066 -0.3149  0.1245
  177loPI   C5A 2827  16.004  15.537   7.459  0.0012  0.1264 -0.1432
  177loPI   C6A 2828  15.995  15.774   7.215  0.0658  0.2543  0.0445
  177loPI   C1B 2829  17.627  14.781   8.766 -0.1203 -0.0751  0.2321
  177loPI   C2B 2830  18.068  14.707   8.389 -0.0870 -0.0534 -0.0686
  177loPI   C3B 2831  18.059  14.832   7.887  0.0897  0.0722  0.4736
  177loPI   C4B 2832  18.023  14.995   7.429 -0.0502  0.0679 -0.0874
  178loPI    C1 2833  10.565   2.960   9.938  0.0135  0.0469 -0.1673
  178loPI    C2 2834  10.537   3.136  10.296  0.1786  0.1916 -0.2243
  178loPI    C3 2835  10.887   3.131  10.103  0.1493 -0.1025 -0.2744
  178loPI   PO4 2836  10.299   3.057   9.865  0.3152 -0.1753 -0.0485
  178loPI   GL1 2837   9.975   3.075   9.604  0.0115 -0.0099 -0.0169
  178loPI   GL2 2838   9.849   3.385   9.577 -0.0923 -0.3023 -0.1628
  178loPI   C1A 2839   9.849   3.053   9.188 -0.2359  0.0964 -0.0533
  178loPI   C2A 2840   9.726   2.909   8.785 -0.3839 -0.0017 -0.0078
  178loPI   C3A 2841   9.696   2.948   8.374  0.1377  0.0661 -0.2519
  178loPI   C4A 2842   9.790   3.048   8.036  0.0263 -0.2242 -0.0856
  178loPI   C5A 2843   9.538   3.006   7.652  0.0634  0.3239 -0.1931
  178loPI   C6A 2844   9.431   3.370   7.464  0.2494 -0.4583  0.0857
  178loPI   C1B 2845  10.178   3.550   9.259  0.1340 -0.1319 -0.2727
  178loPI   C2B 2846  10.158   3.645   8.901 -0.2023 -0.1269 -0.0411
  178loPI   C3B 2847  10.198   3.684   8.584  0.1035 -0.2521  0.1249
  178loPI   C4B 2848  10.268   3.836   8.215  0.2169  0.1261  0.4173
  179loPI    C1 2849   9.033   3.970  10.279 -0.1058  0.1610 -0.1179
  179loPI    C2 2850   8.643   4.032  10.214 -0.1474 -0.1186 -0.1501
  179loPI    C3 2851   8.763   3.708  10.416  0.0636  0.0217 -0.0459
  179loPI   PO4 2852   9.094   4.047   9.974  0.0148  0.4045 -0.0194
  179loPI   GL1 2853   9.481   4.102   9.667  0.2109  0.1668 -0.2314
  179loPI   GL2 2854   9.719   4.025   9.556  0.3973  0.1729  0.3476
  179loPI   C1A 2855   9.358   3.966   9.221  0.0686 -0.0055 -0.1952
  179loPI   C2A 2856   9.519   3.910   8.835  0.2007 -0.2086  0.0304
  179loPI   C3A 2857   9.428   3.787   8.399  0.0484  0.1589  0.1897
  179loPI   C4A 2858   9.358   3.812   8.004 -0.3134  0.2905  0.0233
  179loPI   C5A 2859   8.903   3.739   7.667 -0.2948  0.2637 -0.1269
  179loPI   C6A 2860   8.662   3.732   7.377 -0.0311  0.0012 -0.0277
  179loPI   C1B 2861   9.882   3.982   9.265  0.0535 -0.2607 -0.1530
  179loPI   C2B 2862  10.032   4.142   8.959 -0.0165  0.4045  0.1791
  179loPI   C3B 2863   9.908   4.115   8.468 -0.1940 -0.1483 -0.0032
  179loPI   C4B 2864   9.767   4.045   8.086  0.1716 -0.3052  0.0819
  180loPI    C1 2865   2.126  11.598   9.846  0.2878  0.1794 -0.0349
  180loPI    C2 2866   2.341  11.915   9.960  0.2498  0.1594  0.0936
  180loPI    C3 2867   1.942  11.936   9.957  0.2467  0.1058  0.1237
  180loPI   PO4 2868   2.185  11.549   9.541  0.1879  0.3616 -0.0228
  180loPI   GL1 2869   2.262  11.194   9.289 -0.2090 -0.1473  0.2017
  180loPI   GL2 2870   2.626  11.394   9.157 -0.2320 -0.0381 -0.1261
  180loPI   C1A 2871   2.353  11.018   8.906 -0.0723 -0.3327  0.0287
  180loPI   C2A 2872   2.412  10.893   8.421 -0.1805 -0.2013 -0.3348
  180loPI   C3A 2873   2.426  10.872   8.040 -0.0820 -0.0907  0.4636
  180loPI   C4A 2874   2.443  10.826   7.638  0.5055 -0.1144  0.1949
  180loPI   C5A 2875   2.211  10.996   7.322  0.0959  0.2180  0.3717
  180loPI   C6A 2876   2.157  11.234   6.889 -0.3050  0.0862 -0.0166
  180loPI   C1B 2877   2.370  11.574   8.840 -0.1500 -0.2207  0.0908
  180loPI   C2B 2878   2.397  11.577   8.337 -0.1785 -0.4517 -0.2688
  180loPI   C3B 2879   2.255  11.389   7.997 -0.0088  0.0676  0.5333
  180loPI   C4B 2880   2.043  11.142   7.792 -0.0744 -0.2824 -0.1516
  181loPI    C1 2881   9.313  10.893   9.794 -0.1999 -0.0326 -0.1346
  181loPI    C2 2882   9.283  11.195  10.054  0.1306 -0.1583  0.0553
  181loPI    C3 2883   9.368  10.826  10.184 -0.3343 -0.3520 -0.1673
  181loPI   PO4 2884   9.155  11.016   9.555 -0.1020  0.1824 -0.1577
  181loPI   GL1 2885   9.178  11.107   9.231 -0.1764 -0.2579 -0.1778
  181loPI   GL2 2886   8.862  10.980   9.038  0.3737 -0.0870  0.1254
  181loPI   C1A 2887   9.232  11.168   8.787 -0.2023 -0.0276  0.1917
  181loPI   C2A 2888   9.159  11.271   8.350  0.2508 -0.1166 -0.1586
  181loPI   C3A 2889   9.252  11.338   7.895 -0.2262  0.0225  0.1445
  181loPI   C4A 2890   9.531  11.324   7.415 -0.1354 -0.0504 -0.2564
  181loPI   C5A 2891   9.370  11.369   7.157  0.0040  0.0665 -0.0746
  181loPI   C6A 2892   9.233  11.017   6.851  0.0996  0.1360  0.0809
  181loPI   C1B 2893   8.994  10.858   8.531 -0.0092  0.2031  0.0259
  181loPI   C2B 2894   9.147  10.857   8.095  0.1961 -0.0885  0.1338
  181loPI   C3B 2895   9.398  10.908   7.647 -0.0213  0.0126  0.0884
  181loPI   C4B 2896   9.298  10.818   7.289 -0.0015  0.1037  0.0737
  182loPI    C1 2897   7.724   6.204  10.204  0.0056  0.0980  0.0531
  182loPI    C2 2898   8.038   6.421  10.084  0.0626 -0.0616 -0.0901
  182loPI    C3 2899   8.088   6.124  10.348  0.0222 -0.0489 -0.0681
  182loPI   PO4 2900   7.549   6.166  10.009 -0.0218  0.0404  0.1617
  182loPI   GL1 2901   7.199   6.340   9.858  0.1329  0.0583 -0.1340
  182loPI   GL2 2902   7.298   6.430   9.598 -0.2894 -0.0420  0.1373
  182loPI   C1A 2903   6.862   6.209   9.438  0.3085  0.0840  0.2636
  182loPI   C2A 2904   6.716   6.024   8.921 -0.0153 -0.1520 -0.0064
  182loPI   C3A 2905   6.736   5.898   8.456 -0.1002  0.1426  0.0060
  182loPI   C4A 2906   6.730   5.861   7.886  0.2274 -0.0378 -0.2044
  182loPI   C5A 2907   6.951   5.549   7.661  0.3473 -0.0805 -0.1389
  182loPI   C6A 2908   7.389   5.349   7.785  0.2225 -0.0374  0.3139
  182loPI   C1B 2909   7.308   6.300   9.185  0.1342 -0.2594 -0.1249
  182loPI   C2B 2910   7.301   6.172   8.799  0.1398  0.1360 -0.1508
  182loPI   C3B 2911   7.232   6.175   8.467  0.1410  0.0775  0.2236
  182loPI   C4B 2912   7.157   6.162   8.161  0.2438  0.1978 -0.1604
  183loPI    C1 2913   8.514   4.551  10.048  0.0622  0.1157 -0.1476
  183loPI    C2 2914   8.678   4.524  10.411 -0.2051  0.1966 -0.0181
  183loPI    C3 2915   8.908   4.497  10.085 -0.0098 -0.2429  0.1490
  183loPI   PO4 2916   8.251   4.802  10.066  0.1555 -0.1282  0.3992
  183loPI   GL1 2917   8.175   4.775   9.661 -0.1534  0.1387 -0.0348
  183loPI   GL2 2918   8.239   4.523   9.599  0.0388 -0.3356 -0.1316
  183loPI   C1A 2919   8.309   5.010   9.313  0.0062 -0.0435 -0.2586
  183loPI   C2A 2920   8.247   5.158   8.870 -0.0753 -0.1777  0.0698
  183loPI   C3A 2921   8.104   5.177   8.433  0.0710 -0.0816  0.0394
  183loPI   C4A 2922   8.061   5.094   7.975 -0.3493 -0.1555 -0.2291
  183loPI   C5A 2923   8.277   5.368   7.669  0.5130  0.1839 -0.0582
  183loPI   C6A 2924   8.436   5.700   7.427  0.1571  0.0685  0.0989
  183loPI   C1B 2925   8.187   4.524   9.183 -0.0481 -0.1954  0.2781
  183loPI   C2B 2926   8.162   4.694   8.778 -0.0689  0.1807 -0.2476
  183loPI   C3B 2927   8.129   4.689   8.327  0.1047  0.0803  0.0740
  183loPI   C4B 2928   8.056   4.583   7.940 -0.1006  0.2553  0.1516
  184loPI    C1 2929   2.709   1.635  10.008  0.1651 -0.0433 -0.3047
  184loPI    C2 2930   2.604   1.323  10.235 -0.2033  0.1582 -0.1908
  184loPI    C3 2931   2.981   1.457  10.242 -0.1192 -0.0812  0.0030
  184loPI   PO4 2932   2.516   1.522   9.780 -0.0982 -0.1918 -0.3887
  184loPI   GL1 2933   2.393   1.194   9.553 -0.0164 -0.2452  0.0143
  184loPI   GL2 2934   2.112   0.890   9.741  0.0371 -0.3720  0.1221
  184loPI   C1A 2935   2.511   1.245   9.168 -0.2614  0.2044  0.1235
  184loPI   C2A 2936   2.606   1.315   8.777  0.3890 -0.2162 -0.2612
  184loPI   C3A 2937   2.571   1.511   8.375 -0.2185 -0.1011 -0.3605
  184loPI   C4A 2938   2.787   1.930   8.274  0.0812  0.0222  0.0467
  184loPI   C5A 2939   2.832   2.286   7.964  0.0491 -0.0770 -0.1180
  184loPI   C6A 2940   2.720   2.667   7.802 -0.2150  0.1403 -0.0623
  184loPI   C1B 2941   2.172   0.806   9.321 -0.3526  0.1227 -0.1221
  184loPI   C2B 2942   2.328   0.739   8.821 -0.2344  0.0103  0.2432
  184loPI   C3B 2943   2.096   0.698   8.513 -0.2349  0.0247  0.1781
  184loPI   C4B 2944   2.141   0.638   8.060  0.2931 -0.0321  0.1697
  185loPI    C1 2945  15.096   0.011   9.686  0.0299  0.2103  0.1040
  185loPI    C2 2946  15.494   0.033   9.657  0.0201  0.4448  0.1323
  185loPI    C3 2947  15.327  -0.193   9.941  0.1291  0.1335 -0.0460
  185loPI   PO4 2948  15.025   0.302   9.704 -0.2022 -0.2758  0.0658
  185loPI   GL1 2949  14.802   0.307   9.325  0.1009 -0.2665 -0.3478
  185loPI   GL2 2950  14.557   0.261   9.258  0.3639  0.0881  0.3208
  185loPI   C1A 2951  14.990   0.200   8.960 -0.3282 -0.0656 -0.2356
  185loPI   C2A 2952  15.084   0.131   8.517 -0.0227  0.2286 -0.0623
  185loPI   C3A 2953  15.269  -0.050   8.019  0.0986  0.1459 -0.1010
  185loPI   C4A 2954  15.508  -0.048   7.570 -0.0896  0.2049  0.1230
  185loPI   C5A 2955  15.824  -0.022   7.168 -0.0366 -0.2864 -0.1076
  185loPI   C6A 2956  15.956   0.350   6.823  0.3881 -0.0695 -0.0720
  185loPI   C1B 2957  14.566  -0.008   8.870  0.1226 -0.3511  0.1216
  185loPI   C2B 2958  14.528  -0.042   8.445 -0.1879 -0.3275 -0.2942
  185loPI   C3B 2959  14.785  -0.165   8.060  0.2087  0.0741  0.1132
  185loPI   C4B 2960  14.595  -0.252   7.683  0.0873 -0.0857 -0.0478
  186loPI    C1 2961  17.626   2.385   9.998  0.0366  0.1736  0.3189
  186loPI    C2 2962  17.782   2.085  10.212 -0.0230 -0.1977 -0.1419
  186loPI    C3 2963  17.456   2.276  10.343  0.1032 -0.2292  0.2298
  186loPI   PO4 2964  17.525   2.288   9.752  0.2139  0.0704 -0.0023
  186loPI   GL1 2965  17.332   2.399   9.440  0.0995  0.5653 -0.0661
  186loPI   GL2 2966  17.094   2.191   9.357  0.1264 -0.0412 -0.1511
  186loPI   C1A 2967  17.488   2.451   9.053 -0.2500  0.0594  0.0272
  186loPI   C2A 2968  17.797   2.310   8.775 -0.1730 -0.0744  0.1602
  186loPI   C3A 2969  17.882   2.317   8.340 -0.3021  0.0901  0.0145
  186loPI   C4A 2970  18.220   2.321   7.965  0.1032 -0.1114  0.3518
  186loPI   C5A 2971  18.514   2.318   7.453  0.2170 -0.0642 -0.1290
  186loPI   C6A 2972  18.511   2.503   6.971 -0.0992  0.1194  0.1919
  186loPI   C1B 2973  17.021   2.092   9.024 -0.1452  0.0663 -0.2397
  186loPI   C2B 2974  17.212   2.085   8.618  0.0223 -0.2423 -0.0715
  186loPI   C3B 2975  17.123   2.247   8.189 -0.0336  0.1539 -0.0464
  186loPI   C4B 2976  17.192   2.407   7.736 -0.0500  0.0327  0.1294
  187loPI    C1 2977   6.566   4.093  10.643 -0.0419  0.1656 -0.1270
  187loPI    C2 2978   6.734   4.267  10.961  0.0755  0.1076 -0.1569
  187loPI    C3 2979   6.588   3.896  10.990 -0.1522  0.1999 -0.1000
  187loPI   PO4 2980   6.703   4.154  10.433  0.3219 -0.0838 -0.3236
  187loPI   GL1 2981   6.574   4.027   9.933  0.1402  0.0274  0.1524
  187loPI   GL2 2982   6.786   3.859   9.717 -0.1099  0.1081 -0.1470
  187loPI   C1A 2983   6.360   3.990   9.516 -0.1724 -0.0482 -0.1334
  187loPI   C2A 2984   6.187   4.117   9.057 -0.0334  0.1498 -0.1231
  187loPI   C3A 2985   6.343   4.107   8.654 -0.0045 -0.1750  0.2717
  187loPI   C4A 2986   6.278   4.129   8.250 -0.0071  0.1234 -0.0065
  187loPI   C5A 2987   6.305   3.869   7.836 -0.1497  0.1976 -0.1498
  187loPI   C6A 2988   6.660   3.548   7.652  0.1098 -0.2218 -0.0213
  187loPI   C1B 2989   6.793   3.847   9.325  0.1146 -0.0442  0.0842
  187loPI   C2B 2990   6.805   3.810   8.862  0.2522 -0.0232  0.2458
  187loPI   C3B 2991   6.667   3.711   8.497  0.0008 -0.1548  0.2216
  187loPI   C4B 2992   6.775   3.843   8.115  0.2127 -0.1227 -0.0048
  188loPI    C1 2993  17.369   0.031   9.943 -0.1646  0.0951 -0.0823
  188loPI    C2 2994  17.495  -0.292  10.141  0.3093  0.2860 -0.0600
  188loPI    C3 2995  17.228  -0.047  10.310  0.0658 -0.0055 -0.0134
  188loPI   PO4 2996  17.440  -0.094   9.687 -0.1479 -0.0763 -0.1224
  188loPI   GL1 2997  17.511  -0.083   9.261 -0.0586  0.1195  0.0273
  188loPI   GL2 2998  17.711   0.199   9.191  0.2463  0.3591 -0.0554
  188loPI   C1A 2999  17.444  -0.200   8.789 -0.0540 -0.0211  0.0395
  188loPI   C2A 3000  17.551  -0.105   8.393 -0.0976  0.0379 -0.0433
  188loPI   C3A 3001  17.547  -0.007   7.968 -0.1152 -0.0436  0.4727
  188loPI   C4A 3002  17.426   0.064   7.560  0.0128 -0.1787 -0.1903
  188loPI   C5A 3003  17.449   0.372   7.262 -0.2421  0.0955  0.0853
  188loPI   C6A 3004  17.488   0.651   6.980 -0.2375 -0.5125 -0.2891
  188loPI   C1B 3005  17.622   0.254   8.765  0.3272  0.2729 -0.2701
  188loPI   C2B 3006  17.832   0.437   8.377  0.0218  0.0012 -0.1201
  188loPI   C3B 3007  18.033   0.773   8.170  0.0044 -0.0157  0.0025
  188loPI   C4B 3008  18.195   0.977   7.968  0.2236  0.2078  0.0360
  189loPI    C1 3009   3.404   0.741  10.406  0.2964  0.1113 -0.1227
  189loPI    C2 3010   3.543   1.115  10.430 -0.3163  0.3312  0.1850
  189loPI    C3 3011   3.557   0.876  10.750  0.0108  0.1075  0.0085
  189loPI   PO4 3012   3.558   0.657  10.196  0.1840 -0.0886  0.0924
  189loPI   GL1 3013   3.381   0.560   9.795  0.2261 -0.0641 -0.3070
  189loPI   GL2 3014   3.502   0.342   9.604  0.0905 -0.1173  0.0659
  189loPI   C1A 3015   3.292   0.858   9.417 -0.0046 -0.2181  0.0304
  189loPI   C2A 3016   3.309   0.888   8.988  0.1150  0.4445  0.1486
  189loPI   C3A 3017   3.191   0.899   8.538  0.5055 -0.1496  0.1609
  189loPI   C4A 3018   3.089   0.775   8.199 -0.1780 -0.2520 -0.0709
  189loPI   C5A 3019   3.181   0.627   7.871  0.1440  0.2064  0.3908
  189loPI   C6A 3020   3.361   0.194   7.685  0.1624  0.1351  0.0028
  189loPI   C1B 3021   3.600   0.519   9.220  0.0984 -0.0422  0.0279
  189loPI   C2B 3022   3.626   0.455   8.832  0.1821 -0.4960 -0.2074
  189loPI   C3B 3023   3.607   0.382   8.488  0.0242 -0.2499  0.0896
  189loPI   C4B 3024   3.614   0.440   8.007 -0.1032  0.0807  0.0561
  190loPI    C1 3025  17.663   9.047   9.816 -0.1379  0.0384 -0.1702
  190loPI    C2 3026  17.725   8.758  10.086  0.1488 -0.0098 -0.2832
  190loPI    C3 3027  17.427   9.021  10.138  0.2658  0.0475  0.1342
  190loPI   PO4 3028  17.705   8.900   9.617  0.2212 -0.0820 -0.1981
  190loPI   GL1 3029  17.481   8.610   9.378  0.1689 -0.3249 -0.1557
  190loPI   GL2 3030  17.665   8.407   9.396 -0.0659  0.2233  0.0591
  190loPI   C1A 3031  17.355   8.770   8.987 -0.2251  0.3488  0.1654
  190loPI   C2A 3032  17.279   8.902   8.633  0.0664  0.0597  0.2243
  190loPI   C3A 3033  17.163   8.853   8.216 -0.1367  0.4300  0.0776
  190loPI   C4A 3034  17.304   9.099   7.829 -0.2713  0.3381  0.0721
  190loPI   C5A 3035  17.314   9.544   7.600  0.0914 -0.0747  0.0051
  190loPI   C6A 3036  17.173   9.489   7.123  0.2150 -0.2810 -0.0552
  190loPI   C1B 3037  17.575   8.321   8.892  0.0305  0.3917  0.0407
  190loPI   C2B 3038  17.531   8.467   8.353 -0.3112  0.0968 -0.0306
  190loPI   C3B 3039  17.609   8.613   7.981 -0.1187  0.2006  0.0621
  190loPI   C4B 3040  17.776   8.617   7.640 -0.2980  0.0964  0.0310
  191loPI    C1 3041  15.345  10.643   9.873  0.4056  0.0754 -0.2262
  191loPI    C2 3042  15.218  10.918  10.135 -0.0680 -0.1525 -0.2072
  191loPI    C3 3043  15.510  10.665  10.237  0.0404  0.0328 -0.0528
  191loPI   PO4 3044  15.090  10.641   9.707 -0.0616  0.1410 -0.2277
  191loPI   GL1 3045  14.979  10.608   9.242  0.0669  0.1258 -0.0449
  191loPI   GL2 3046  15.258  10.385   9.221 -0.0198 -0.2515  0.2316
  191loPI   C1A 3047  15.017  10.592   8.741 -0.1874 -0.1317 -0.3371
  191loPI   C2A 3048  15.052  10.698   8.240  0.2029  0.0423 -0.1240
  191loPI   C3A 3049  15.080  10.590   7.911 -0.1571  0.1581 -0.0343
  191loPI   C4A 3050  15.081  10.770   7.491  0.1555 -0.3966 -0.0484
  191loPI   C5A 3051  14.676  10.770   7.328 -0.0758  0.1602 -0.0167
  191loPI   C6A 3052  14.276  10.981   7.319  0.0754 -0.0035  0.2296
  191loPI   C1B 3053  15.636  10.340   8.890 -0.2186  0.4442 -0.2381
  191loPI   C2B 3054  15.851  10.434   8.516  0.0847 -0.0812  0.4779
  191loPI   C3B 3055  15.983  10.278   8.036 -0.1483 -0.1876 -0.3038
  191loPI   C4B 3056  16.051  10.373   7.722 -0.0619 -0.0913 -0.2088
  192loPI    C1 3057  11.150  14.941   9.764 -0.3124 -0.0812  0.0643
  192loPI    C2 3058  11.357  15.098  10.068 -0.0146 -0.4482  0.0582
  192loPI    C3 3059  11.027  15.281   9.935  0.1531  0.0042  0.2438
  192loPI   PO4 3060  11.261  14.891   9.581 -0.2341  0.1976 -0.0175
  192loPI   GL1 3061  11.246  15.001   9.149  0.1598  0.0285 -0.0508
  192loPI   GL2 3062  10.920  15.044   9.189  0.1269 -0.0893 -0.2380
  192loPI   C1A 3063  11.387  14.870   8.738  0.1516 -0.0247 -0.2916
  192loPI   C2A 3064  11.382  14.716   8.307 -0.3641 -0.1943  0.2722
  192loPI   C3A 3065  11.496  15.012   8.009 -0.4106  0.1131  0.1535
  192loPI   C4A 3066  11.592  15.064   7.569 -0.0617  0.3388 -0.2356
  192loPI   C5A 3067  11.668  14.907   7.236  0.2915 -0.0288  0.7129
  192loPI   C6A 3068  11.461  14.825   6.801  0.4008 -0.2574 -0.2692
  192loPI   C1B 3069  10.908  15.116   8.742  0.0955 -0.5601 -0.2982
  192loPI   C2B 3070  10.741  14.888   8.408 -0.5252 -0.1134 -0.1463
  192loPI   C3B 3071  10.746  14.892   7.969  0.1556 -0.2007 -0.0040
  192loPI   C4B 3072  10.932  14.768   7.612 -0.2540 -0.1968 -0.0816
  193loPI    C1 3073  11.881   0.530   9.862  0.0272 -0.2486  0.2322
  193loPI    C2 3074  11.556   0.325   9.751 -0.1131  0.0104  0.1545
  193loPI    C3 3075  11.584   0.470  10.122 -0.0324 -0.1116  0.1969
  193loPI   PO4 3076  12.056   0.466   9.586 -0.0180  0.3625  0.0401
  193loPI   GL1 3077  12.165   0.549   9.100  0.3303 -0.2986 -0.4758
  193loPI   GL2 3078  12.022   0.893   9.088 -0.1512 -0.3028 -0.1363
  193loPI   C1A 3079  12.150   0.464   8.731 -0.5115  0.1291  0.0252
  193loPI   C2A 3080  12.322   0.288   8.378  0.3569 -0.1611 -0.3423
  193loPI   C3A 3081  12.315   0.363   7.896  0.1091  0.1242 -0.2435
  193loPI   C4A 3082  12.374   0.087   7.584 -0.1331  0.0065  0.1276
  193loPI   C5A 3083  12.383  -0.325   7.338 -0.0467 -0.2472 -0.0648
  193loPI   C6A 3084  12.306  -0.706   7.273 -0.2070 -0.0066 -0.0545
  193loPI   C1B 3085  11.725   0.649   8.845 -0.0902 -0.1258  0.1060
  193loPI   C2B 3086  11.413   0.558   8.406  0.0836  0.0658 -0.3168
  193loPI   C3B 3087  11.464   0.821   7.953  0.0027 -0.0094 -0.2065
  193loPI   C4B 3088  11.243   0.603   7.538  0.1304 -0.2715 -0.1476
  194loPI    C1 3089   5.867   6.258  10.309  0.0413 -0.0631  0.0328
  194loPI    C2 3090   5.709   6.329  10.670  0.0379  0.1535 -0.0098
  194loPI    C3 3091   5.845   6.633  10.448  0.2798 -0.0047 -0.0823
  194loPI   PO4 3092   5.705   6.129  10.159 -0.0361  0.4021  0.1869
  194loPI   GL1 3093   5.640   6.090   9.857  0.3111 -0.1081  0.0531
  194loPI   GL2 3094   5.941   6.072   9.691  0.3049  0.2190  0.3720
  194loPI   C1A 3095   5.542   6.449   9.563  0.1945 -0.1518 -0.0091
  194loPI   C2A 3096   5.285   6.511   9.253 -0.2674 -0.3614 -0.0068
  194loPI   C3A 3097   5.020   6.448   8.903  0.0922  0.0101  0.0558
  194loPI   C4A 3098   4.879   6.422   8.494 -0.0411 -0.0838 -0.2937
  194loPI   C5A 3099   4.820   6.400   8.134  0.1246 -0.0529  0.1894
  194loPI   C6A 3100   4.982   6.227   7.682  0.2142 -0.0667 -0.1047
  194loPI   C1B 3101   5.982   5.967   9.288 -0.2717 -0.0291 -0.4226
  194loPI   C2B 3102   5.995   5.976   8.816 -0.2307  0.1614 -0.0122
  194loPI   C3B 3103   5.871   5.916   8.473  0.3085 -0.2051 -0.0497
  194loPI   C4B 3104   5.849   5.995   8.055 -0.0644 -0.1978  0.2066
  195loPI    C1 3105  16.202   6.596   9.834 -0.1581  0.0823 -0.0315
  195loPI    C2 3106  16.432   6.757  10.119  0.0827  0.1663 -0.2688
  195loPI    C3 3107  16.072   6.913  10.041 -0.1181 -0.0449  0.1920
  195loPI   PO4 3108  16.417   6.637   9.598 -0.1909  0.0677 -0.1946
  195loPI   GL1 3109  16.453   6.300   9.277 -0.0293  0.2040 -0.2046
  195loPI   GL2 3110  16.656   6.028   9.284  0.0089  0.0445  0.2214
  195loPI   C1A 3111  16.513   6.378   8.805  0.1251  0.0118 -0.0682
  195loPI   C2A 3112  16.486   6.361   8.318  0.2491 -0.1324  0.0518
  195loPI   C3A 3113  16.516   6.389   7.834  0.6273 -0.1100 -0.1406
  195loPI   C4A 3114  16.352   6.058   7.642  0.0712  0.1408 -0.2490
  195loPI   C5A 3115  16.315   5.687   7.380 -0.1319 -0.0937 -0.3255
  195loPI   C6A 3116  16.171   5.591   7.026  0.0221 -0.0827  0.2355
  195loPI   C1B 3117  16.340   5.935   8.861 -0.1335  0.0464  0.0329
  195loPI   C2B 3118  16.174   5.802   8.598  0.2600  0.2038  0.1072
  195loPI   C3B 3119  16.170   5.534   8.306 -0.2438 -0.0548  0.0045
  195loPI   C4B 3120  16.117   5.461   7.845  0.2146  0.0405 -0.0035
  196loPI    C1 3121  12.796  14.037   9.490 -0.0698  0.2555  0.1364
  196loPI    C2 3122  12.506  14.065   9.764 -0.1400 -0.0731  0.1008
  196loPI    C3 3123  12.771  13.766   9.784  0.0059  0.0445 -0.0485
  196loPI   PO4 3124  12.956  14.321   9.341  0.1803  0.2145 -0.0807
  196loPI   GL1 3125  13.344  14.225   9.088  0.2697  0.0974  0.2085
  196loPI   GL2 3126  13.571  14.358   8.906 -0.1917  0.1428 -0.1232
  196loPI   C1A 3127  13.235  14.032   8.758  0.0426  0.0714 -0.0764
  196loPI   C2A 3128  13.126  13.919   8.225 -0.1773 -0.3511  0.1935
  196loPI   C3A 3129  13.296  14.175   7.884 -0.2278 -0.3189  0.2191
  196loPI   C4A 3130  13.280  14.138   7.396 -0.0257 -0.1774  0.0141
  196loPI   C5A 3131  13.524  14.179   6.962 -0.1152 -0.0802 -0.1732
  196loPI   C6A 3132  13.388  14.044   6.622  0.2370  0.1326 -0.0166
  196loPI   C1B 3133  13.417  14.459   8.604  0.0272 -0.0004  0.1103
  196loPI   C2B 3134  13.607  14.430   8.212 -0.5035 -0.1817 -0.0261
  196loPI   C3B 3135  13.721  14.345   7.759  0.6672  0.0792 -0.2540
  196loPI   C4B 3136  13.752  14.229   7.378 -0.0061  0.2999 -0.0224
  197loPI    C1 3137  17.719   0.922   9.849  0.2495  0.1464  0.0682
  197loPI    C2 3138  17.463   1.056  10.126 -0.0123 -0.0576 -0.0706
  197loPI    C3 3139  17.750   0.796  10.227  0.0300  0.0353  0.0505
  197loPI   PO4 3140  17.593   0.854   9.688 -0.0051  0.1415 -0.1934
  197loPI   GL1 3141  17.529   0.805   9.300 -0.0912  0.1442  0.2862
  197loPI   GL2 3142  17.447   1.124   9.307  0.0014 -0.0924  0.0110
  197loPI   C1A 3143  17.345   0.547   9.036 -0.1169  0.3304 -0.1147
  197loPI   C2A 3144  17.219   0.648   8.656 -0.0969 -0.0143 -0.0932
  197loPI   C3A 3145  17.343   0.393   8.255  0.2182  0.1245 -0.3981
  197loPI   C4A 3146  17.589   0.490   7.892 -0.0545 -0.1298 -0.0615
  197loPI   C5A 3147  17.782   0.684   7.491 -0.0081  0.2507  0.1270
  197loPI   C6A 3148  18.254   0.880   7.476  0.1094  0.4416 -0.5061
  197loPI   C1B 3149  17.563   1.401   9.077 -0.3313 -0.2558  0.0666
  197loPI   C2B 3150  17.637   1.394   8.726  0.1994  0.0254  0.0965
  197loPI   C3B 3151  17.597   1.470   8.286 -0.0579 -0.1447  0.2151
  197loPI   C4B 3152  17.514   1.564   7.820  0.2639  0.1166  0.1898
  198loPI    C1 3153   7.909  17.291   9.553  0.1791  0.0371 -0.0750
  198loPI    C2 3154   8.214  17.074   9.693  0.1855  0.1584  0.1027
  198loPI    C3 3155   7.956  17.242   9.947 -0.2418 -0.2408 -0.0535
  198loPI   PO4 3156   8.026  17.400   9.314  0.0457  0.0410 -0.0405
  198loPI   GL1 3157   7.976  17.645   8.923  0.1127  0.1519 -0.1889
  198loPI   GL2 3158   8.273  17.575   8.925 -0.1525  0.0208 -0.5269
  198loPI   C1A 3159   8.027  17.672   8.475  0.1466  0.2012  0.2142
  198loPI   C2A 3160   8.062  17.528   8.150  0.2397  0.2861 -0.0348
  198loPI   C3A 3161   7.934  17.391   7.728 -0.3744 -0.0518  0.0764
  198loPI   C4A 3162   7.861  17.022   7.577  0.1523  0.0156  0.1773
  198loPI   C5A 3163   7.714  16.755   7.341 -0.2041 -0.2637 -0.1361
  198loPI   C6A 3164   7.336  16.562   7.218 -0.2811 -0.0401 -0.0713
  198loPI   C1B 3165   8.541  17.529   8.520 -0.3484 -0.0971  0.2039
  198loPI   C2B 3166   8.812  17.284   8.365  0.0896 -0.2203  0.0622
  198loPI   C3B 3167   8.845  17.233   7.902  0.0945  0.0557  0.3216
  198loPI   C4B 3168   8.895  17.163   7.396 -0.0653  0.0309 -0.0871
  199loPI    C1 3169  16.967   1.300  10.171 -0.2913 -0.0656 -0.2062
  199loPI    C2 3170  17.041   1.313  10.564  0.0455 -0.1207 -0.2647
  199loPI    C3 3171  16.775   1.051  10.418  0.0190 -0.1929 -0.0886
  199loPI   PO4 3172  17.004   1.437   9.964  0.2046 -0.1454  0.2271
  199loPI   GL1 3173  16.830   1.369   9.644 -0.0875 -0.2341 -0.0878
  199loPI   GL2 3174  17.057   1.488   9.477  0.2485  0.1838  0.1602
  199loPI   C1A 3175  16.723   1.284   9.144  0.2104 -0.1049  0.1077
  199loPI   C2A 3176  16.623   1.478   8.756  0.1473  0.0233 -0.1509
  199loPI   C3A 3177  16.740   1.482   8.327 -0.2054  0.0715 -0.0660
  199loPI   C4A 3178  17.136   1.221   8.078  0.0999 -0.3274  0.0432
  199loPI   C5A 3179  17.284   1.199   7.551 -0.0014  0.1681 -0.0106
  199loPI   C6A 3180  17.579   1.100   7.221  0.0091  0.3853 -0.1758
  199loPI   C1B 3181  17.064   1.580   8.984  0.3104 -0.0033  0.2249
  199loPI   C2B 3182  17.174   1.618   8.544  0.0123 -0.2825 -0.1204
  199loPI   C3B 3183  17.102   1.752   8.096  0.1384  0.0216  0.3529
  199loPI   C4B 3184  16.932   1.543   7.686  0.0868 -0.2308 -0.2170
  200loPI    C1 3185   2.926   3.047  10.590 -0.0231  0.0825 -0.0968
  200loPI    C2 3186   3.112   2.706  10.685  0.0564  0.1179 -0.1241
  200loPI    C3 3187   3.249   3.054  10.826 -0.1668  0.1169  0.1009
  200loPI   PO4 3188   2.792   2.838  10.324  0.2045 -0.0929 -0.1175
  200loPI   GL1 3189   2.810   2.906   9.892  0.2807  0.2772 -0.2097
  200loPI   GL2 3190   2.785   2.602   9.818  0.2191 -0.1853 -0.0308
  200loPI   C1A 3191   2.874   3.067   9.448  0.2016 -0.4880  0.2218
  200loPI   C2A 3192   2.855   3.407   9.299 -0.0667 -0.2821 -0.0111
  200loPI   C3A 3193   2.958   3.271   8.937  0.1804 -0.2565 -0.3091
  200loPI   C4A 3194   2.960   3.212   8.470  0.2025  0.0892  0.1322
  200loPI   C5A 3195   2.690   3.151   8.137  0.0483  0.0125  0.2247
  200loPI   C6A 3196   2.372   3.018   7.927  0.1046  0.0247 -0.0576
  200loPI   C1B 3197   2.871   2.493   9.439 -0.3748 -0.1598 -0.1202
  200loPI   C2B 3198   2.763   2.383   9.050  0.0208 -0.2607 -0.0368
  200loPI   C3B 3199   2.539   2.221   8.622 -0.1828 -0.1230  0.3210
  200loPI   C4B 3200   2.354   2.137   8.290  0.2769 -0.0170 -0.1569
  201loPI    C1 3201   7.831   9.356   9.986  0.2207  0.1011  0.0666
  201loPI    C2 3202   7.978   9.338  10.357 -0.0758 -0.0624  0.1800
  201loPI    C3 3203   7.688   9.600  10.270 -0.0616 -0.0787  0.0830
  201loPI   PO4 3204   7.939   9.234   9.840  0.2938 -0.1331  0.1329
  201loPI   GL1 3205   7.793   9.172   9.490 -0.0529  0.3995  0.0349
  201loPI   GL2 3206   8.016   9.318   9.354 -0.1746  0.2789 -0.1958
  201loPI   C1A 3207   7.908   8.915   9.032 -0.1608  0.1894 -0.2496
  201loPI   C2A 3208   8.092   8.759   8.664 -0.0679  0.5122 -0.0975
  201loPI   C3A 3209   8.130   8.832   8.204 -0.1019  0.0864 -0.0314
  201loPI   C4A 3210   8.273   8.747   7.836  0.0553  0.1260 -0.1643
  201loPI   C5A 3211   8.027   8.773   7.474 -0.0956  0.4496 -0.0929
  201loPI   C6A 3212   7.905   8.868   7.159  0.2715  0.0657 -0.2079
  201loPI   C1B 3213   7.803   9.465   9.016 -0.3008  0.2476 -0.0680
  201loPI   C2B 3214   7.607   9.301   8.772 -0.0039 -0.2589  0.3408
  201loPI   C3B 3215   7.548   9.506   8.401 -0.1902 -0.4926  0.0231
  201loPI   C4B 3216   7.591   9.552   7.868 -0.0841 -0.1881 -0.2075
  202loPI    C1 3217  18.770   9.974  10.019  0.2126  0.1294  0.1633
  202loPI    C2 3218  18.575  10.323  10.014  0.0558  0.0421  0.1183
  202loPI    C3 3219  18.451  10.027  10.253  0.2493  0.0508  0.2315
  202loPI   PO4 3220  18.787   9.860   9.762 -0.1239 -0.1350 -0.1208
  202loPI   GL1 3221  18.745   9.785   9.414 -0.0388  0.0672  0.2376
  202loPI   GL2 3222  18.654  10.065   9.259  0.0576  0.0165 -0.2404
  202loPI   C1A 3223  19.045   9.592   9.194  0.2505  0.0285 -0.1071
  202loPI   C2A 3224  19.161   9.645   8.808 -0.1051 -0.0224 -0.2969
  202loPI   C3A 3225  19.162   9.588   8.383  0.3270 -0.3109 -0.0857
  202loPI   C4A 3226  19.189   9.525   7.911 -0.0922 -0.3041 -0.2012
  202loPI   C5A 3227  19.381   9.460   7.519 -0.2630 -0.0396 -0.0340
  202loPI   C6A 3228  19.191   9.712   7.278  0.0326 -0.4115 -0.0390
  202loPI   C1B 3229  18.703   9.898   8.923  0.4546  0.0673  0.0696
  202loPI   C2B 3230  18.703   9.780   8.514  0.4578  0.0448  0.1305
  202loPI   C3B 3231  18.763   9.826   8.149 -0.0273 -0.1607 -0.1495
  202loPI   C4B 3232  18.945   9.978   7.706  0.2023  0.0888  0.0916
  203loPI    C1 3233   6.967   1.182  10.232  0.1213 -0.3567 -0.0552
  203loPI    C2 3234   6.574   1.156  10.306  0.1238 -0.0724  0.0714
  203loPI    C3 3235   6.824   1.283  10.592  0.2990 -0.1760 -0.0336
  203loPI   PO4 3236   7.026   0.945  10.143 -0.2605  0.0235  0.0233
  203loPI   GL1 3237   7.092   0.960   9.706 -0.0512 -0.0980  0.0165
  203loPI   GL2 3238   7.469   0.960   9.568  0.1448 -0.0996  0.1118
  203loPI   C1A 3239   6.696   0.915   9.438  0.2188 -0.0730 -0.0967
  203loPI   C2A 3240   6.829   0.580   9.081 -0.1555 -0.3219  0.0414
  203loPI   C3A 3241   6.907   0.707   8.621 -0.1071  0.0683 -0.1794
  203loPI   C4A 3242   6.911   0.764   8.183 -0.0049 -0.2375  0.2228
  203loPI   C5A 3243   6.609   1.014   7.982  0.1136  0.1760 -0.0303
  203loPI   C6A 3244   6.340   1.088   7.771  0.0843  0.3929  0.3358
  203loPI   C1B 3245   7.442   0.854   9.141 -0.2252  0.1448  0.2664
  203loPI   C2B 3246   7.380   0.796   8.701 -0.2031 -0.1418  0.4106
  203loPI   C3B 3247   7.401   0.644   8.230 -0.0301 -0.0918 -0.3235
  203loPI   C4B 3248   7.617   0.463   8.003 -0.1420  0.0318 -0.0557
  204loPI    C1 3249  14.433   1.046   9.753 -0.3658  0.0373 -0.0687
  204loPI    C2 3250  14.373   1.376   9.970 -0.2922 -0.0345  0.0623
  204loPI    C3 3251  14.590   1.075  10.120 -0.0437  0.0090 -0.2003
  204loPI   PO4 3252  14.361   1.203   9.486  0.0814 -0.0770 -0.3005
  204loPI   GL1 3253  14.255   1.019   9.147  0.0623 -0.0681  0.2271
  204loPI   GL2 3254  14.472   0.789   9.221 -0.1861  0.0744  0.0034
  204loPI   C1A 3255  14.281   0.885   8.676  0.0505 -0.3060 -0.1147
  204loPI   C2A 3256  14.346   0.793   8.214 -0.0042  0.3372  0.1647
  204loPI   C3A 3257  14.215   0.524   7.889 -0.2760 -0.1739 -0.1136
  204loPI   C4A 3258  14.221   0.648   7.548 -0.0384 -0.4583  0.1053
  204loPI   C5A 3259  14.461   0.540   7.156 -0.0270  0.3367  0.0135
  204loPI   C6A 3260  14.582   0.113   6.948  0.0287  0.0571  0.3357
  204loPI   C1B 3261  14.588   0.602   8.897 -0.2071 -0.1815 -0.1285
  204loPI   C2B 3262  14.680   0.449   8.536 -0.0193 -0.2569 -0.1178
  204loPI   C3B 3263  14.682   0.377   8.152 -0.0013 -0.1796 -0.2361
  204loPI   C4B 3264  14.687   0.572   7.646 -0.0845 -0.4249 -0.1990
  205loPI    C1 3265   0.961   1.152  10.590  0.1381 -0.0889  0.0999
  205loPI    C2 3266   1.174   1.482  10.661 -0.1494  0.1392 -0.0746
  205loPI    C3 3267   1.166   1.187  10.931 -0.0647  0.3673  0.1816
  205loPI   PO4 3268   1.010   1.255  10.232  0.2466 -0.0013 -0.2510
  205loPI   GL1 3269   1.272   1.406   9.872  0.0408 -0.2351  0.2814
  205loPI   GL2 3270   1.557   1.581   9.792  0.1182 -0.0391 -0.1730
  205loPI   C1A 3271   1.046   1.636   9.541 -0.0806  0.0559 -0.1111
  205loPI   C2A 3272   0.830   1.613   9.232 -0.1867  0.3626 -0.2067
  205loPI   C3A 3273   0.831   1.386   8.833 -0.1300  0.0633 -0.2255
  205loPI   C4A 3274   0.834   1.091   8.477 -0.1544  0.0669 -0.1489
  205loPI   C5A 3275   1.017   1.335   8.120 -0.0846  0.3232 -0.0187
  205loPI   C6A 3276   1.255   1.363   7.633  0.3298  0.1617  0.0762
  205loPI   C1B 3277   1.533   1.553   9.398  0.1759 -0.0508 -0.0178
  205loPI   C2B 3278   1.373   1.786   9.185  0.0362  0.2116 -0.1758
  205loPI   C3B 3279   1.177   1.724   8.811 -0.0539 -0.2215  0.2870
  205loPI   C4B 3280   1.360   1.707   8.400  0.0290  0.0402  0.5732
  206loPI    C1 3281  17.778  10.242   9.629  0.0411  0.1226 -0.1503
  206loPI    C2 3282  17.594  10.499   9.384  0.0003  0.3406  0.1043
  206loPI    C3 3283  17.442  10.425   9.746  0.2756  0.3298  0.2203
  206loPI   PO4 3284  17.828  10.056   9.485  0.1110  0.1991 -0.0594
  206loPI   GL1 3285  17.840   9.904   9.082 -0.2179  0.1690 -0.0240
  206loPI   GL2 3286  17.860   9.577   9.030 -0.3580  0.0727 -0.2773
  206loPI   C1A 3287  18.268  10.128   8.821  0.0140 -0.2392 -0.2009
  206loPI   C2A 3288  18.560  10.240   8.523  0.3148  0.1357 -0.1297
  206loPI   C3A 3289  18.544  10.299   8.122 -0.0085  0.0833 -0.1390
  206loPI   C4A 3290  18.549  10.249   7.607 -0.3259  0.2969  0.1083
  206loPI   C5A 3291  18.802  10.352   7.258 -0.1232  0.0336  0.0551
  206loPI   C6A 3292  18.951  10.574   6.915  0.1095 -0.5077 -0.0819
  206loPI   C1B 3293  17.803   9.699   8.582  0.5146  0.0336 -0.0671
  206loPI   C2B 3294  17.707   9.594   8.204  0.3696 -0.3644 -0.0672
  206loPI   C3B 3295  17.784   9.678   7.802  0.1824 -0.0546 -0.1341
  206loPI   C4B 3296  17.819   9.614   7.325  0.0978 -0.2108  0.0270
  207loPI    C1 3297   0.662   0.523  10.129  0.0161  0.0346  0.0506
  207loPI    C2 3298   0.853   0.710  10.426  0.0505 -0.1825  0.1669
  207loPI    C3 3299   0.482   0.573  10.482 -0.0539  0.0328  0.0153
  207loPI   PO4 3300   0.836   0.636   9.932 -0.0850 -0.3461 -0.1865
  207loPI   GL1 3301   0.749   0.795   9.441  0.1480  0.1117 -0.0779
  207loPI   GL2 3302   0.648   1.138   9.384 -0.1022 -0.0939  0.1566
  207loPI   C1A 3303   0.809   0.754   8.991 -0.3257 -0.1673  0.0384
  207loPI   C2A 3304   1.174   0.796   8.736  0.0062 -0.1159 -0.1571
  207loPI   C3A 3305   1.239   0.862   8.239  0.0128  0.0494 -0.0757
  207loPI   C4A 3306   1.163   0.927   7.839 -0.0933  0.2427 -0.0672
  207loPI   C5A 3307   1.473   0.894   7.547  0.3456 -0.0832  0.1966
  207loPI   C6A 3308   1.961   0.605   7.544 -0.2868  0.4754  0.0561
  207loPI   C1B 3309   0.372   1.267   8.966  0.0287 -0.2214  0.1594
  207loPI   C2B 3310   0.406   1.454   8.549 -0.0061 -0.2343 -0.0607
  207loPI   C3B 3311   0.272   1.444   8.077  0.3513 -0.2675 -0.0315
  207loPI   C4B 3312   0.151   1.884   7.808  0.1671  0.1372  0.0971
  208loPI    C1 3313   4.025   7.635  10.471 -0.1609 -0.2248 -0.0010
  208loPI    C2 3314   4.301   7.364  10.369 -0.1751 -0.1698 -0.1904
  208loPI    C3 3315   4.277   7.493  10.747  0.0341 -0.2019 -0.1650
  208loPI   PO4 3316   4.035   7.930  10.289  0.2861  0.2894 -0.4454
  208loPI   GL1 3317   4.119   8.052   9.804  0.2965  0.2838  0.1125
  208loPI   GL2 3318   4.205   7.813   9.785 -0.0820 -0.0435 -0.2062
  208loPI   C1A 3319   4.114   8.033   9.348  0.4744  0.2094  0.0632
  208loPI   C2A 3320   3.875   7.943   8.934 -0.0539 -0.0822 -0.0588
  208loPI   C3A 3321   3.576   7.607   8.729  0.2581 -0.4720  0.1159
  208loPI   C4A 3322   3.399   7.642   8.308 -0.0661  0.4512  0.5358
  208loPI   C5A 3323   3.574   7.715   7.891 -0.3896 -0.0142  0.1138
  208loPI   C6A 3324   3.701   8.170   7.762 -0.0176 -0.2415 -0.2210
  208loPI   C1B 3325   4.128   7.533   9.432  0.0884 -0.2308  0.1355
  208loPI   C2B 3326   3.970   7.402   8.967  0.3852 -0.1183  0.0563
  208loPI   C3B 3327   3.934   7.372   8.505 -0.0419  0.1282  0.1025
  208loPI   C4B 3328   3.856   7.426   8.169 -0.0576 -0.1686  0.0331
  209loPI    C1 3329   6.828   7.087  10.313 -0.1238 -0.0857  0.1546
  209loPI    C2 3330   7.000   7.409  10.477 -0.0164 -0.0141 -0.0936
  209loPI    C3 3331   7.145   7.044  10.552 -0.0302  0.0096  0.0494
  209loPI   PO4 3332   6.813   7.166  10.001 -0.2031  0.0577 -0.1617
  209loPI   GL1 3333   6.592   7.018   9.684 -0.2444 -0.0361  0.1581
  209loPI   GL2 3334   6.317   7.155   9.684  0.0065 -0.0565  0.0412
  209loPI   C1A 3335   6.437   6.831   9.286  0.1162 -0.3771  0.2199
  209loPI   C2A 3336   6.275   6.805   8.897  0.0749 -0.0498  0.0562
  209loPI   C3A 3337   6.316   6.835   8.469  0.2368 -0.1048 -0.0519
  209loPI   C4A 3338   6.248   6.671   8.009 -0.1603 -0.1187 -0.3651
  209loPI   C5A 3339   6.630   6.477   7.853  0.0118 -0.0055 -0.2164
  209loPI   C6A 3340   6.900   6.317   7.531  0.1907  0.1145  0.4235
  209loPI   C1B 3341   6.062   7.128   9.253 -0.0399 -0.3983 -0.1987
  209loPI   C2B 3342   5.817   7.041   8.878 -0.0096  0.1750 -0.0642
  209loPI   C3B 3343   5.690   7.025   8.564 -0.5284 -0.5679 -0.5542
  209loPI   C4B 3344   5.919   6.966   8.207  0.0116  0.0395 -0.3557
  210loPI    C1 3345  10.967  11.205   9.865 -0.1446  0.0866 -0.0372
  210loPI    C2 3346  11.007  10.809   9.911 -0.1621  0.0963  0.0641
  210loPI    C3 3347  10.848  11.030  10.204  0.0909  0.2160  0.1149
  210loPI   PO4 3348  10.818  11.212   9.678 -0.0965  0.1047 -0.2248
  210loPI   GL1 3349  10.880  11.224   9.335  0.0847 -0.1185  0.2252
  210loPI   GL2 3350  11.050  11.083   9.205 -0.0219  0.1222 -0.0281
  210loPI   C1A 3351  10.837  11.432   8.963  0.0580 -0.4398  0.0132
  210loPI   C2A 3352  10.845  11.244   8.528  0.4015 -0.0453 -0.0367
  210loPI   C3A 3353  10.856  11.308   8.100 -0.5631  0.2429  0.0794
  210loPI   C4A 3354  10.858  11.358   7.629 -0.1566  0.1413 -0.0648
  210loPI   C5A 3355  10.733  11.620   7.370 -0.0473 -0.1186  0.2467
  210loPI   C6A 3356  10.680  11.684   6.853 -0.0968 -0.0629 -0.0165
  210loPI   C1B 3357  10.960  10.872   8.884  0.2301 -0.0538 -0.4341
  210loPI   C2B 3358  11.079  10.783   8.512 -0.1140 -0.0122  0.0191
  210loPI   C3B 3359  11.175  10.516   8.166 -0.1213 -0.1691  0.4188
  210loPI   C4B 3360  11.053  10.407   7.704  0.3567 -0.0782 -0.0917
  211loPI    C1 3361  10.128   7.127   9.498  0.1049  0.1703 -0.1310
  211loPI    C2 3362  10.335   6.817   9.644 -0.1235 -0.0347 -0.2358
  211loPI    C3 3363   9.997   6.934   9.823 -0.0634  0.1247 -0.2249
  211loPI   PO4 3364  10.361   7.295   9.477  0.1585  0.0185  0.2479
  211loPI   GL1 3365  10.604   7.263   9.111 -0.0014 -0.1681 -0.4285
  211loPI   GL2 3366  10.465   7.578   9.073  0.1046  0.1820 -0.2313
  211loPI   C1A 3367  10.648   7.184   8.680 -0.3768 -0.3620  0.0503
  211loPI   C2A 3368  10.922   6.965   8.484 -0.2275  0.0446 -0.3665
  211loPI   C3A 3369  10.888   6.844   8.150  0.0552  0.3498  0.0515
  211loPI   C4A 3370  10.612   6.884   7.793 -0.1340  0.0400 -0.2912
  211loPI   C5A 3371  10.431   6.769   7.370  0.0085 -0.3090 -0.0990
  211loPI   C6A 3372  10.000   6.670   7.226  0.2941 -0.1052 -0.1637
  211loPI   C1B 3373  10.341   7.677   8.725 -0.3837 -0.3549  0.0779
  211loPI   C2B 3374  10.398   7.498   8.395 -0.0437  0.0390 -0.4310
  211loPI   C3B 3375  10.538   7.287   8.065 -0.0469 -0.1475  0.1303
  211loPI   C4B 3376  10.847   7.461   7.728  0.0099  0.0449  0.0175
  212loPI    C1 3377   8.276  18.495   9.640 -0.2918  0.1019 -0.1355
  212loPI    C2 3378   8.403  18.452  10.017  0.0391  0.0828 -0.2461
  212loPI    C3 3379   8.034  18.587   9.945 -0.0978 -0.1036  0.0851
  212loPI   PO4 3380   8.410  18.265   9.478 -0.0699 -0.4744  0.0164
  212loPI   GL1 3381   8.481  18.077   9.096 -0.1206  0.0701  0.2043
  212loPI   GL2 3382   8.808  18.264   9.049  0.1122 -0.0615 -0.1124
  212loPI   C1A 3383   8.517  18.038   8.523  0.1982  0.0095  0.2406
  212loPI   C2A 3384   8.285  18.003   8.120 -0.2567  0.0999 -0.0219
  212loPI   C3A 3385   8.327  18.009   7.619  0.3707  0.0624  0.3297
  212loPI   C4A 3386   8.528  18.037   7.186 -0.0198  0.3924  0.0739
  212loPI   C5A 3387   8.614  18.535   7.054  0.1357 -0.1394  0.2467
  212loPI   C6A 3388   8.620  18.827   7.412  0.0605  0.2163 -0.1304
  212loPI   C1B 3389   8.755  18.568   8.712  0.1483  0.1223 -0.1528
  212loPI   C2B 3390   8.989  18.688   8.397  0.2647  0.0736 -0.1045
  212loPI   C3B 3391   9.252  18.905   8.152  0.0811  0.0189  0.2977
  212loPI   C4B 3392   9.294  19.072   7.650 -0.1731 -0.0841  0.1330
  213loPI    C1 3393  11.722   4.754   9.391 -0.0136  0.3359 -0.0825
  213loPI    C2 3394  12.067   4.567   9.313 -0.2097 -0.1354  0.1406
  213loPI    C3 3395  12.028   4.782   9.648 -0.0971  0.0172  0.0568
  213loPI   PO4 3396  11.523   4.703   9.216  0.2325  0.0154 -0.4471
  213loPI   GL1 3397  11.487   4.622   8.797  0.2381  0.4209  0.1494
  213loPI   GL2 3398  11.800   4.677   8.754  0.0979 -0.5018  0.0957
  213loPI   C1A 3399  11.356   4.630   8.440 -0.0302  0.3027 -0.1764
  213loPI   C2A 3400  11.333   4.702   8.071  0.4131  0.2952 -0.3352
  213loPI   C3A 3401  11.438   4.628   7.625 -0.0138  0.1394  0.0246
  213loPI   C4A 3402  11.105   4.798   7.357 -0.3817  0.0077  0.1342
  213loPI   C5A 3403  10.845   4.935   6.986  0.2247 -0.0142 -0.3073
  213loPI   C6A 3404  10.433   4.858   6.950  0.0405  0.2943 -0.0794
  213loPI   C1B 3405  11.840   4.326   8.424  0.4644 -0.0060 -0.4204
  213loPI   C2B 3406  11.609   4.288   8.097 -0.0687 -0.2278  0.2799
  213loPI   C3B 3407  11.535   3.926   7.819  0.4017  0.5435 -0.1553
  213loPI   C4B 3408  11.833   3.694   7.590 -0.2593 -0.1983  0.3418
  214loPI    C1 3409   7.931  14.184   9.582 -0.2691  0.1124  0.1690
  214loPI    C2 3410   7.945  14.439   9.890 -0.0154  0.3778 -0.0556
  214loPI    C3 3411   8.172  14.504   9.566 -0.0050 -0.0945 -0.1504
  214loPI   PO4 3412   7.656  14.132   9.498 -0.0682 -0.1517 -0.0227
  214loPI   GL1 3413   7.419  14.383   9.123 -0.1037  0.2088  0.3332
  214loPI   GL2 3414   7.122  14.192   8.846  0.1085 -0.4604 -0.0003
  214loPI   C1A 3415   7.470  14.572   8.658 -0.3946  0.0109  0.3020
  214loPI   C2A 3416   7.480  14.597   8.176  0.2091 -0.0437 -0.1269
  214loPI   C3A 3417   7.374  14.417   7.752 -0.1186 -0.4086  0.0267
  214loPI   C4A 3418   7.435  14.579   7.358 -0.0363  0.0437 -0.1750
  214loPI   C5A 3419   7.135  14.557   7.043 -0.1599  0.2837 -0.0512
  214loPI   C6A 3420   6.994  14.831   6.820  0.0424 -0.2731 -0.3030
  214loPI   C1B 3421   7.014  14.386   8.501 -0.1517 -0.3358  0.3942
  214loPI   C2B 3422   6.954  14.472   8.016  0.0653  0.0401  0.0211
  214loPI   C3B 3423   6.738  14.701   7.597 -0.3629  0.1836 -0.2797
  214loPI   C4B 3424   6.934  14.960   7.321  0.1158  0.0888  0.0999
  215loPI    C1 3425  15.013   2.497   9.480 -0.3164 -0.1937  0.1681
  215loPI    C2 3426  14.760   2.567   9.782 -0.4484  0.0951 -0.0045
  215loPI    C3 3427  15.055   2.826   9.703 -0.3515 -0.0309 -0.0613
  215loPI   PO4 3428  14.787   2.538   9.227  0.2752  0.0126 -0.4000
  215loPI   GL1 3429  14.729   2.754   8.831  0.2838 -0.0421 -0.0311
  215loPI   GL2 3430  14.895   2.968   8.826  0.1160 -0.0162 -0.0323
  215loPI   C1A 3431  14.488   2.515   8.550 -0.1310 -0.1043 -0.0427
  215loPI   C2A 3432  14.279   2.580   8.160  0.1064  0.3684  0.2839
  215loPI   C3A 3433  14.177   2.560   7.772 -0.0003  0.2164 -0.3983
  215loPI   C4A 3434  13.997   2.652   7.376  0.1010 -0.2591 -0.2503
  215loPI   C5A 3435  13.529   2.534   7.249 -0.0739 -0.0625  0.3947
  215loPI   C6A 3436  13.319   2.141   7.034  0.0076  0.1290 -0.0948
  215loPI   C1B 3437  14.899   2.857   8.338 -0.1581 -0.0745  0.0180
  215loPI   C2B 3438  14.912   2.890   7.917 -0.1432  0.0841 -0.1117
  215loPI   C3B 3439  14.784   2.785   7.493 -0.2232 -0.0221 -0.0382
  215loPI   C4B 3440  14.560   3.005   7.179 -0.1311  0.1170  0.1111
  216loPI    C1 3441   7.175  11.794   9.655 -0.1134  0.0568 -0.1369
  216loPI    C2 3442   7.510  11.622   9.791 -0.2583 -0.1025  0.0235
  216loPI    C3 3443   7.240  11.767  10.049 -0.1124  0.4249 -0.1082
  216loPI   PO4 3444   7.068  11.651   9.472 -0.2170 -0.0754 -0.0055
  216loPI   GL1 3445   7.183  11.757   9.022  0.3767 -0.0452 -0.1356
  216loPI   GL2 3446   6.896  11.866   9.058 -0.0362 -0.1437  0.0797
  216loPI   C1A 3447   7.168  11.415   8.669  0.0085  0.4091 -0.0112
  216loPI   C2A 3448   7.088  11.422   8.248 -0.2412 -0.0478  0.2703
  216loPI   C3A 3449   7.095  11.127   8.006  0.1556 -0.1632 -0.2837
  216loPI   C4A 3450   6.998  11.021   7.634  0.2758  0.2489  0.1825
  216loPI   C5A 3451   6.641  10.898   7.281  0.0385 -0.0962 -0.1886
  216loPI   C6A 3452   6.400  11.039   7.092 -0.0165  0.0345  0.1371
  216loPI   C1B 3453   7.111  11.885   8.583 -0.0959 -0.0883  0.1513
  216loPI   C2B 3454   7.078  12.057   8.125  0.0193 -0.0456 -0.2381
  216loPI   C3B 3455   6.890  11.783   7.775 -0.1057  0.2992  0.0092
  216loPI   C4B 3456   6.554  11.912   7.537 -0.0795 -0.2849  0.2466
  217loPI    C1 3457   3.854   1.569  10.316 -0.1797 -0.1031  0.1520
  217loPI    C2 3458   3.469   1.678  10.329 -0.1368  0.0333  0.3436
  217loPI    C3 3459   3.735   1.857  10.568  0.0850  0.0920  0.0584
  217loPI   PO4 3460   3.882   1.473  10.116  0.1664  0.1851 -0.0102
  217loPI   GL1 3461   3.853   1.332   9.634  0.5051 -0.1294 -0.3302
  217loPI   GL2 3462   3.520   1.336   9.482 -0.0124 -0.1350 -0.1697
  217loPI   C1A 3463   3.866   1.054   9.231 -0.1523  0.2499  0.3072
  217loPI   C2A 3464   3.786   0.989   8.720 -0.0502 -0.0619  0.1798
  217loPI   C3A 3465   3.729   0.827   8.335  0.1889  0.0085  0.0654
  217loPI   C4A 3466   3.709   0.974   7.926 -0.1246  0.1435  0.0626
  217loPI   C5A 3467   3.910   1.088   7.548  0.0163  0.0616 -0.2514
  217loPI   C6A 3468   4.187   0.869   7.232 -0.3672 -0.2045 -0.2629
  217loPI   C1B 3469   3.637   1.528   9.104  0.0801  0.4957 -0.2151
  217loPI   C2B 3470   3.693   1.722   8.784 -0.0941 -0.0412  0.2623
  217loPI   C3B 3471   3.643   1.879   8.368  0.0440 -0.0988 -0.1564
  217loPI   C4B 3472   3.286   2.052   8.225  0.2351 -0.0672 -0.1317
  218loPI    C1 3473  16.757  11.482   9.577 -0.0278  0.1064  0.1154
  218loPI    C2 3474  16.648  11.209   9.849  0.0599  0.0558  0.0998
  218loPI    C3 3475  16.963  11.446   9.918 -0.0201  0.1578  0.1162
  218loPI   PO4 3476  16.804  11.272   9.321  0.2873 -0.0445 -0.1262
  218loPI   GL1 3477  16.940  11.169   8.907 -0.2444  0.2033  0.0904
  218loPI   GL2 3478  16.807  11.444   8.833 -0.0894  0.1924 -0.1870
  218loPI   C1A 3479  17.206  10.920   8.617  0.2483  0.1912  0.0280
  218loPI   C2A 3480  17.169  10.924   8.185 -0.1893 -0.0966 -0.0626
  218loPI   C3A 3481  17.203  11.058   7.666 -0.2044 -0.3387 -0.0859
  218loPI   C4A 3482  17.027  11.034   7.262  0.1327  0.3818  0.0518
  218loPI   C5A 3483  17.145  11.037   6.901  0.0405  0.0777  0.0685
  218loPI   C6A 3484  17.116  10.812   6.517 -0.1300 -0.1442 -0.0475
  218loPI   C1B 3485  16.660  11.893   8.593 -0.2692 -0.0394  0.1445
  218loPI   C2B 3486  16.547  12.018   8.243 -0.2212 -0.0353 -0.0613
  218loPI   C3B 3487  16.550  11.680   7.978 -0.0520 -0.2404 -0.0432
  218loPI   C4B 3488  16.352  11.270   7.933  0.0526 -0.0420 -0.0955
  219loPI    C1 3489  16.059  12.945   9.831  0.2480 -0.0649 -0.1383
  219loPI    C2 3490  15.718  12.793   9.974  0.1843  0.2231  0.0226
  219loPI    C3 3491  16.063  12.603  10.039  0.0783  0.0258  0.0168
  219loPI   PO4 3492  15.987  12.992   9.551 -0.0885  0.0616 -0.0799
  219loPI   GL1 3493  15.857  13.037   9.123  0.1771  0.1298  0.0649
  219loPI   GL2 3494  16.243  12.860   9.021  0.2171  0.3098 -0.1816
  219loPI   C1A 3495  15.909  13.043   8.629 -0.0089 -0.0760 -0.0730
  219loPI   C2A 3496  15.840  13.076   8.221  0.0468 -0.0705  0.0934
  219loPI   C3A 3497  15.938  13.063   7.755 -0.0198  0.0621 -0.0199
  219loPI   C4A 3498  16.312  13.090   7.468 -0.1935 -0.0766  0.0605
  219loPI   C5A 3499  16.634  13.365   7.190 -0.0025 -0.1687  0.1455
  219loPI   C6A 3500  16.905  13.263   6.906 -0.0745  0.0541  0.0488
  219loPI   C1B 3501  16.394  12.735   8.675  0.0952 -0.1862  0.3051
  219loPI   C2B 3502  16.354  12.569   8.283  0.2558 -0.1092  0.2646
  219loPI   C3B 3503  16.144  12.310   8.025  0.0140 -0.1211 -0.3816
  219loPI   C4B 3504  16.377  12.091   7.733 -0.2530  0.0733  0.0528
  220loPI    C1 3505  14.114   4.295  10.023  0.2223 -0.0760 -0.0846
  220loPI    C2 3506  13.997   3.941  10.170 -0.1441 -0.1769 -0.5910
  220loPI    C3 3507  13.918   4.278  10.372 -0.1161 -0.3520 -0.2813
  220loPI   PO4 3508  14.090   4.252   9.784  0.0784  0.0034 -0.1420
  220loPI   GL1 3509  13.940   4.432   9.378  0.1984 -0.2286 -0.2743
  220loPI   GL2 3510  13.686   4.496   9.117  0.3238  0.1633  0.1253
  220loPI   C1A 3511  14.237   4.291   9.106 -0.1131 -0.0251  0.2549
  220loPI   C2A 3512  14.278   4.377   8.678  0.0466  0.1382 -0.2964
  220loPI   C3A 3513  14.211   4.446   8.230  0.1980  0.0566  0.2278
  220loPI   C4A 3514  14.085   4.414   7.831 -0.1737 -0.2648 -0.1278
  220loPI   C5A 3515  13.835   4.593   7.519  0.0397  0.2139 -0.1971
  220loPI   C6A 3516  13.479   4.392   7.334  0.1190 -0.2297  0.0681
  220loPI   C1B 3517  13.611   4.752   8.703 -0.0638 -0.1624 -0.1700
  220loPI   C2B 3518  14.026   4.857   8.417  0.0976 -0.1098 -0.0921
  220loPI   C3B 3519  14.358   4.858   8.038 -0.0638  0.0842  0.2984
  220loPI   C4B 3520  14.603   5.157   7.800 -0.2315 -0.3792  0.0966
  221loPI    C1 3521   5.803  16.965   9.918  0.0134 -0.0292 -0.1968
  221loPI    C2 3522   5.639  16.606   9.856  0.2213 -0.1614  0.0036
  221loPI    C3 3523   5.990  16.635  10.046 -0.0317  0.1783  0.4388
  221loPI   PO4 3524   5.848  17.099   9.696 -0.5073 -0.3090  0.1221
  221loPI   GL1 3525   5.866  17.133   9.270 -0.0125 -0.0857 -0.2728
  221loPI   GL2 3526   5.654  17.228   9.119  0.2191  0.1743  0.1574
  221loPI   C1A 3527   5.896  16.861   8.909 -0.1162 -0.2536  0.4385
  221loPI   C2A 3528   5.915  16.860   8.454 -0.2119  0.2773 -0.0761
  221loPI   C3A 3529   5.906  16.813   8.103  0.0642  0.0178  0.0302
  221loPI   C4A 3530   5.792  16.899   7.725  0.2147 -0.1115  0.3162
  221loPI   C5A 3531   5.647  17.012   7.400  0.1505  0.0681 -0.1049
  221loPI   C6A 3532   5.549  17.373   7.113  0.1557 -0.1532  0.0905
  221loPI   C1B 3533   5.898  17.368   8.808  0.3759  0.2069 -0.0515
  221loPI   C2B 3534   5.762  17.359   8.385 -0.0273  0.1295  0.0846
  221loPI   C3B 3535   5.513  17.261   7.919  0.1315 -0.4833  0.1920
  221loPI   C4B 3536   5.323  17.484   7.581  0.0725  0.3314 -0.0302
  222loPI    C1 3537  10.176  11.961   9.781 -0.2351  0.0497 -0.1089
  222loPI    C2 3538  10.340  12.027  10.140 -0.2313 -0.0332 -0.0952
  222loPI    C3 3539  10.057  12.273  10.001 -0.0717  0.1304 -0.1339
  222loPI   PO4 3540  10.373  12.059   9.621 -0.2295 -0.0041  0.0013
  222loPI   GL1 3541  10.272  11.999   9.250 -0.1622  0.1713 -0.1396
  222loPI   GL2 3542  10.583  11.784   9.197 -0.3440 -0.3207 -0.1178
  222loPI   C1A 3543  10.173  12.170   8.791 -0.2264  0.1543 -0.0473
  222loPI   C2A 3544  10.184  11.911   8.611  0.4050 -0.0213  0.1367
  222loPI   C3A 3545  10.395  11.934   8.214  0.2690 -0.0733  0.2219
  222loPI   C4A 3546  10.332  11.813   7.798  0.0175  0.1333 -0.3177
  222loPI   C5A 3547  10.388  11.962   7.408 -0.2472 -0.1153  0.0662
  222loPI   C6A 3548  10.734  12.078   7.144  0.1998  0.3198  0.1058
  222loPI   C1B 3549  10.670  11.861   8.699 -0.1947  0.1125 -0.0692
  222loPI   C2B 3550  10.952  11.733   8.406 -0.0179 -0.0192 -0.1027
  222loPI   C3B 3551  10.923  11.750   7.948 -0.2715 -0.0991  0.1225
  222loPI   C4B 3552  10.794  12.106   7.747  0.1317  0.1041  0.3404
  223loPI    C1 3553   6.119  18.742  10.007  0.0295 -0.0047  0.0438
  223loPI    C2 3554   6.109  18.862  10.388  0.1047 -0.1520  0.0930
  223loPI    C3 3555   5.890  18.549  10.271 -0.1846  0.1028 -0.0610
  223loPI   PO4 3556   6.334  18.724   9.953  0.0781 -0.1255 -0.0818
  223loPI   GL1 3557   6.481  18.811   9.499  0.1273 -0.0831 -0.0044
  223loPI   GL2 3558   6.379  19.035   9.303  0.2058 -0.0042 -0.0551
  223loPI   C1A 3559   6.432  18.479   9.230 -0.2350 -0.0733  0.1207
  223loPI   C2A 3560   6.464  18.268   8.848 -0.1119  0.3545  0.3567
  223loPI   C3A 3561   6.256  18.117   8.492 -0.0587 -0.4242  0.0760
  223loPI   C4A 3562   6.469  18.187   8.087 -0.2498 -0.0550  0.0302
  223loPI   C5A 3563   6.758  18.148   7.785  0.2561 -0.2018  0.1108
  223loPI   C6A 3564   7.019  17.755   7.601  0.0277  0.2497  0.2941
  223loPI   C1B 3565   6.313  19.110   8.811  0.4782 -0.1695  0.0817
  223loPI   C2B 3566   6.229  19.098   8.347 -0.4256 -0.3339  0.2986
  223loPI   C3B 3567   6.187  18.935   7.945 -0.1092  0.1035 -0.0379
  223loPI   C4B 3568   6.172  18.429   7.769  0.2258  0.1588  0.0307
  224loPI    C1 3569   4.961   3.982  10.638  0.1095  0.0251  0.3560
  224loPI    C2 3570   5.137   3.713  10.876  0.0211 -0.3240  0.0360
  224loPI    C3 3571   4.747   3.682  10.795 -0.0115 -0.0383  0.0754
  224loPI   PO4 3572   5.107   4.068  10.425 -0.1159  0.0479  0.2326
  224loPI   GL1 3573   5.144   3.990   9.933  0.1596 -0.0367 -0.3781
  224loPI   GL2 3574   5.143   3.667   9.962  0.2876 -0.0214  0.0572
  224loPI   C1A 3575   5.595   4.044   9.733 -0.0264 -0.3263  0.0181
  224loPI   C2A 3576   5.531   4.033   9.290 -0.2144 -0.0102  0.1278
  224loPI   C3A 3577   5.475   3.958   8.892  0.2785 -0.2099  0.2518
  224loPI   C4A 3578   5.435   4.148   8.514  0.0428  0.0040 -0.3612
  224loPI   C5A 3579   5.400   4.115   8.123 -0.1433 -0.3459  0.3104
  224loPI   C6A 3580   5.453   4.138   7.655  0.0370  0.0310  0.0651
  224loPI   C1B 3581   5.284   3.633   9.494 -0.1100 -0.0116  0.0139
  224loPI   C2B 3582   5.383   3.561   9.147 -0.3407 -0.0599 -0.0302
  224loPI   C3B 3583   5.276   3.500   8.732  0.0475  0.2557 -0.1298
  224loPI   C4B 3584   5.383   3.584   8.373 -0.1914  0.1297 -0.2561
  225loPI    C1 3585   2.263  13.163   9.619  0.1405 -0.1064 -0.1899
  225loPI    C2 3586   2.445  13.484   9.773  0.0172 -0.0400 -0.1809
  225loPI    C3 3587   2.066  13.403   9.871  0.0403 -0.1756 -0.2017
  225loPI   PO4 3588   2.263  13.172   9.343  0.0124  0.3858 -0.2830
  225loPI   GL1 3589   2.075  13.089   8.994 -0.2696 -0.1040 -0.2239
  225loPI   GL2 3590   2.271  13.326   8.872  0.0135  0.3934  0.2683
  225loPI   C1A 3591   2.006  13.028   8.587 -0.0177  0.0452 -0.1199
  225loPI   C2A 3592   1.845  12.953   8.188 -0.0553  0.4296 -0.1721
  225loPI   C3A 3593   1.639  12.698   7.974  0.1258 -0.1064 -0.0693
  225loPI   C4A 3594   1.680  12.706   7.502 -0.1300  0.0893  0.0740
  225loPI   C5A 3595   1.746  12.528   7.177  0.1710 -0.1216  0.3629
  225loPI   C6A 3596   1.777  12.725   6.807  0.3545 -0.0720  0.2401
  225loPI   C1B 3597   2.412  13.377   8.546  0.0103 -0.0037 -0.0484
  225loPI   C2B 3598   2.889  13.389   8.384  0.2488 -0.0682 -0.0603
  225loPI   C3B 3599   3.089  13.417   8.078  0.0614  0.0262  0.1482
  225loPI   C4B 3600   3.363  13.532   7.758 -0.0963  0.3207  0.2103
  226loPI    C1 3601   9.302  10.251   9.699  0.1149  0.1621  0.1036
  226loPI    C2 3602   9.127  10.023   9.977 -0.1374  0.0433 -0.1479
  226loPI    C3 3603   9.009  10.402   9.925 -0.0028  0.1054 -0.0101
  226loPI   PO4 3604   9.246  10.107   9.402  0.1523 -0.0768 -0.2398
  226loPI   GL1 3605   8.855  10.103   9.084  0.3380 -0.1194  0.0973
  226loPI   GL2 3606   8.621  10.069   9.137  0.2171  0.0324  0.1666
  226loPI   C1A 3607   8.689  10.016   8.605  0.3100  0.2887  0.1279
  226loPI   C2A 3608   8.638  10.070   8.203 -0.0874 -0.1147 -0.0054
  226loPI   C3A 3609   8.758   9.839   7.907 -0.2184  0.1059  0.0000
  226loPI   C4A 3610   8.539   9.564   7.666 -0.0035 -0.0712  0.1661
  226loPI   C5A 3611   8.705   9.356   7.225 -0.1564 -0.0327  0.0329
  226loPI   C6A 3612   8.589   9.321   6.882 -0.1447  0.0291  0.5010
  226loPI   C1B 3613   8.569   9.623   9.025  0.0302  0.2390 -0.1572
  226loPI   C2B 3614   8.634   9.472   8.623  0.0334 -0.3528 -0.3505
  226loPI   C3B 3615   8.543   9.334   8.264  0.0126  0.1039 -0.2893
  226loPI   C4B 3616   8.572   9.106   7.942  0.1198  0.0551  0.4059
  227loPI    C1 3617  16.047   3.164   9.992  0.0056 -0.0498  0.1651
  227loPI    C2 3618  16.120   3.556   9.957  0.0990 -0.0900 -0.1188
  227loPI    C3 3619  16.119   3.384  10.318  0.4781  0.0920 -0.0266
  227loPI   PO4 3620  15.972   3.083   9.691  0.2592  0.1044 -0.2909
  227loPI   GL1 3621  16.131   3.175   9.270 -0.1205  0.3475 -0.0790
  227loPI   GL2 3622  16.052   3.555   9.313  0.1639  0.2979  0.3165
  227loPI   C1A 3623  16.353   3.278   8.810  0.3347  0.0342  0.1972
  227loPI   C2A 3624  16.404   3.179   8.342  0.3161 -0.1651  0.0478
  227loPI   C3A 3625  16.217   3.185   7.946 -0.2150  0.1120 -0.0251
  227loPI   C4A 3626  16.108   3.351   7.584  0.1478  0.0566  0.0823
  227loPI   C5A 3627  15.654   3.377   7.393  0.1848  0.2750  0.0015
  227loPI   C6A 3628  15.315   3.502   7.136 -0.0351 -0.0638  0.0581
  227loPI   C1B 3629  16.102   3.762   9.019 -0.3344 -0.2958  0.2812
  227loPI   C2B 3630  16.269   3.785   8.630  0.1324  0.1743  0.0967
  227loPI   C3B 3631  16.245   3.700   8.265  0.0406  0.0795 -0.1507
  227loPI   C4B 3632  16.383   3.688   7.811  0.0059  0.0079 -0.3405
  228loPI    C1 3633   8.874   1.008   9.728 -0.0817 -0.1041  0.0929
  228loPI    C2 3634   9.181   1.072   9.977 -0.0843  0.0617  0.0541
  228loPI    C3 3635   8.894   0.812  10.076  0.0210 -0.0255  0.1319
  228loPI   PO4 3636   8.695   1.319   9.638 -0.0198  0.3059  0.0411
  228loPI   GL1 3637   8.484   1.593   9.389  0.2936  0.0333 -0.2925
  228loPI   GL2 3638   8.708   1.812   9.422 -0.2468 -0.0276  0.2426
  228loPI   C1A 3639   8.511   1.612   8.977 -0.1529  0.1553 -0.0036
  228loPI   C2A 3640   8.825   1.424   8.603  0.1548 -0.0770  0.1567
  228loPI   C3A 3641   8.869   1.237   8.249  0.0907  0.1232 -0.1509
  228loPI   C4A 3642   9.031   1.258   7.719 -0.0513  0.1458 -0.0837
  228loPI   C5A 3643   9.465   1.285   7.479  0.1285 -0.1020 -0.0142
  228loPI   C6A 3644   9.741   1.504   7.293  0.1125 -0.3242 -0.0969
  228loPI   C1B 3645   9.083   1.732   9.139  0.1153 -0.0038  0.1628
  228loPI   C2B 3646   9.245   1.711   8.769  0.2696 -0.3301  0.0134
  228loPI   C3B 3647   9.267   1.505   8.323  0.0443 -0.2242  0.3682
  228loPI   C4B 3648   9.172   1.681   7.937 -0.1741 -0.1788 -0.1008
  229loPI    C1 3649  15.897  13.815   9.899 -0.1117 -0.1320 -0.0593
  229loPI    C2 3650  15.674  14.127   9.784  0.0077 -0.0206  0.0086
  229loPI    C3 3651  15.667  14.005  10.165  0.3420  0.2184  0.0958
  229loPI   PO4 3652  15.906  13.744   9.708 -0.2899  0.0086 -0.1273
  229loPI   GL1 3653  15.930  13.926   9.366  0.0863 -0.3145 -0.1419
  229loPI   GL2 3654  15.934  13.585   9.242 -0.2628  0.0237 -0.5835
  229loPI   C1A 3655  15.853  14.000   8.991 -0.0067 -0.1445 -0.2845
  229loPI   C2A 3656  15.945  14.046   8.549 -0.2854  0.1061  0.0953
  229loPI   C3A 3657  15.979  14.021   8.175  0.1144 -0.1345  0.3982
  229loPI   C4A 3658  16.207  14.040   7.727 -0.3091 -0.1058  0.0913
  229loPI   C5A 3659  16.420  14.298   7.521  0.0405  0.1615  0.0475
  229loPI   C6A 3660  16.718  14.323   7.212 -0.4400 -0.3373  0.0692
  229loPI   C1B 3661  15.928  13.513   8.833 -0.0922  0.0863 -0.2937
  229loPI   C2B 3662  15.981  13.561   8.360 -0.0674  0.0373  0.4971
  229loPI   C3B 3663  16.018  13.521   7.915 -0.0588  0.1727 -0.3088
  229loPI   C4B 3664  16.277  13.498   7.670 -0.3045 -0.2598  0.2711
  230loPI    C1 3665   8.856  18.008   9.547  0.2100 -0.4130 -0.0005
  230loPI    C2 3666   9.167  17.944   9.790  0.0610  0.0396  0.3223
  230loPI    C3 3667   8.795  17.865   9.916 -0.0085  0.1625  0.1975
  230loPI   PO4 3668   8.978  17.914   9.321  0.2044  0.1807  0.0410
  230loPI   GL1 3669   9.154  17.737   8.885 -0.0891 -0.3769  0.1597
  230loPI   GL2 3670   8.896  17.853   8.767  0.0330 -0.0452 -0.0581
  230loPI   C1A 3671   9.196  17.308   8.746 -0.2503 -0.1129  0.1212
  230loPI   C2A 3672   9.302  17.297   8.302  0.0064  0.3182  0.1418
  230loPI   C3A 3673   9.281  17.410   7.953  0.2454  0.0041 -0.1236
  230loPI   C4A 3674   9.518  17.348   7.625 -0.3549 -0.2830 -0.6258
  230loPI   C5A 3675   9.764  17.508   7.414 -0.2467  0.1334  0.0954
  230loPI   C6A 3676   9.885  17.701   6.993  0.0070 -0.2809  0.0753
  230loPI   C1B 3677   8.995  17.728   8.347  0.1092 -0.2781  0.0481
  230loPI   C2B 3678   8.968  17.798   7.943 -0.2387 -0.0985  0.1461
  230loPI   C3B 3679   8.706  17.630   7.611  0.0036 -0.0643 -0.2491
  230loPI   C4B 3680   8.416  17.510   7.446  0.2967  0.0551  0.1349
  231loPI    C1 3681  11.132   9.419   9.947  0.2217 -0.1735  0.0708
  231loPI    C2 3682  11.176   9.781   9.781 -0.3068  0.0160  0.3243
  231loPI    C3 3683  11.498   9.571   9.891  0.0161  0.2815 -0.0874
  231loPI   PO4 3684  10.943   9.312   9.811 -0.0666  0.1894  0.2049
  231loPI   GL1 3685  10.849   9.415   9.376 -0.1036 -0.2503  0.0113
  231loPI   GL2 3686  11.030   9.640   9.327  0.0590 -0.0248 -0.0802
  231loPI   C1A 3687  10.760   9.393   8.926 -0.1969  0.2687 -0.0297
  231loPI   C2A 3688  10.723   9.390   8.436  0.4007 -0.1094  0.1905
  231loPI   C3A 3689  10.545   9.397   8.060 -0.3128 -0.1592 -0.2544
  231loPI   C4A 3690  10.850   9.253   7.707 -0.0663 -0.0914  0.0561
  231loPI   C5A 3691  11.082   9.186   7.325 -0.3505  0.0910 -0.1157
  231loPI   C6A 3692  11.134   9.546   7.064  0.0937 -0.1252 -0.0230
  231loPI   C1B 3693  10.987   9.929   8.980 -0.1735  0.0639  0.1361
  231loPI   C2B 3694  11.045   9.784   8.562 -0.1910 -0.1221  0.2791
  231loPI   C3B 3695  11.111   9.543   8.124 -0.4385 -0.2002  0.0335
  231loPI   C4B 3696  11.280   9.498   7.649  0.0320 -0.1154 -0.1936
  232loPI    C1 3697  11.050   5.306   9.841  0.0235  0.0396 -0.2342
  232loPI    C2 3698  10.945   5.673   9.961  0.3536  0.0043  0.1874
  232loPI    C3 3699  10.985   5.379  10.229 -0.1803 -0.4191 -0.1769
  232loPI   PO4 3700  10.857   5.324   9.533 -0.0936 -0.1300 -0.0803
  232loPI   GL1 3701  10.945   5.465   9.139  0.1812 -0.3299  0.2953
  232loPI   GL2 3702  10.601   5.564   9.212 -0.1623 -0.3464  0.0455
  232loPI   C1A 3703  10.811   5.384   8.713  0.1560  0.0311 -0.0952
  232loPI   C2A 3704  10.723   5.292   8.286  0.1014 -0.0605 -0.2814
  232loPI   C3A 3705  10.672   5.225   7.899 -0.3001 -0.2790 -0.0893
  232loPI   C4A 3706  10.609   4.995   7.456  0.0281 -0.1143 -0.3114
  232loPI   C5A 3707  10.394   5.251   7.274  0.2831  0.1379  0.0054
  232loPI   C6A 3708  10.271   5.684   7.054  0.0070  0.2516 -0.5232
  232loPI   C1B 3709  10.418   5.638   8.772 -0.0224  0.1653  0.0584
  232loPI   C2B 3710  10.290   5.723   8.296 -0.1036 -0.1374  0.2461
  232loPI   C3B 3711  10.078   5.720   7.899  0.2181  0.1393 -0.2161
  232loPI   C4B 3712   9.922   5.763   7.534  0.3148 -0.5355  0.3352
  233loPI    C1 3713   7.042  16.237   9.632 -0.2588  0.0200 -0.0289
  233loPI    C2 3714   6.761  15.958   9.691  0.0459 -0.3083 -0.0961
  233loPI    C3 3715   7.052  16.009   9.961 -0.0488 -0.0006 -0.0484
  233loPI   PO4 3716   6.993  16.225   9.326 -0.0016  0.2315 -0.0883
  233loPI   GL1 3717   7.060  15.931   8.942 -0.0787 -0.1599 -0.1726
  233loPI   GL2 3718   6.892  16.011   8.783 -0.2614 -0.1621  0.1244
  233loPI   C1A 3719   7.298  15.933   8.495 -0.3582  0.0007  0.1632
  233loPI   C2A 3720   7.432  15.939   8.105 -0.1328 -0.0866 -0.2990
  233loPI   C3A 3721   7.409  16.024   7.740 -0.0863 -0.1191  0.1353
  233loPI   C4A 3722   7.289  16.117   7.326 -0.1900 -0.1095  0.2155
  233loPI   C5A 3723   7.177  15.728   7.053  0.1194  0.0782 -0.0054
  233loPI   C6A 3724   7.122  15.310   6.573  0.1432  0.0499  0.1728
  233loPI   C1B 3725   6.927  16.258   8.413  0.1566  0.3416  0.0008
  233loPI   C2B 3726   6.788  16.260   7.935 -0.0054  0.2709 -0.0655
  233loPI   C3B 3727   6.872  16.230   7.531 -0.0852 -0.0103  0.0203
  233loPI   C4B 3728   6.801  16.162   7.080 -0.1047 -0.1863  0.0305
  234loPI    C1 3729  18.988  10.310   9.718  0.2293  0.1558  0.0729
  234loPI    C2 3730  19.334  10.485   9.815  0.1863  0.1041  0.3246
  234loPI    C3 3731  19.033  10.479  10.078  0.0512  0.0023  0.1685
  234loPI   PO4 3732  18.889  10.419   9.521  0.1747 -0.0366  0.1733
  234loPI   GL1 3733  19.013  10.670   9.266 -0.0226 -0.3014 -0.5867
  234loPI   GL2 3734  18.900  10.973   9.233 -0.1533 -0.1911 -0.1497
  234loPI   C1A 3735  18.898  10.402   8.878  0.0564  0.0151  0.3190
  234loPI   C2A 3736  19.074  10.209   8.568 -0.2876 -0.0045 -0.1048
  234loPI   C3A 3737  19.121  10.286   8.138 -0.0194  0.1530  0.2396
  234loPI   C4A 3738  19.211  10.373   7.591  0.2136  0.0572  0.0136
  234loPI   C5A 3739  19.296  10.762   7.358 -0.2615  0.2351 -0.3572
  234loPI   C6A 3740  19.399  10.830   6.986  0.1051 -0.1166 -0.0535
  234loPI   C1B 3741  18.618  10.947   8.810 -0.0664 -0.0333 -0.0622
  234loPI   C2B 3742  18.756  10.737   8.443  0.0764  0.0559  0.2939
  234loPI   C3B 3743  18.925  10.818   7.980  0.0832  0.2046 -0.1986
  234loPI   C4B 3744  18.806  10.725   7.603 -0.0906  0.0793 -0.0717
  235loPI    C1 3745  17.076   0.823  10.086 -0.0201 -0.0151  0.1492
  235loPI    C2 3746  17.366   0.548  10.070 -0.0411 -0.0462  0.2862
  235loPI    C3 3747  17.033   0.475  10.279 -0.3052 -0.1562 -0.1604
  235loPI   PO4 3748  17.087   0.925   9.818 -0.1482  0.3894  0.0652
  235loPI   GL1 3749  17.012   0.910   9.431 -0.0812 -0.5062  0.1245
  235loPI   GL2 3750  16.812   0.754   9.298  0.1077  0.0349 -0.2060
  235loPI   C1A 3751  17.075   1.018   8.984  0.2190  0.1255 -0.1767
  235loPI   C2A 3752  17.088   1.088   8.576 -0.0377  0.0212 -0.0541
  235loPI   C3A 3753  16.996   0.778   8.233 -0.2243  0.3969  0.1860
  235loPI   C4A 3754  17.039   0.509   7.841  0.4104  0.2615  0.2425
  235loPI   C5A 3755  16.809   0.205   7.567  0.1428 -0.1803  0.2001
  235loPI   C6A 3756  17.089   0.100   7.163 -0.0303 -0.4544  0.0888
  235loPI   C1B 3757  16.616   0.813   8.974  0.5089 -0.4078 -0.1499
  235loPI   C2B 3758  16.624   1.062   8.492 -0.0749 -0.3351  0.1756
  235loPI   C3B 3759  16.602   1.089   8.067  0.0957 -0.1851  0.0301
  235loPI   C4B 3760  16.876   0.963   7.758 -0.0550 -0.1322 -0.1279
  236loPI    C1 3761  14.710  13.999   9.545 -0.0493 -0.1448  0.0397
  236loPI    C2 3762  14.736  13.786   9.882 -0.3773 -0.5036 -0.1544
  236loPI    C3 3763  14.400  13.984   9.797 -0.1766 -0.1369 -0.1154
  236loPI   PO4 3764  14.847  13.894   9.369 -0.1591  0.0342  0.0302
  236loPI   GL1 3765  15.156  13.777   9.045  0.1930  0.0171  0.0643
  236loPI   GL2 3766  15.473  13.713   9.043  0.0456 -0.0104 -0.3910
  236loPI   C1A 3767  14.987  13.930   8.704 -0.1324 -0.1786 -0.0269
  236loPI   C2A 3768  15.048  13.952   8.316 -0.1629  0.0375  0.0854
  236loPI   C3A 3769  15.080  13.884   7.938  0.3045 -0.0621  0.0291
  236loPI   C4A 3770  15.185  13.815   7.582  0.1380 -0.0617 -0.1789
  236loPI   C5A 3771  14.929  13.756   7.347  0.4183 -0.0813  0.0185
  236loPI   C6A 3772  14.795  13.961   7.058  0.0648  0.0101  0.0764
  236loPI   C1B 3773  15.487  13.861   8.620  0.3189  0.1881 -0.1879
  236loPI   C2B 3774  15.502  13.842   8.294  0.0472 -0.0840  0.1525
  236loPI   C3B 3775  15.590  13.997   7.859 -0.0818 -0.2077  0.2063
  236loPI   C4B 3776  15.741  13.990   7.454 -0.2576  0.0964 -0.0327
  237loPI    C1 3777   2.979  11.882   9.611  0.2528  0.0216 -0.1475
  237loPI    C2 3778   2.867  11.843   9.993 -0.1862 -0.1002 -0.2830
  237loPI    C3 3779   3.218  11.695   9.871  0.0096  0.0410  0.0947
  237loPI   PO4 3780   2.723  11.831   9.505  0.1637 -0.1103 -0.3863
  237loPI   GL1 3781   2.606  11.910   9.114  0.1825  0.0046 -0.0106
  237loPI   GL2 3782   2.625  12.252   8.948 -0.1564 -0.0971 -0.2069
  237loPI   C1A 3783   2.829  11.874   8.723 -0.1750 -0.0386  0.4442
  237loPI   C2A 3784   2.810  11.795   8.234 -0.2124  0.1385 -0.1441
  237loPI   C3A 3785   2.629  11.740   7.810  0.1106  0.3255 -0.3916
  237loPI   C4A 3786   2.307  11.487   7.541  0.1680  0.0791  0.0957
  237loPI   C5A 3787   1.997  11.575   7.245  0.1988  0.0064  0.0434
  237loPI   C6A 3788   1.948  11.685   6.819 -0.1330  0.1484  0.2954
  237loPI   C1B 3789   2.664  12.319   8.413  0.1615 -0.2433  0.0385
  237loPI   C2B 3790   2.623  12.411   8.033  0.5734 -0.2331  0.2247
  237loPI   C3B 3791   2.537  12.413   7.737 -0.1585  0.0172  0.2362
  237loPI   C4B 3792   2.270  12.474   7.392 -0.0484  0.0538  0.1642
  238loPI    C1 3793  17.320   1.890  10.056 -0.0169  0.0154 -0.3525
  238loPI    C2 3794  17.383   1.556  10.268 -0.2445  0.0803 -0.1787
  238loPI    C3 3795  17.204   1.871  10.439  0.1105  0.3515 -0.2941
  238loPI   PO4 3796  17.306   1.840   9.788 -0.2841  0.4355  0.0364
  238loPI   GL1 3797  17.625   1.926   9.398  0.0660  0.1898  0.0369
  238loPI   GL2 3798  17.904   2.118   9.424  0.1056 -0.0979  0.0457
  238loPI   C1A 3799  17.637   1.921   8.986  0.2262  0.0325 -0.2477
  238loPI   C2A 3800  17.710   1.858   8.531 -0.3785  0.2518  0.4294
  238loPI   C3A 3801  17.544   1.985   8.162  0.0095 -0.0755 -0.3601
  238loPI   C4A 3802  17.626   2.105   7.845 -0.2794  0.0574 -0.0081
  238loPI   C5A 3803  17.841   2.475   7.672 -0.1099 -0.2343  0.1651
  238loPI   C6A 3804  18.176   2.705   7.633 -0.2739  0.3208 -0.2227
  238loPI   C1B 3805  18.148   2.055   9.071 -0.1240  0.1213 -0.0734
  238loPI   C2B 3806  18.293   2.029   8.618  0.4015 -0.2679  0.2217
  238loPI   C3B 3807  18.181   1.848   8.271 -0.2740  0.1934  0.1801
  238loPI   C4B 3808  17.969   1.644   8.043  0.1184 -0.2436  0.1762
  239loPI    C1 3809  11.904   3.216   9.644  0.0471  0.0233  0.0685
  239loPI    C2 3810  12.259   3.391   9.585  0.2037 -0.2656  0.1350
  239loPI    C3 3811  12.187   3.193   9.925 -0.0169 -0.2226  0.1150
  239loPI   PO4 3812  11.827   3.118   9.458 -0.3063 -0.2828 -0.1755
  239loPI   GL1 3813  12.127   2.856   9.187 -0.2307  0.2131 -0.0495
  239loPI   GL2 3814  12.358   2.970   9.326 -0.0651  0.2139 -0.0375
  239loPI   C1A 3815  12.138   2.970   8.760  0.0982 -0.1535 -0.0491
  239loPI   C2A 3816  12.425   3.164   8.377  0.0465  0.0690  0.1052
  239loPI   C3A 3817  12.442   3.198   7.969 -0.2776  0.3757  0.1706
  239loPI   C4A 3818  12.457   3.305   7.500  0.2629  0.0630 -0.1671
  239loPI   C5A 3819  12.841   3.202   7.252  0.0454 -0.1523 -0.1793
  239loPI   C6A 3820  13.127   2.890   6.914  0.1401  0.2258  0.0754
  239loPI   C1B 3821  12.584   3.105   8.919  0.1822  0.0245  0.3090
  239loPI   C2B 3822  12.847   3.205   8.537 -0.2413  0.0335  0.5143
  239loPI   C3B 3823  13.153   3.323   8.291 -0.1836  0.1673 -0.0754
  239loPI   C4B 3824  13.416   3.287   7.941  0.3224  0.0560  0.1534
  240loPI    C1 3825   4.694   9.319  10.013  0.2334  0.0656  0.1771
  240loPI    C2 3826   4.450   9.400   9.706  0.0586 -0.0335  0.2877
  240loPI    C3 3827   4.836   9.505   9.689  0.0527 -0.0474  0.0308
  240loPI   PO4 3828   4.613   9.047  10.051 -0.1122 -0.1426  0.1454
  240loPI   GL1 3829   4.830   9.010   9.603  0.1434  0.2654  0.0995
  240loPI   GL2 3830   4.491   8.884   9.532  0.1200 -0.0242  0.0346
  240loPI   C1A 3831   4.849   9.150   9.216  0.2449  0.2632  0.2469
  240loPI   C2A 3832   4.867   9.155   8.792  0.1176  0.6421 -0.0244
  240loPI   C3A 3833   4.745   9.236   8.430 -0.0456  0.6051  0.0360
  240loPI   C4A 3834   4.559   9.332   8.113  0.0953 -0.0756 -0.0687
  240loPI   C5A 3835   4.566   9.151   7.732 -0.0409  0.0072  0.1460
  240loPI   C6A 3836   4.623   8.866   7.419 -0.1351 -0.1592  0.3184
  240loPI   C1B 3837   4.389   8.836   9.120  0.1177 -0.0864  0.1497
  240loPI   C2B 3838   4.280   8.686   8.774  0.0970  0.5043  0.1114
  240loPI   C3B 3839   3.999   8.733   8.445 -0.2347  0.1190  0.2278
  240loPI   C4B 3840   3.811   8.480   8.087  0.1759  0.2681  0.0207
  241loPI    C1 3841   8.612  15.342   9.747  0.0486 -0.0611  0.2531
  241loPI    C2 3842   8.351  15.645   9.760  0.2277  0.1073  0.0078
  241loPI    C3 3843   8.246  15.284   9.897 -0.1273  0.1768 -0.0714
  241loPI   PO4 3844   8.653  15.364   9.490 -0.0336  0.0184 -0.2321
  241loPI   GL1 3845   8.614  15.496   9.162  0.3307 -0.0379 -0.0277
  241loPI   GL2 3846   8.780  15.213   8.985 -0.3221  0.0648  0.0167
  241loPI   C1A 3847   8.326  15.558   8.929  0.0010  0.2172  0.1558
  241loPI   C2A 3848   8.371  15.670   8.537  0.1966 -0.0204  0.0594
  241loPI   C3A 3849   8.387  15.770   8.085  0.0550  0.0957  0.0847
  241loPI   C4A 3850   8.262  15.751   7.657  0.0057 -0.0698 -0.1971
  241loPI   C5A 3851   7.973  15.775   7.346 -0.4463 -0.3592 -0.2034
  241loPI   C6A 3852   7.668  15.759   7.235 -0.0861  0.1471  0.0216
  241loPI   C1B 3853   8.647  15.278   8.535  0.1703 -0.1259  0.1837
  241loPI   C2B 3854   8.597  15.228   8.227  0.0930 -0.0423  0.1922
  241loPI   C3B 3855   8.539  15.301   7.729  0.1856  0.0257  0.1755
  241loPI   C4B 3856   8.516  15.411   7.346  0.1605 -0.0742  0.1140
  242loPI    C1 3857  12.691   1.869   9.623 -0.2114  0.0477  0.1748
  242loPI    C2 3858  12.591   2.060   9.960  0.1149  0.0878  0.2515
  242loPI    C3 3859  12.781   1.708   9.978 -0.1237 -0.0506  0.1087
  242loPI   PO4 3860  12.516   1.870   9.459 -0.1189 -0.0374 -0.1511
  242loPI   GL1 3861  12.292   2.070   9.160 -0.1301  0.2059  0.3468
  242loPI   GL2 3862  12.227   2.411   9.131 -0.0207  0.1137 -0.1758
  242loPI   C1A 3863  12.410   1.867   8.793 -0.1594  0.2924  0.2026
  242loPI   C2A 3864  12.392   1.558   8.497  0.0507  0.0224  0.3295
  242loPI   C3A 3865  12.306   1.649   8.092 -0.1469  0.3157  0.2020
  242loPI   C4A 3866  12.346   1.380   7.701  0.0937  0.0934 -0.0632
  242loPI   C5A 3867  12.186   1.170   7.399 -0.0518  0.1196 -0.0815
  242loPI   C6A 3868  11.734   1.051   7.455 -0.1106 -0.4023 -0.0896
  242loPI   C1B 3869  12.159   2.437   8.630  0.2925  0.2006 -0.1034
  242loPI   C2B 3870  12.151   2.482   8.207 -0.3615 -0.0105  0.2106
  242loPI   C3B 3871  12.274   2.762   7.839 -0.1055 -0.1314 -0.0131
  242loPI   C4B 3872  12.160   2.872   7.510  0.0067 -0.0709 -0.0867
  243loPI    C1 3873  12.520  18.667   9.385  0.0484 -0.0355 -0.0241
  243loPI    C2 3874  12.621  18.705   9.770  0.2523 -0.0498 -0.0748
  243loPI    C3 3875  12.889  18.570   9.505  0.1502  0.0719 -0.2426
  243loPI   PO4 3876  12.412  18.918   9.355 -0.2031 -0.1778 -0.0058
  243loPI   GL1 3877  12.647  19.142   9.125  0.0527 -0.0809 -0.3185
  243loPI   GL2 3878  12.920  19.366   9.099  0.3014  0.2198 -0.0953
  243loPI   C1A 3879  12.276  19.101   8.807 -0.2138 -0.1050 -0.0533
  243loPI   C2A 3880  12.147  19.074   8.429 -0.0409  0.1789 -0.1067
  243loPI   C3A 3881  12.047  19.131   8.121 -0.0682 -0.0030 -0.0653
  243loPI   C4A 3882  12.011  18.885   7.675 -0.0901 -0.1507 -0.0648
  243loPI   C5A 3883  11.840  18.583   7.524 -0.0970 -0.0144 -0.2187
  243loPI   C6A 3884  11.584  18.113   7.339 -0.2371 -0.1664  0.0722
  243loPI   C1B 3885  12.630  19.383   8.768  0.1657  0.4194  0.0174
  243loPI   C2B 3886  12.659  19.121   8.365  0.0156  0.3520  0.1422
  243loPI   C3B 3887  12.500  18.677   8.371 -0.0207 -0.1769  0.0080
  243loPI   C4B 3888  12.097  18.649   8.178  0.1470  0.0400  0.0094
  244loPI    C1 3889   7.868  19.139  10.140  0.0029 -0.1539  0.0071
  244loPI    C2 3890   8.172  18.938  10.304  0.1379 -0.1379 -0.2194
  244loPI    C3 3891   7.831  18.985  10.508  0.3236 -0.0616  0.0810
  244loPI   PO4 3892   7.878  19.090   9.839 -0.1478 -0.0419  0.0621
  244loPI   GL1 3893   8.040  18.893   9.440  0.3217 -0.0122 -0.0396
  244loPI   GL2 3894   7.799  18.754   9.198 -0.0590 -0.1132 -0.2134
  244loPI   C1A 3895   8.114  19.189   9.107  0.1451  0.0433  0.1671
  244loPI   C2A 3896   8.380  19.425   8.744 -0.0163 -0.1196  0.0031
  244loPI   C3A 3897   8.569  19.585   8.316 -0.0756 -0.0068  0.1339
  244loPI   C4A 3898   8.427  19.657   8.008  0.3547  0.1785  0.0230
  244loPI   C5A 3899   8.172  19.797   7.836 -0.1560 -0.0167 -0.4100
  244loPI   C6A 3900   8.077  19.811   7.396  0.2608 -0.1620  0.1603
  244loPI   C1B 3901   7.920  18.783   8.767 -0.2566  0.0236  0.0626
  244loPI   C2B 3902   7.903  18.717   8.380 -0.1720  0.3072  0.0835
  244loPI   C3B 3903   8.051  18.809   7.999  0.0126 -0.1296 -0.2328
  244loPI   C4B 3904   8.313  18.551   7.678  0.0174 -0.1448 -0.1473
  245loPI    C1 3905  19.173  12.493   9.579 -0.1055 -0.0174 -0.1037
  245loPI    C2 3906  19.430  12.748   9.748  0.0080 -0.0319 -0.2521
  245loPI    C3 3907  19.373  12.387   9.909 -0.1811  0.0983 -0.0199
  245loPI   PO4 3908  19.208  12.456   9.432  0.3508 -0.2603  0.2087
  245loPI   GL1 3909  19.075  12.601   9.039  0.2034 -0.1555 -0.2184
  245loPI   GL2 3910  18.774  12.532   8.924  0.1941 -0.1711  0.0392
  245loPI   C1A 3911  19.392  12.666   8.711 -0.1380  0.1617  0.1135
  245loPI   C2A 3912  19.262  12.585   8.361 -0.1186  0.0168  0.0993
  245loPI   C3A 3913  19.338  12.670   7.920 -0.2845 -0.0630  0.0393
  245loPI   C4A 3914  19.417  12.710   7.559  0.0804 -0.3515  0.0077
  245loPI   C5A 3915  19.264  12.751   7.181 -0.1570  0.2785  0.1797
  245loPI   C6A 3916  19.261  12.477   6.790 -0.1709  0.2345 -0.0003
  245loPI   C1B 3917  18.926  12.245   8.558 -0.0997 -0.4967 -0.0114
  245loPI   C2B 3918  18.953  12.108   8.167  0.0061 -0.0869 -0.0034
  245loPI   C3B 3919  18.944  12.038   7.716 -0.3892 -0.1387  0.1041
  245loPI   C4B 3920  18.881  11.913   7.405  0.1346 -0.0235 -0.1732
  246loPI    C1 3921   5.909   7.139  10.295 -0.1547 -0.0887 -0.2823
  246loPI    C2 3922   6.263   7.235  10.455 -0.1953 -0.0696 -0.2034
  246loPI    C3 3923   5.970   7.507  10.440 -0.3522 -0.2142  0.1348
  246loPI   PO4 3924   5.925   7.147  10.063  0.0345  0.1819  0.0418
  246loPI   GL1 3925   5.820   7.296   9.619 -0.0870 -0.0432 -0.0240
  246loPI   GL2 3926   5.697   6.980   9.670 -0.0098  0.1504 -0.4320
  246loPI   C1A 3927   5.715   7.548   9.215  0.2852 -0.0792  0.1127
  246loPI   C2A 3928   5.867   7.634   8.852 -0.1923 -0.0659 -0.1295
  246loPI   C3A 3929   6.279   7.884   8.674  0.1700  0.1823 -0.0832
  246loPI   C4A 3930   6.491   8.033   8.296 -0.3300  0.2541 -0.0345
  246loPI   C5A 3931   6.502   7.819   7.933 -0.1512 -0.1588  0.1744
  246loPI   C6A 3932   6.184   7.848   7.652 -0.2222 -0.4370 -0.2630
  246loPI   C1B 3933   5.597   6.914   9.282  0.1381  0.0234 -0.0688
  246loPI   C2B 3934   5.422   6.742   8.848 -0.0121 -0.1654  0.3330
  246loPI   C3B 3935   5.326   6.744   8.364  0.0307  0.2276  0.0808
  246loPI   C4B 3936   5.220   6.683   7.976 -0.2960 -0.0324  0.2191
  247loPI    C1 3937   7.118  18.309  10.115  0.1115 -0.1127  0.0261
  247loPI    C2 3938   6.774  18.496  10.033  0.2186 -0.0368 -0.2624
  247loPI    C3 3939   6.941  18.533  10.395 -0.1164 -0.1406 -0.0932
  247loPI   PO4 3940   7.303  18.438   9.833  0.0365 -0.0110 -0.0534
  247loPI   GL1 3941   7.201  18.533   9.382  0.0265 -0.0738 -0.0277
  247loPI   GL2 3942   6.939  18.523   9.485 -0.1377  0.1597 -0.0058
  247loPI   C1A 3943   7.326  18.703   9.023 -0.2272  0.0727  0.0497
  247loPI   C2A 3944   7.395  18.918   8.537 -0.4824  0.2787  0.0346
  247loPI   C3A 3945   7.506  18.901   8.091 -0.1182 -0.2763 -0.1486
  247loPI   C4A 3946   7.345  19.224   7.820  0.0871 -0.5934  0.0292
  247loPI   C5A 3947   7.109  19.170   7.438  0.2401 -0.0882 -0.1860
  247loPI   C6A 3948   7.268  19.451   7.035  0.2471 -0.2452 -0.1042
  247loPI   C1B 3949   6.794  18.798   9.053  0.0287 -0.0046  0.0147
  247loPI   C2B 3950   6.581  18.725   8.713 -0.0427 -0.1444 -0.2179
  247loPI   C3B 3951   6.600  18.636   8.285 -0.2454 -0.1882  0.3708
  247loPI   C4B 3952   6.629  18.672   7.829 -0.0757  0.3537  0.1216
  248loPI    C1 3953   7.727   7.315   9.944  0.2216 -0.0466  0.1644
  248loPI    C2 3954   7.346   7.201   9.984  0.1081  0.1096 -0.3912
  248loPI    C3 3955   7.485   7.510  10.197 -0.0129 -0.0764 -0.0335
  248loPI   PO4 3956   7.773   7.465   9.720  0.3707 -0.1687 -0.1031
  248loPI   GL1 3957   7.915   7.193   9.208  0.1658  0.1729  0.0648
  248loPI   GL2 3958   7.804   7.589   9.180 -0.1700 -0.3916 -0.3015
  248loPI   C1A 3959   7.564   7.205   8.807  0.2821  0.0396 -0.0501
  248loPI   C2A 3960   7.418   7.141   8.399 -0.0971  0.4415  0.1613
  248loPI   C3A 3961   7.242   7.167   7.984  0.4224  0.0794 -0.2107
  248loPI   C4A 3962   7.424   6.913   7.623 -0.0561  0.2814 -0.0376
  248loPI   C5A 3963   7.752   6.948   7.236 -0.6228 -0.0642 -0.1191
  248loPI   C6A 3964   7.916   7.086   6.853  0.4256 -0.0065 -0.1310
  248loPI   C1B 3965   7.594   7.706   8.794 -0.0270 -0.1167  0.0208
  248loPI   C2B 3966   7.515   7.852   8.431  0.1934 -0.2114  0.2454
  248loPI   C3B 3967   7.569   7.983   8.042  0.3163 -0.4133  0.0524
  248loPI   C4B 3968   7.419   7.807   7.776  0.1459 -0.1023  0.0892
  249loPI    C1 3969  11.020  18.193  10.096  0.0375  0.0092 -0.0287
  249loPI    C2 3970  10.965  18.582  10.169  0.1084  0.0042  0.0528
  249loPI    C3 3971  10.973  18.321  10.472  0.0285 -0.0652 -0.0042
  249loPI   PO4 3972  11.109  18.259   9.782 -0.1522 -0.1352  0.1096
  249loPI   GL1 3973  11.397  17.934   9.483  0.0734 -0.0015 -0.0239
  249loPI   GL2 3974  11.171  17.862   9.407 -0.3286 -0.1509 -0.3244
  249loPI   C1A 3975  11.541  17.961   9.083 -0.0016  0.0724  0.0958
  249loPI   C2A 3976  11.609  18.085   8.628  0.1448  0.5009  0.0905
  249loPI   C3A 3977  11.797  18.160   8.300  0.0458 -0.0611 -0.2557
  249loPI   C4A 3978  11.948  18.202   7.787  0.0019 -0.0368  0.0284
  249loPI   C5A 3979  12.213  17.973   7.600  0.1450  0.1379 -0.0268
  249loPI   C6A 3980  12.201  17.923   7.176  0.2679  0.0426 -0.0474
  249loPI   C1B 3981  11.045  17.927   9.047  0.1023  0.0087  0.0661
  249loPI   C2B 3982  11.151  17.919   8.614  0.1159  0.0573 -0.1173
  249loPI   C3B 3983  11.221  18.027   8.215  0.0295  0.1967  0.0621
  249loPI   C4B 3984  11.427  18.088   7.826  0.0076  0.0416  0.3814
  250loPI    C1 3985   3.583   0.187  10.149  0.2292  0.1690 -0.0417
  250loPI    C2 3986   3.927   0.109  10.337  0.0649 -0.0507  0.1746
  250loPI    C3 3987   3.634   0.302  10.529  0.0549  0.1096  0.0005
  250loPI   PO4 3988   3.639  -0.024   9.941  0.0007  0.1007 -0.1377
  250loPI   GL1 3989   3.829  -0.033   9.552 -0.3593 -0.1190 -0.2273
  250loPI   GL2 3990   4.009   0.206   9.370 -0.0522 -0.4025  0.1732
  250loPI   C1A 3991   3.779  -0.286   9.189  0.2486  0.1078  0.0163
  250loPI   C2A 3992   3.750  -0.495   8.850 -0.4045 -0.0247  0.0510
  250loPI   C3A 3993   3.653  -0.436   8.512  0.0681 -0.0871  0.0666
  250loPI   C4A 3994   3.716  -0.588   8.051 -0.6126  0.1765 -0.2251
  250loPI   C5A 3995   3.899  -0.516   7.715 -0.1474 -0.1743  0.1995
  250loPI   C6A 3996   3.872  -0.651   7.134 -0.1310  0.1462  0.1642
  250loPI   C1B 3997   3.918   0.105   8.979 -0.0064  0.0941 -0.3122
  250loPI   C2B 3998   3.968  -0.027   8.514 -0.0091 -0.0175  0.1115
  250loPI   C3B 3999   4.097  -0.072   8.049  0.2025  0.2028 -0.4792
  250loPI   C4B 4000   4.264  -0.123   7.621 -0.2841  0.0667  0.0307
  251loPI    C1 4001  13.713  17.532   9.609  0.0540 -0.1301 -0.1321
  251loPI    C2 4002  13.871  17.895   9.547 -0.2311  0.0570  0.2011
  251loPI    C3 4003  13.984  17.678   9.865 -0.1266 -0.1117  0.0511
  251loPI   PO4 4004  13.431  17.695   9.498 -0.1725  0.0846  0.3323
  251loPI   GL1 4005  13.358  17.850   9.126 -0.0837 -0.1645  0.1426
  251loPI   GL2 4006  13.681  18.083   9.033 -0.0034 -0.1416  0.0568
  251loPI   C1A 4007  13.445  17.588   8.678 -0.2394 -0.1326 -0.0845
  251loPI   C2A 4008  13.550  17.221   8.536  0.4067 -0.1000 -0.2512
  251loPI   C3A 4009  13.494  16.977   8.237  0.1392 -0.0409  0.1678
  251loPI   C4A 4010  13.835  16.720   8.070  0.1135 -0.0399 -0.0482
  251loPI   C5A 4011  13.597  16.342   7.853 -0.0143 -0.1718  0.0069
  251loPI   C6A 4012  13.471  15.936   7.612 -0.2507  0.0566 -0.0696
  251loPI   C1B 4013  13.757  18.031   8.640 -0.0835 -0.0987  0.0760
  251loPI   C2B 4014  13.570  18.247   8.290  0.2118  0.0876 -0.3245
  251loPI   C3B 4015  13.440  18.441   7.964 -0.0893  0.1609  0.0279
  251loPI   C4B 4016  13.287  18.646   7.531 -0.1461 -0.1071 -0.1175
  252loPI    C1 4017  13.288   5.672  10.338 -0.1025  0.1341  0.0951
  252loPI    C2 4018  12.923   5.513  10.304 -0.1396  0.2488 -0.0497
  252loPI    C3 4019  13.027   5.703  10.640 -0.1639  0.0944  0.0460
  252loPI   PO4 4020  13.433   5.480  10.120 -0.1575 -0.1098  0.0083
  252loPI   GL1 4021  13.502   5.348   9.634  0.0106  0.1228 -0.0523
  252loPI   GL2 4022  13.358   5.134   9.442 -0.3813 -0.2039  0.1305
  252loPI   C1A 4023  13.679   5.485   9.229  0.1736 -0.3151 -0.0278
  252loPI   C2A 4024  13.561   5.603   8.835  0.1071 -0.1463 -0.0044
  252loPI   C3A 4025  13.568   5.970   8.636 -0.1289  0.1373  0.0235
  252loPI   C4A 4026  13.287   6.250   8.521 -0.2653 -0.0432  0.2893
  252loPI   C5A 4027  13.052   6.278   8.155 -0.1633  0.2086  0.0819
  252loPI   C6A 4028  12.761   6.325   7.836  0.1841  0.1716  0.1223
  252loPI   C1B 4029  13.338   5.179   8.988  0.2013  0.1670 -0.1206
  252loPI   C2B 4030  13.359   5.209   8.556  0.3036 -0.0720  0.0501
  252loPI   C3B 4031  13.210   5.204   8.129  0.0977 -0.0216  0.0074
  252loPI   C4B 4032  13.168   5.409   7.778 -0.3984 -0.2055  0.3036
  253loPI    C1 4033  10.225   0.296   9.766 -0.1407  0.2835  0.0283
  253loPI    C2 4034  10.369   0.489  10.085  0.1617  0.0004  0.0681
  253loPI    C3 4035  10.416   0.093  10.053 -0.2042 -0.0298 -0.1465
  253loPI   PO4 4036  10.310   0.495   9.525  0.0187 -0.1385  0.0051
  253loPI   GL1 4037  10.316   0.326   9.203  0.1017  0.0367 -0.2691
  253loPI   GL2 4038  10.653   0.291   9.024  0.0915  0.4953 -0.0677
  253loPI   C1A 4039  10.133   0.519   8.873  0.2340 -0.2171 -0.2866
  253loPI   C2A 4040  10.024   0.408   8.480 -0.0507  0.0435  0.0908
  253loPI   C3A 4041   9.905   0.358   8.092  0.0364 -0.2117 -0.2428
  253loPI   C4A 4042   9.697   0.193   7.668 -0.0993 -0.1110  0.1477
  253loPI   C5A 4043   9.436   0.110   7.282 -0.0676 -0.4786 -0.2074
  253loPI   C6A 4044   9.236  -0.086   6.958  0.1357 -0.1342 -0.1634
  253loPI   C1B 4045  10.567   0.325   8.615 -0.0743  0.1912 -0.0677
  253loPI   C2B 4046  10.458   0.356   8.181 -0.0882  0.1820 -0.1606
  253loPI   C3B 4047  10.347   0.521   7.735  0.4799 -0.1032  0.0564
  253loPI   C4B 4048  10.207   0.747   7.330  0.2670  0.0052 -0.0674
  254loPI    C1 4049   3.941  16.848   9.662 -0.0345 -0.2417 -0.0024
  254loPI    C2 4050   4.197  16.991   9.934 -0.1056 -0.0958 -0.0109
  254loPI    C3 4051   3.805  16.985  10.013 -0.1381  0.0572 -0.1556
  254loPI   PO4 4052   4.109  16.685   9.539 -0.1566 -0.1790  0.1647
  254loPI   GL1 4053   4.409  16.530   9.214 -0.2927  0.0630 -0.0261
  254loPI   GL2 4054   4.131  16.299   9.195  0.0680 -0.1446  0.1663
  254loPI   C1A 4055   4.527  16.932   9.016 -0.1367 -0.1003  0.2333
  254loPI   C2A 4056   4.587  17.149   8.612 -0.1000  0.1866 -0.1889
  254loPI   C3A 4057   4.614  17.248   8.193 -0.3745  0.2748 -0.1784
  254loPI   C4A 4058   4.487  17.141   7.768  0.0721  0.1461  0.0328
  254loPI   C5A 4059   4.533  16.814   7.332  0.1119 -0.1358 -0.0808
  254loPI   C6A 4060   4.787  16.577   7.080 -0.0591 -0.2250 -0.2177
  254loPI   C1B 4061   4.082  16.353   8.677  0.1529  0.5172 -0.2279
  254loPI   C2B 4062   4.057  16.504   8.225 -0.0597 -0.1317 -0.3793
  254loPI   C3B 4063   3.905  16.782   7.978 -0.2300  0.3364 -0.1252
  254loPI   C4B 4064   4.097  16.913   7.560  0.0932 -0.4190 -0.0544
  255loPI    C1 4065  10.441  16.219   9.698 -0.0214 -0.0349 -0.0345
  255loPI    C2 4066  10.059  16.234   9.816  0.0026  0.2370  0.0133
  255loPI    C3 4067  10.270  16.572   9.777  0.2274  0.0909 -0.0497
  255loPI   PO4 4068  10.480  16.057   9.448 -0.1133 -0.6738 -0.2540
  255loPI   GL1 4069  10.485  15.916   9.022  0.0638 -0.0498  0.1028
  255loPI   GL2 4070  10.804  15.807   8.847  0.0081  0.1446 -0.2378
  255loPI   C1A 4071  10.318  16.027   8.525 -0.1266  0.0848 -0.0837
  255loPI   C2A 4072  10.384  16.083   8.147  0.4723  0.0336  0.1859
  255loPI   C3A 4073  10.569  16.104   7.739 -0.0546 -0.2080 -0.0666
  255loPI   C4A 4074  10.851  16.335   7.495  0.2873 -0.2728  0.1948
  255loPI   C5A 4075  10.840  16.734   7.336 -0.2088 -0.0045 -0.0489
  255loPI   C6A 4076  10.508  17.123   7.353 -0.0164  0.1463  0.5720
  255loPI   C1B 4077  11.024  15.490   8.487  0.0676  0.1624 -0.1885
  255loPI   C2B 4078  11.086  15.195   8.218 -0.1434 -0.1862 -0.0870
  255loPI   C3B 4079  11.107  15.204   7.703 -0.0644  0.1979 -0.2477
  255loPI   C4B 4080  10.846  15.395   7.463  0.1340 -0.1554  0.0803
  256loPI    C1 4081  14.519  12.274   9.399  0.0392  0.0972 -0.1241
  256loPI    C2 4082  14.562  12.153   9.778 -0.1005  0.4547  0.0108
  256loPI    C3 4083  14.649  12.530   9.677 -0.3347  0.4412 -0.2553
  256loPI   PO4 4084  14.222  12.150   9.279  0.0173 -0.1303 -0.0899
  256loPI   GL1 4085  14.005  12.073   8.979 -0.0394 -0.1528  0.0716
  256loPI   GL2 4086  13.713  11.869   8.843 -0.3506 -0.0812 -0.2136
  256loPI   C1A 4087  14.246  11.987   8.636  0.1510  0.3485  0.0194
  256loPI   C2A 4088  14.190  11.770   8.243 -0.1432 -0.0917 -0.2200
  256loPI   C3A 4089  14.153  11.809   7.720 -0.2708  0.1475 -0.2153
  256loPI   C4A 4090  14.031  11.726   7.307 -0.1462  0.1022 -0.0270
  256loPI   C5A 4091  14.114  11.915   6.969  0.0982  0.2425  0.0072
  256loPI   C6A 4092  14.166  12.150   6.522  0.3225 -0.1584 -0.0197
  256loPI   C1B 4093  13.811  11.966   8.434 -0.0616 -0.1368  0.0532
  256loPI   C2B 4094  13.615  11.847   8.004 -0.0814 -0.0216 -0.1838
  256loPI   C3B 4095  13.628  11.667   7.688 -0.2054  0.0914 -0.3389
  256loPI   C4B 4096  13.210  11.821   7.436  0.2936  0.3900 -0.0776
  257loPI    C1 4097  11.619  14.194   9.305  0.0557  0.0419 -0.0290
  257loPI    C2 4098  11.971  14.263   9.483  0.1159 -0.2029 -0.0495
  257loPI    C3 4099  11.635  14.252   9.701  0.1170  0.0515 -0.0329
  257loPI   PO4 4100  11.743  14.340   9.001 -0.0681  0.1273  0.0375
  257loPI   GL1 4101  11.977  14.398   8.691 -0.0451 -0.0183  0.1608
  257loPI   GL2 4102  12.227  14.234   8.593  0.0553  0.1832 -0.0294
  257loPI   C1A 4103  11.770  14.416   8.342  0.2102 -0.1331  0.0818
  257loPI   C2A 4104  11.588  14.412   7.983  0.0729  0.3110  0.1527
  257loPI   C3A 4105  11.419  14.605   7.595 -0.1614 -0.2221 -0.0588
  257loPI   C4A 4106  11.269  14.542   7.179  0.0108  0.0608  0.2538
  257loPI   C5A 4107  11.287  14.149   6.968 -0.0378  0.0396 -0.3039
  257loPI   C6A 4108  11.018  13.804   6.822  0.1432  0.4963  0.0111
  257loPI   C1B 4109  12.205  14.255   8.223  0.1055 -0.0491  0.1940
  257loPI   C2B 4110  12.338  14.337   7.930  0.3740  0.1372  0.1435
  257loPI   C3B 4111  12.410  14.336   7.478 -0.1818  0.1660  0.1530
  257loPI   C4B 4112  12.653  14.572   7.055 -0.2847  0.1149 -0.4271
  258loPI    C1 4113   5.000  13.391  10.050 -0.4037 -0.2213  0.2244
  258loPI    C2 4114   4.833  13.716   9.887  0.1822 -0.0465 -0.0553
  258loPI    C3 4115   4.992  13.735  10.253 -0.0178 -0.0953  0.0356
  258loPI   PO4 4116   5.157  13.295   9.735  0.0481 -0.3455  0.2357
  258loPI   GL1 4117   5.081  13.099   9.295  0.2643 -0.0448 -0.2856
  258loPI   GL2 4118   5.406  13.282   9.274  0.3111 -0.1816  0.1011
  258loPI   C1A 4119   5.061  12.920   9.014 -0.0418 -0.1180  0.1791
  258loPI   C2A 4120   4.656  12.850   8.749 -0.0476  0.0701 -0.3212
  258loPI   C3A 4121   4.396  13.071   8.431  0.0678 -0.0412  0.0278
  258loPI   C4A 4122   4.480  13.288   8.132  0.2491  0.0610 -0.2649
  258loPI   C5A 4123   4.527  13.377   7.803  0.1922 -0.2077 -0.1553
  258loPI   C6A 4124   4.826  13.403   7.462 -0.0481 -0.0328 -0.0375
  258loPI   C1B 4125   5.299  13.339   8.847 -0.5091 -0.1230 -0.0092
  258loPI   C2B 4126   5.262  13.523   8.419  0.0308 -0.1619 -0.0436
  258loPI   C3B 4127   5.501  13.336   8.019 -0.0892 -0.2203  0.3345
  258loPI   C4B 4128   5.658  13.123   7.696 -0.3622 -0.0027  0.3631
  259loPI    C1 4129   0.483  14.918   9.547 -0.2411 -0.1943 -0.1673
  259loPI    C2 4130   0.674  15.263   9.479 -0.2697 -0.1063  0.1801
  259loPI    C3 4131   0.882  14.925   9.525 -0.2445 -0.1492 -0.2174
  259loPI   PO4 4132   0.221  14.971   9.490 -0.2727  0.0094  0.0464
  259loPI   GL1 4133   0.082  14.944   9.113  0.2805 -0.0129  0.0589
  259loPI   GL2 4134  -0.245  14.837   8.913 -0.1397  0.0560 -0.1138
  259loPI   C1A 4135   0.358  15.069   8.736  0.3015  0.0085  0.1067
  259loPI   C2A 4136   0.079  15.091   8.331 -0.0604 -0.1696  0.2410
  259loPI   C3A 4137  -0.103  15.029   7.917  0.0215 -0.1955  0.0922
  259loPI   C4A 4138  -0.124  15.092   7.483 -0.2012  0.2389 -0.2719
  259loPI   C5A 4139  -0.139  15.137   7.109 -0.0572 -0.2359  0.0192
  259loPI   C6A 4140  -0.075  14.882   6.731  0.2281 -0.0865 -0.1039
  259loPI   C1B 4141  -0.316  14.875   8.500 -0.3816  0.0906  0.0704
  259loPI   C2B 4142  -0.684  14.838   8.129  0.0370 -0.0306 -0.0594
  259loPI   C3B 4143  -0.677  15.208   7.996  0.1041 -0.3910  0.0622
  259loPI   C4B 4144  -0.420  15.441   7.728  0.0655 -0.4219  0.1878
  260loPI    C1 4145  11.558  16.054   9.423 -0.1685  0.1006 -0.0886
  260loPI    C2 4146  11.691  15.744   9.638 -0.2230  0.0131 -0.1804
  260loPI    C3 4147  11.468  16.026   9.811  0.0739  0.1577 -0.0261
  260loPI   PO4 4148  11.444  15.871   9.204  0.1685 -0.4806  0.0246
  260loPI   GL1 4149  11.483  15.548   8.879 -0.1797 -0.3734  0.1686
  260loPI   GL2 4150  11.622  15.729   8.735 -0.0985  0.1658  0.2136
  260loPI   C1A 4151  11.545  15.306   8.517  0.1301 -0.0992  0.1443
  260loPI   C2A 4152  11.936  15.292   8.162  0.3737 -0.2095 -0.2225
  260loPI   C3A 4153  12.052  15.203   7.731  0.0339 -0.2833 -0.1097
  260loPI   C4A 4154  12.162  15.174   7.285  0.1393 -0.3259 -0.2057
  260loPI   C5A 4155  11.951  15.085   6.926 -0.2236  0.0601  0.4494
  260loPI   C6A 4156  11.885  14.687   6.604 -0.0078  0.3033 -0.2228
  260loPI   C1B 4157  11.717  15.713   8.294 -0.0111  0.2782 -0.2454
  260loPI   C2B 4158  11.679  15.515   7.815  0.4310 -0.2883 -0.0517
  260loPI   C3B 4159  11.452  15.490   7.429  0.0027  0.0665  0.1634
  260loPI   C4B 4160  11.540  15.343   7.076  0.0540  0.0217  0.2026
  261loPI    C1 4161   6.067  14.606   9.351 -0.0274  0.0245  0.0634
  261loPI    C2 4162   6.080  14.466   9.726  0.0037 -0.0068  0.0508
  261loPI    C3 4163   5.810  14.744   9.625  0.0089  0.0167  0.1014
  261loPI   PO4 4164   6.373  14.628   9.195  0.0956 -0.0233  0.4449
  261loPI   GL1 4165   6.415  14.521   8.923 -0.0963  0.1684  0.0688
  261loPI   GL2 4166   6.183  14.191   8.968  0.0041 -0.3978  0.0796
  261loPI   C1A 4167   6.674  14.082   8.662 -0.2011  0.0072 -0.2076
  261loPI   C2A 4168   6.791  14.025   8.248  0.0464 -0.0016 -0.2617
  261loPI   C3A 4169   6.692  13.785   7.888  0.0134  0.0134 -0.1652
  261loPI   C4A 4170   6.831  13.681   7.459 -0.0251  0.4468 -0.0013
  261loPI   C5A 4171   6.680  13.589   7.022 -0.0530  0.2859  0.2895
  261loPI   C6A 4172   6.438  13.450   6.594  0.1069  0.3121 -0.2723
  261loPI   C1B 4173   6.161  13.899   8.672 -0.0404  0.2025  0.1852
  261loPI   C2B 4174   6.321  13.897   8.283  0.0611  0.1340  0.0991
  261loPI   C3B 4175   6.212  13.948   7.794  0.0586  0.0805  0.2906
  261loPI   C4B 4176   6.057  14.021   7.341  0.1638  0.0073 -0.0040
  262loPI    C1 4177   2.508  10.531   9.846  0.2175  0.3163 -0.1205
  262loPI    C2 4178   2.270  10.503  10.167  0.4812 -0.1895  0.0411
  262loPI    C3 4179   2.534  10.802  10.139 -0.1689  0.3921 -0.1502
  262loPI   PO4 4180   2.738  10.285   9.800  0.1665  0.1858 -0.1101
  262loPI   GL1 4181   2.637   9.913   9.573  0.3112  0.1024 -0.0478
  262loPI   GL2 4182   2.894   9.936   9.437  0.3342 -0.2952  0.2146
  262loPI   C1A 4183   2.439  10.076   9.199 -0.1359  0.3103 -0.0494
  262loPI   C2A 4184   2.436   9.903   8.719  0.3148  0.1992  0.0564
  262loPI   C3A 4185   2.783   9.971   8.377 -0.4734 -0.2303 -0.1850
  262loPI   C4A 4186   2.697   9.917   7.980  0.1244 -0.1985  0.0208
  262loPI   C5A 4187   2.780   9.964   7.578 -0.0396  0.0944 -0.1550
  262loPI   C6A 4188   3.165   9.991   7.339  0.0978  0.0151 -0.1519
  262loPI   C1B 4189   3.211  10.019   9.148  0.2364  0.2233 -0.1686
  262loPI   C2B 4190   3.215   9.907   8.759  0.1283  0.0001  0.0813
  262loPI   C3B 4191   3.303   9.842   8.327  0.3654  0.1678 -0.0670
  262loPI   C4B 4192   3.181   9.764   7.899 -0.2408  0.0043 -0.3720
  263loPI    C1 4193   2.466   4.007  10.152 -0.0432  0.1876  0.0919
  263loPI    C2 4194   2.111   4.120  10.298 -0.1064 -0.0606  0.1348
  263loPI    C3 4195   2.224   4.239   9.934 -0.1035  0.2645  0.2389
  263loPI   PO4 4196   2.450   3.727  10.109 -0.1658 -0.0500 -0.3294
  263loPI   GL1 4197   2.460   3.373   9.733 -0.0187 -0.1690  0.2309
  263loPI   GL2 4198   2.320   3.114   9.892  0.1807  0.1266  0.1955
  263loPI   C1A 4199   2.341   3.275   9.372  0.0429 -0.0109  0.1404
  263loPI   C2A 4200   2.404   3.297   8.925 -0.2882 -0.2475  0.1290
  263loPI   C3A 4201   2.427   3.264   8.560 -0.3144 -0.0887  0.2688
  263loPI   C4A 4202   2.135   3.281   8.231 -0.1296  0.1419 -0.0423
  263loPI   C5A 4203   1.850   3.135   7.827  0.2051  0.1100 -0.1875
  263loPI   C6A 4204   1.686   2.918   7.508 -0.0015 -0.0712  0.0864
  263loPI   C1B 4205   2.385   2.826   9.474  0.4057 -0.2571  0.0441
  263loPI   C2B 4206   2.492   2.812   9.110 -0.0195  0.2909  0.2319
  263loPI   C3B 4207   2.712   2.855   8.740 -0.0779  0.0311 -0.1724
  263loPI   C4B 4208   2.559   2.624   8.332  0.2535 -0.1020  0.0480
  264loPI    C1 4209   3.022   7.782  10.243  0.2983  0.3352  0.1881
  264loPI    C2 4210   3.039   7.488  10.514 -0.0433  0.1965  0.0641
  264loPI    C3 4211   2.706   7.707  10.476  0.0055  0.2233 -0.2329
  264loPI   PO4 4212   3.157   7.707   9.958 -0.2018 -0.2710 -0.2511
  264loPI   GL1 4213   3.149   7.862   9.578  0.0409  0.1143  0.1882
  264loPI   GL2 4214   3.165   8.152   9.415 -0.2949  0.1041 -0.1042
  264loPI   C1A 4215   2.853   7.852   9.157  0.1172 -0.1604  0.0405
  264loPI   C2A 4216   2.917   7.879   8.672  0.2527 -0.0671 -0.1425
  264loPI   C3A 4217   2.978   7.842   8.326 -0.0005  0.2271 -0.1554
  264loPI   C4A 4218   3.053   7.683   7.911 -0.0517 -0.0434  0.2452
  264loPI   C5A 4219   3.128   7.478   7.593 -0.0127  0.4897 -0.2058
  264loPI   C6A 4220   2.755   7.321   7.292  0.2553 -0.1796  0.1089
  264loPI   C1B 4221   3.299   8.039   8.995 -0.1930  0.0864 -0.0237
  264loPI   C2B 4222   3.371   8.046   8.563 -0.1085 -0.0070  0.0294
  264loPI   C3B 4223   3.372   8.112   8.104 -0.1795  0.2041  0.2315
  264loPI   C4B 4224   3.235   8.038   7.620 -0.2711  0.2085 -0.0073
  265loPI    C1 4225   4.261  11.242   9.872  0.0185 -0.0146 -0.0187
  265loPI    C2 4226   4.222  11.637   9.918 -0.2043 -0.0493  0.1097
  265loPI    C3 4227   4.525  11.445  10.095  0.0476  0.0962 -0.1526
  265loPI   PO4 4228   4.241  11.223   9.630  0.2044 -0.3463 -0.2622
  265loPI   GL1 4229   4.269  11.124   9.205  0.1996  0.0543 -0.0465
  265loPI   GL2 4230   4.346  11.468   9.061  0.1315  0.2199  0.0772
  265loPI   C1A 4231   4.274  10.817   8.898 -0.1321  0.2088  0.0829
  265loPI   C2A 4232   4.498  10.723   8.577 -0.0950  0.1473 -0.0130
  265loPI   C3A 4233   4.533  10.749   8.151  0.3263  0.2846 -0.0878
  265loPI   C4A 4234   4.599  10.983   7.808  0.4034 -0.0639  0.0676
  265loPI   C5A 4235   4.597  11.046   7.409 -0.2019 -0.2984 -0.3690
  265loPI   C6A 4236   4.404  11.068   7.032  0.0487  0.2624 -0.3539
  265loPI   C1B 4237   4.024  11.558   8.819 -0.1759  0.1253 -0.2323
  265loPI   C2B 4238   3.995  11.619   8.473  0.0616 -0.1158 -0.0262
  265loPI   C3B 4239   3.961  11.807   8.037  0.1547  0.1803  0.1883
  265loPI   C4B 4240   3.964  11.740   7.534 -0.1609 -0.1678 -0.6537
  266loPI    C1 4241   1.028   0.178   9.909  0.2214 -0.0776  0.0576
  266loPI    C2 4242   1.207   0.298  10.246  0.0891 -0.0385  0.1147
  266loPI    C3 4243   0.871   0.082  10.265  0.0059  0.0800  0.0069
  266loPI   PO4 4244   1.139  -0.035   9.721  0.3218  0.1177 -0.0307
  266loPI   GL1 4245   1.137  -0.003   9.327 -0.1659  0.1660 -0.0037
  266loPI   GL2 4246   1.020   0.252   9.118 -0.0886 -0.0194  0.1544
  266loPI   C1A 4247   1.493   0.301   9.152 -0.1510  0.0555 -0.2525
  266loPI   C2A 4248   1.455   0.388   8.771  0.1366  0.1012 -0.0083
  266loPI   C3A 4249   1.598   0.438   8.354 -0.0133  0.0315  0.0640
  266loPI   C4A 4250   1.685   0.432   7.932  0.1689  0.2113 -0.0338
  266loPI   C5A 4251   1.545   0.344   7.421 -0.2194  0.2521  0.1960
  266loPI   C6A 4252   1.200   0.148   7.105  0.0442 -0.3275  0.2228
  266loPI   C1B 4253   1.058   0.036   8.723 -0.2370 -0.1421 -0.0666
  266loPI   C2B 4254   1.092   0.185   8.325 -0.1391  0.0934  0.1342
  266loPI   C3B 4255   1.131   0.376   7.912 -0.1323  0.2901 -0.1966
  266loPI   C4B 4256   1.095   0.526   7.509  0.0302 -0.0425  0.1388
  267loPI    C1 4257   9.433  17.364   9.757  0.2439 -0.0814 -0.1050
  267loPI    C2 4258   9.586  17.279  10.117  0.2379 -0.1801 -0.1254
  267loPI    C3 4259   9.244  17.486  10.088  0.3463  0.0074 -0.0789
  267loPI   PO4 4260   9.526  17.202   9.635  0.0127 -0.1488  0.3725
  267loPI   GL1 4261   9.592  17.078   9.249 -0.2373 -0.1633 -0.3722
  267loPI   GL2 4262   9.802  16.831   9.435  0.1388  0.0871 -0.0542
  267loPI   C1A 4263   9.607  16.936   8.880  0.1486 -0.2123 -0.0927
  267loPI   C2A 4264   9.709  17.110   8.628  0.0314 -0.1720  0.0025
  267loPI   C3A 4265   9.882  17.398   8.286 -0.1560 -0.0197  0.0708
  267loPI   C4A 4266   9.891  17.608   7.860  0.2787 -0.0594  0.3342
  267loPI   C5A 4267   9.967  17.938   7.470 -0.0296 -0.0789 -0.0548
  267loPI   C6A 4268   9.634  18.065   7.316 -0.1326  0.0832  0.1508
  267loPI   C1B 4269  10.032  16.925   9.067 -0.0076  0.0103 -0.0440
  267loPI   C2B 4270  10.187  17.002   8.666 -0.2469 -0.2423 -0.2942
  267loPI   C3B 4271  10.260  16.951   8.197 -0.2375  0.0135  0.1977
  267loPI   C4B 4272  10.455  16.919   7.831 -0.0246 -0.2141 -0.0936
  268loPI    C1 4273  16.942   9.513   9.817  0.0255 -0.0939  0.1197
  268loPI    C2 4274  17.204   9.593   9.526 -0.0226 -0.0769  0.0810
  268loPI    C3 4275  17.188   9.226   9.685  0.0434 -0.0705  0.1026
  268loPI   PO4 4276  16.732   9.726   9.738  0.0966  0.0628  0.0629
  268loPI   GL1 4277  16.844   9.899   9.368 -0.3776 -0.0978  0.2109
  268loPI   GL2 4278  16.407   9.802   9.278  0.2493 -0.0739  0.2737
  268loPI   C1A 4279  16.973  10.057   9.037  0.1854  0.4557 -0.1747
  268loPI   C2A 4280  17.286   9.939   8.856  0.0926 -0.1119  0.1770
  268loPI   C3A 4281  17.263   9.748   8.407  0.0184  0.0243 -0.0085
  268loPI   C4A 4282  17.470   9.936   8.015  0.0944  0.1302  0.1540
  268loPI   C5A 4283  17.531  10.066   7.554 -0.1103  0.1295  0.1262
  268loPI   C6A 4284  17.762  10.410   7.312  0.0590 -0.0589  0.0412
  268loPI   C1B 4285  16.494   9.905   8.884 -0.1967  0.3105  0.1423
  268loPI   C2B 4286  16.810  10.079   8.572  0.2151 -0.1457  0.3654
  268loPI   C3B 4287  16.966  10.439   8.370  0.1230 -0.2226 -0.3603
  268loPI   C4B 4288  17.017  10.443   7.968 -0.1690 -0.1056 -0.0291
  269loPI    C1 4289  14.341  12.990   9.776  0.0025  0.2798 -0.2888
  269loPI    C2 4290  14.259  13.371   9.866 -0.2031  0.1975 -0.1208
  269loPI    C3 4291  13.969  13.096   9.876 -0.0729  0.0502 -0.3206
  269loPI   PO4 4292  14.522  12.958   9.513 -0.1447  0.2417  0.0199
  269loPI   GL1 4293  14.434  12.807   9.152  0.4352 -0.0558 -0.1795
  269loPI   GL2 4294  14.347  12.526   9.019  0.1116  0.1889  0.2706
  269loPI   C1A 4295  14.552  13.011   8.761 -0.0961  0.0065 -0.1082
  269loPI   C2A 4296  14.420  13.170   8.479  0.1798 -0.0723  0.2627
  269loPI   C3A 4297  14.519  13.237   8.037  0.2214  0.2747  0.0646
  269loPI   C4A 4298  14.595  13.186   7.520  0.2785  0.0369 -0.0522
  269loPI   C5A 4299  14.576  13.105   7.127  0.3335  0.2422 -0.2461
  269loPI   C6A 4300  14.777  12.740   6.908 -0.2595 -0.1605  0.3281
  269loPI   C1B 4301  14.304  12.612   8.556 -0.0690  0.2781  0.1198
  269loPI   C2B 4302  14.148  12.847   8.203  0.0899 -0.0239 -0.0372
  269loPI   C3B 4303  14.023  12.917   7.743  0.1581  0.0375 -0.1221
  269loPI   C4B 4304  14.091  13.280   7.373 -0.3607  0.0648 -0.0668
  270loPI    C1 4305   6.005   1.399  10.450 -0.1168  0.2441  0.2122
  270loPI    C2 4306   6.358   1.433  10.636 -0.1065  0.3287  0.1780
  270loPI    C3 4307   6.027   1.355  10.847 -0.0720  0.2779  0.2136
  270loPI   PO4 4308   6.089   1.495  10.211  0.1204 -0.0121 -0.2250
  270loPI   GL1 4309   6.267   1.284   9.909  0.0574  0.0358 -0.2883
  270loPI   GL2 4310   6.053   0.993   9.704  0.0475 -0.0168 -0.2945
  270loPI   C1A 4311   6.388   1.338   9.492  0.1132 -0.1622 -0.0088
  270loPI   C2A 4312   6.516   1.339   9.024 -0.1511 -0.0605  0.1457
  270loPI   C3A 4313   6.485   1.336   8.527  0.1083 -0.0976 -0.1539
  270loPI   C4A 4314   6.376   1.603   8.111 -0.2171  0.0303 -0.0834
  270loPI   C5A 4315   6.182   1.733   7.732 -0.0719  0.1957 -0.0996
  270loPI   C6A 4316   6.349   1.560   7.386  0.2393  0.2416 -0.0840
  270loPI   C1B 4317   6.255   0.937   9.186 -0.0888  0.4124  0.3292
  270loPI   C2B 4318   6.450   0.835   8.798 -0.0629  0.0204  0.1584
  270loPI   C3B 4319   6.398   0.880   8.389 -0.1940  0.1205  0.1439
  270loPI   C4B 4320   6.112   1.079   8.204  0.0733  0.3097  0.0433
  271loPI    C1 4321  11.394  17.513   9.823 -0.1173  0.1968 -0.1796
  271loPI    C2 4322  11.696  17.777   9.822  0.0646 -0.0062  0.0135
  271loPI    C3 4323  11.347  17.873   9.992  0.1152  0.1262  0.0438
  271loPI   PO4 4324  11.402  17.381   9.627  0.0706  0.0935  0.1552
  271loPI   GL1 4325  11.508  17.405   9.162 -0.2382 -0.4867 -0.0227
  271loPI   GL2 4326  11.106  17.383   9.187  0.3142  0.1850 -0.1967
  271loPI   C1A 4327  11.450  17.582   8.801  0.0803 -0.0682  0.0699
  271loPI   C2A 4328  11.518  17.688   8.390 -0.1030 -0.1015 -0.0581
  271loPI   C3A 4329  11.273  17.520   8.025 -0.0215 -0.0580 -0.3204
  271loPI   C4A 4330  11.222  17.686   7.589  0.0295  0.0808  0.1360
  271loPI   C5A 4331  11.125  17.843   7.172 -0.0005 -0.0737  0.3221
  271loPI   C6A 4332  11.167  17.791   6.728 -0.1082  0.0093 -0.2907
  271loPI   C1B 4333  10.987  17.435   8.800 -0.0480  0.0187  0.0040
  271loPI   C2B 4334  10.945  17.517   8.362  0.1613 -0.1061  0.1268
  271loPI   C3B 4335  10.715  17.553   7.940 -0.2008  0.3771  0.1152
  271loPI   C4B 4336  10.465  17.831   7.698  0.2011 -0.1488  0.0560
  272loPI    C1 4337   8.081   7.001  10.222  0.0451  0.3693 -0.1314
  272loPI    C2 4338   8.310   7.088  10.538 -0.1715  0.1568  0.0891
  272loPI    C3 4339   8.029   7.346  10.417  0.1781  0.4199 -0.1846
  272loPI   PO4 4340   8.283   6.907   9.950  0.0600  0.0601 -0.1313
  272loPI   GL1 4341   8.413   7.116   9.626  0.0129 -0.0534  0.0505
  272loPI   GL2 4342   8.412   7.408   9.424  0.0651 -0.0544 -0.1449
  272loPI   C1A 4343   8.561   7.051   9.098 -0.2271  0.0022 -0.0632
  272loPI   C2A 4344   8.741   6.968   8.591  0.1563 -0.1783  0.3631
  272loPI   C3A 4345   8.781   6.891   8.210  0.0255 -0.2277  0.0214
  272loPI   C4A 4346   8.592   6.892   7.811  0.0058  0.2442 -0.0557
  272loPI   C5A 4347   8.306   6.878   7.523 -0.0466  0.5308 -0.0024
  272loPI   C6A 4348   8.221   6.775   7.108  0.0745  0.1112  0.1660
  272loPI   C1B 4349   8.290   7.440   9.012  0.0273  0.3475 -0.0909
  272loPI   C2B 4350   7.987   7.430   8.744 -0.1912 -0.0714  0.1411
  272loPI   C3B 4351   7.861   7.355   8.404  0.0158  0.0720 -0.2634
  272loPI   C4B 4352   7.627   7.476   8.131 -0.1588  0.1053 -0.4420
  273loPI    C1 4353  12.875  16.061   9.469 -0.2941  0.0856  0.0704
  273loPI    C2 4354  13.027  16.332   9.216 -0.0510 -0.1871 -0.0810
  273loPI    C3 4355  12.965  16.429   9.599  0.0604  0.0735 -0.1270
  273loPI   PO4 4356  13.047  15.853   9.407 -0.0688  0.4187 -0.2324
  273loPI   GL1 4357  13.356  15.946   9.194  0.2841 -0.0153 -0.1540
  273loPI   GL2 4358  13.631  15.736   9.060 -0.0629 -0.0108  0.0528
  273loPI   C1A 4359  13.230  16.014   8.721 -0.1615 -0.3190 -0.1191
  273loPI   C2A 4360  13.212  16.005   8.328  0.0891 -0.1292  0.0413
  273loPI   C3A 4361  13.152  16.119   7.999 -0.1591  0.0977 -0.2475
  273loPI   C4A 4362  12.980  16.254   7.613  0.0353  0.1076 -0.1130
  273loPI   C5A 4363  13.130  16.564   7.242  0.1335  0.1091 -0.0264
  273loPI   C6A 4364  13.112  16.728   6.873 -0.3117 -0.0828 -0.0781
  273loPI   C1B 4365  13.736  15.840   8.642  0.0347  0.3206 -0.0345
  273loPI   C2B 4366  13.637  15.815   8.180  0.2491 -0.1335 -0.1083
  273loPI   C3B 4367  13.930  15.953   7.911  0.0314 -0.4474  0.1953
  273loPI   C4B 4368  13.992  15.939   7.428 -0.2420  0.0014 -0.1823
  274loPI    C1 4369   6.667   9.045  10.172  0.1942  0.0342 -0.1889
  274loPI    C2 4370   7.055   8.944  10.164  0.1844 -0.0095 -0.1212
  274loPI    C3 4371   6.898   9.110  10.493  0.0606 -0.3361 -0.0116
  274loPI   PO4 4372   6.609   9.084   9.941 -0.4938 -0.2792 -0.0669
  274loPI   GL1 4373   6.492   8.830   9.553 -0.0187 -0.3027 -0.1350
  274loPI   GL2 4374   6.886   8.929   9.491 -0.2461  0.0656  0.1211
  274loPI   C1A 4375   6.160   8.625   9.233  0.3296 -0.0430 -0.0212
  274loPI   C2A 4376   6.251   8.495   8.866 -0.0667  0.1428  0.3814
  274loPI   C3A 4377   6.213   8.383   8.445 -0.1023  0.3513  0.0054
  274loPI   C4A 4378   6.188   8.354   8.023 -0.0702 -0.2643  0.1746
  274loPI   C5A 4379   6.493   8.293   7.808  0.2684 -0.0707  0.5470
  274loPI   C6A 4380   6.638   8.281   7.471  0.0228  0.0299  0.2558
  274loPI   C1B 4381   6.737   8.634   9.135 -0.0679 -0.2245 -0.1406
  274loPI   C2B 4382   6.661   8.795   8.775  0.2722 -0.2025 -0.2470
  274loPI   C3B 4383   6.447   8.802   8.252 -0.0807  0.1022  0.2009
  274loPI   C4B 4384   6.381   8.932   7.818 -0.0916 -0.0909 -0.1056
  275loPI    C1 4385  13.106   5.965   9.998  0.2609  0.0173  0.1474
  275loPI    C2 4386  13.384   6.245  10.065  0.2634  0.0476  0.0127
  275loPI    C3 4387  13.130   6.141  10.356  0.2009  0.2582  0.0347
  275loPI   PO4 4388  13.015   5.961   9.697 -0.2248 -0.2092 -0.2092
  275loPI   GL1 4389  13.204   5.725   9.384 -0.3108  0.1943 -0.4698
  275loPI   GL2 4390  12.998   5.520   9.300 -0.0792 -0.1333  0.0951
  275loPI   C1A 4391  13.363   5.973   9.074 -0.1623  0.1527 -0.0464
  275loPI   C2A 4392  13.265   6.356   9.160  0.0121 -0.2635 -0.0272
  275loPI   C3A 4393  13.117   6.633   8.874  0.1612  0.4966 -0.1135
  275loPI   C4A 4394  13.077   6.686   8.408 -0.0102 -0.1551 -0.1783
  275loPI   C5A 4395  13.008   6.805   7.949  0.1697  0.0547 -0.0265
  275loPI   C6A 4396  12.664   6.819   7.691  0.1701 -0.0488  0.2092
  275loPI   C1B 4397  12.985   5.553   8.939  0.0574  0.1542  0.0532
  275loPI   C2B 4398  13.121   5.618   8.538  0.1775 -0.4964  0.0175
  275loPI   C3B 4399  13.064   5.775   8.216  0.1986 -0.0419  0.1323
  275loPI   C4B 4400  13.074   5.924   7.813  0.0780  0.3083  0.1600
  276loPI    C1 4401  13.476  10.757  10.157  0.0965 -0.0626  0.2772
  276loPI    C2 4402  13.661  11.111  10.188 -0.0078  0.0166  0.0227
  276loPI    C3 4403  13.865  10.773  10.250  0.1851  0.1085 -0.1012
  276loPI   PO4 4404  13.341  10.719   9.988 -0.1980 -0.0096  0.3183
  276loPI   GL1 4405  13.237  10.665   9.465 -0.3060 -0.1511 -0.2600
  276loPI   GL2 4406  12.947  10.894   9.383 -0.0216 -0.0444 -0.1476
  276loPI   C1A 4407  13.435  10.617   9.081 -0.0670 -0.1079 -0.3827
  276loPI   C2A 4408  13.565  10.713   8.611  0.0574 -0.0850  0.2135
  276loPI   C3A 4409  13.814  10.541   8.349  0.2466  0.0131  0.1070
  276loPI   C4A 4410  14.080  10.231   8.128  0.2549  0.1015  0.0845
  276loPI   C5A 4411  14.105   9.967   7.597 -0.0476 -0.3548  0.0453
  276loPI   C6A 4412  14.055   9.636   7.286 -0.0717  0.0528 -0.2576
  276loPI   C1B 4413  13.238  11.119   9.169 -0.2207 -0.0347 -0.0562
  276loPI   C2B 4414  13.359  11.043   8.828 -0.0275 -0.5462  0.1974
  276loPI   C3B 4415  13.149  11.000   8.387  0.0340 -0.3705 -0.1356
  276loPI   C4B 4416  12.901  11.115   8.136  0.0561 -0.1393  0.3421
  277loPI    C1 4417  10.404  11.036   9.963 -0.3518 -0.4971 -0.1787
  277loPI    C2 4418  10.239  10.794  10.235  0.0698 -0.2564  0.3079
  277loPI    C3 4419  10.319  11.174  10.329  0.1766 -0.1533 -0.1758
  277loPI   PO4 4420  10.244  10.999   9.620  0.1870  0.2321  0.1596
  277loPI   GL1 4421  10.362  11.240   9.239  0.2734 -0.1875  0.3957
  277loPI   GL2 4422  10.182  11.518   9.050 -0.1007  0.1178  0.2744
  277loPI   C1A 4423  10.505  10.991   8.964 -0.0477  0.1473 -0.1239
  277loPI   C2A 4424  10.588  10.867   8.517 -0.0382  0.1017  0.0725
  277loPI   C3A 4425  10.623  10.871   7.993  0.2302  0.1227 -0.2447
  277loPI   C4A 4426  10.996  10.884   7.775  0.0613 -0.4047  0.2563
  277loPI   C5A 4427  11.039  10.980   7.348  0.0011 -0.1130 -0.2263
  277loPI   C6A 4428  10.882  11.181   7.067 -0.2094  0.1338 -0.0125
  277loPI   C1B 4429  10.349  11.476   8.677  0.3076 -0.1656  0.4087
  277loPI   C2B 4430  10.359  11.317   8.319  0.1854  0.1163  0.1147
  277loPI   C3B 4431  10.173  11.377   7.929  0.1395 -0.1198  0.0732
  277loPI   C4B 4432   9.721  11.357   7.943 -0.5730  0.0328 -0.2404
  278loPI    C1 4433   8.313  12.631   9.726  0.0970  0.0098 -0.1194
  278loPI    C2 4434   8.311  12.259   9.873  0.3676 -0.0041 -0.1453
  278loPI    C3 4435   8.339  12.572  10.121 -0.2000  0.0182 -0.0967
  278loPI   PO4 4436   8.312  12.615   9.474  0.0262  0.1788 -0.1770
  278loPI   GL1 4437   8.578  12.671   9.099 -0.1061 -0.0415 -0.0369
  278loPI   GL2 4438   8.609  12.867   8.989  0.1125 -0.0197  0.2249
  278loPI   C1A 4439   8.502  12.421   8.780  0.4094  0.2425 -0.2812
  278loPI   C2A 4440   8.611  12.468   8.398  0.1255 -0.0698 -0.0576
  278loPI   C3A 4441   8.463  12.376   7.928  0.2443 -0.2773 -0.1670
  278loPI   C4A 4442   8.407  12.426   7.496 -0.1141  0.1336 -0.2226
  278loPI   C5A 4443   8.321  12.740   7.203  0.0326 -0.1123  0.3450
  278loPI   C6A 4444   8.155  12.785   6.846  0.1796 -0.1205  0.2312
  278loPI   C1B 4445   8.652  13.061   8.525 -0.0398 -0.3324 -0.3617
  278loPI   C2B 4446   8.654  13.049   8.122 -0.2826  0.0980  0.0589
  278loPI   C3B 4447   8.377  13.048   7.699  0.1587  0.0922 -0.0287
  278loPI   C4B 4448   8.521  13.206   7.293 -0.3834 -0.0241  0.1060
  279loPI    C1 4449  13.592   3.255   9.555  0.0580 -0.0453  0.0984
  279loPI    C2 4450  13.293   3.090   9.346 -0.0454  0.0109  0.2004
  279loPI    C3 4451  13.570   2.857   9.517 -0.0155 -0.0400  0.0836
  279loPI   PO4 4452  13.461   3.511   9.635 -0.2765 -0.3319 -0.1504
  279loPI   GL1 4453  13.100   3.549   9.377  0.0613 -0.1589 -0.1366
  279loPI   GL2 4454  13.329   3.616   9.187 -0.0016 -0.3692 -0.0873
  279loPI   C1A 4455  12.945   3.417   9.031 -0.0464  0.1364 -0.0270
  279loPI   C2A 4456  12.642   3.595   8.745 -0.2088 -0.2675 -0.0289
  279loPI   C3A 4457  12.399   3.652   8.328 -0.3524 -0.3156 -0.4496
  279loPI   C4A 4458  12.305   3.699   7.818  0.1358  0.0105 -0.1041
  279loPI   C5A 4459  12.272   3.980   7.445  0.3413 -0.0604 -0.0212
  279loPI   C6A 4460  12.337   4.464   7.395 -0.2582  0.0519  0.1118
  279loPI   C1B 4461  13.579   3.904   8.911 -0.2270 -0.2631 -0.3667
  279loPI   C2B 4462  13.737   4.208   8.675  0.3035 -0.0844 -0.1060
  279loPI   C3B 4463  13.680   4.349   8.226  0.0932  0.2838  0.0693
  279loPI   C4B 4464  13.596   4.265   7.838  0.1433 -0.1414  0.0915
  280loPI    C1 4465   0.370   2.055  10.085 -0.1711  0.1885 -0.0040
  280loPI    C2 4466   0.501   2.182  10.442  0.0946  0.0539 -0.0509
  280loPI    C3 4467   0.178   1.947  10.419 -0.0702  0.2637  0.0791
  280loPI   PO4 4468   0.348   2.294   9.895 -0.0779  0.0537 -0.2316
  280loPI   GL1 4469   0.327   2.407   9.495  0.1357 -0.1226 -0.1905
  280loPI   GL2 4470   0.204   2.095   9.418  0.1917 -0.0355 -0.1283
  280loPI   C1A 4471   0.731   2.110   9.380 -0.0790 -0.3980 -0.2451
  280loPI   C2A 4472   0.893   2.058   9.044 -0.2348 -0.1003 -0.1041
  280loPI   C3A 4473   1.157   2.179   8.743 -0.0269  0.1340 -0.1799
  280loPI   C4A 4474   1.424   2.283   8.340  0.3345  0.1043 -0.2779
  280loPI   C5A 4475   1.518   2.051   7.885 -0.1705 -0.2177  0.2504
  280loPI   C6A 4476   1.631   1.916   7.576  0.0169 -0.0146 -0.4128
  280loPI   C1B 4477   0.432   1.808   9.055 -0.1033  0.0745  0.2546
  280loPI   C2B 4478   0.641   1.817   8.723  0.2147 -0.1985 -0.1138
  280loPI   C3B 4479   0.854   1.737   8.383 -0.0561 -0.1351 -0.2447
  280loPI   C4B 4480   1.095   1.840   7.960  0.2417  0.4454  0.1487
  281loPI    C1 4481  11.550  13.490   9.453 -0.1030  0.0949 -0.0579
  281loPI    C2 4482  11.818  13.776   9.533 -0.0296  0.0069  0.0135
  281loPI    C3 4483  11.566  13.652   9.819  0.1099 -0.1786  0.0582
  281loPI   PO4 4484  11.546  13.552   9.207  0.2105  0.1369  0.1638
  281loPI   GL1 4485  11.467  13.480   8.802 -0.0672  0.0035  0.1239
  281loPI   GL2 4486  11.779  13.308   8.848  0.0770 -0.0524  0.1869
  281loPI   C1A 4487  11.487  13.725   8.481  0.3522  0.0369 -0.1678
  281loPI   C2A 4488  11.768  13.947   8.331  0.0834  0.0963  0.0916
  281loPI   C3A 4489  11.907  14.088   7.922  0.2225 -0.0057  0.0931
  281loPI   C4A 4490  11.954  13.988   7.537  0.2460  0.3703 -0.0863
  281loPI   C5A 4491  11.802  13.823   7.044 -0.1829 -0.0213 -0.0040
  281loPI   C6A 4492  11.957  13.698   6.641 -0.0195  0.2015  0.3300
  281loPI   C1B 4493  11.893  13.400   8.441 -0.1093 -0.0435 -0.2896
  281loPI   C2B 4494  11.669  13.518   8.075 -0.0676 -0.2162  0.4036
  281loPI   C3B 4495  11.588  13.597   7.642  0.1929 -0.2609  0.1455
  281loPI   C4B 4496  11.306  13.671   7.264 -0.1351  0.1263 -0.1391
  282loPI    C1 4497   4.160   3.184  10.149  0.0102  0.0585  0.0132
  282loPI    C2 4498   3.848   2.933  10.153 -0.1088  0.2062  0.1390
  282loPI    C3 4499   4.025   3.036  10.496  0.1343  0.0563  0.0610
  282loPI   PO4 4500   4.159   3.487  10.012  0.0471  0.0010 -0.0688
  282loPI   GL1 4501   4.208   3.685   9.631  0.2228  0.3167  0.2486
  282loPI   GL2 4502   3.895   3.624   9.544  0.1917 -0.0612 -0.0247
  282loPI   C1A 4503   4.315   3.850   9.262  0.1193 -0.0670  0.0254
  282loPI   C2A 4504   4.479   3.987   8.844 -0.2005 -0.0463 -0.0938
  282loPI   C3A 4505   4.392   4.118   8.373 -0.2564 -0.1273 -0.0865
  282loPI   C4A 4506   4.476   4.057   7.914  0.1085 -0.0530  0.1870
  282loPI   C5A 4507   4.365   4.071   7.575 -0.0060 -0.0015 -0.1654
  282loPI   C6A 4508   4.549   3.931   7.132 -0.2247  0.0610  0.0638
  282loPI   C1B 4509   3.929   3.587   9.086 -0.4765 -0.0611  0.2085
  282loPI   C2B 4510   4.036   3.831   8.771  0.1299 -0.4414 -0.3067
  282loPI   C3B 4511   3.876   3.797   8.286  0.0112 -0.1174 -0.2982
  282loPI   C4B 4512   3.940   4.015   7.983  0.1650  0.0702 -0.1037
  283loPI    C1 4513   7.368  16.997   9.431 -0.0787  0.0025  0.0394
  283loPI    C2 4514   7.187  16.760   9.697 -0.0116 -0.0710  0.0199
  283loPI    C3 4515   7.197  17.155   9.756 -0.1033 -0.0750  0.0643
  283loPI   PO4 4516   7.197  17.068   9.242  0.0628 -0.1715  0.2353
  283loPI   GL1 4517   7.235  17.013   8.810  0.0523  0.3168  0.1046
  283loPI   GL2 4518   6.824  17.004   8.933  0.2331  0.1765  0.1415
  283loPI   C1A 4519   7.185  16.673   8.516  0.2654 -0.1684  0.0751
  283loPI   C2A 4520   7.134  16.616   8.106 -0.0870 -0.0864  0.4298
  283loPI   C3A 4521   6.907  16.695   7.778  0.0702  0.2956  0.3188
  283loPI   C4A 4522   6.819  16.670   7.378  0.0381 -0.0249 -0.1481
  283loPI   C5A 4523   6.459  16.743   7.124 -0.2958  0.0780 -0.4663
  283loPI   C6A 4524   6.029  16.723   7.216  0.0439 -0.0678 -0.0812
  283loPI   C1B 4525   6.770  17.239   8.564  0.0244  0.0483  0.1077
  283loPI   C2B 4526   6.619  17.662   8.268 -0.0116 -0.0974  0.2345
  283loPI   C3B 4527   6.503  17.720   7.813 -0.0268  0.2697 -0.0601
  283loPI   C4B 4528   6.489  17.601   7.422  0.0400 -0.2333 -0.1172
  284loPI    C1 4529  14.165  14.307  10.042 -0.0650  0.0298  0.1913
  284loPI    C2 4530  13.959  14.225   9.709  0.0765  0.2723  0.0411
  284loPI    C3 4531  13.939  13.977  10.022 -0.0497  0.0361 -0.1498
  284loPI   PO4 4532  14.349  14.501   9.854 -0.2399 -0.0265  0.2153
  284loPI   GL1 4533  14.283  14.588   9.400  0.2469 -0.0087 -0.0605
  284loPI   GL2 4534  14.320  14.294   9.382  0.1194  0.0060  0.1077
  284loPI   C1A 4535  14.039  14.529   8.963  0.0004  0.2289  0.2032
  284loPI   C2A 4536  13.956  14.328   8.569  0.0677 -0.1252 -0.0739
  284loPI   C3A 4537  14.171  14.034   8.260  0.1033 -0.0116  0.1556
  284loPI   C4A 4538  14.189  14.056   7.771  0.2319 -0.2176 -0.0040
  284loPI   C5A 4539  14.318  14.325   7.449 -0.5635  0.4546  0.1209
  284loPI   C6A 4540  14.637  14.402   7.086  0.0302  0.0991  0.2041
  284loPI   C1B 4541  14.413  14.253   8.984  0.3187 -0.1322 -0.0423
  284loPI   C2B 4542  14.464  14.395   8.533  0.0614  0.4009  0.3093
  284loPI   C3B 4543  14.629  14.246   8.059 -0.1501  0.0676 -0.0381
  284loPI   C4B 4544  14.820  14.199   7.584  0.1291  0.0526 -0.2735
  285loPI    C1 4545  12.609   7.328  10.003 -0.0007  0.1352 -0.0537
  285loPI    C2 4546  12.822   7.578  10.231  0.1346  0.1226 -0.1648
  285loPI    C3 4547  12.821   7.186  10.310 -0.1681  0.1684  0.0786
  285loPI   PO4 4548  12.643   7.395   9.800 -0.2365 -0.2371 -0.0836
  285loPI   GL1 4549  12.707   7.399   9.439 -0.0111 -0.1888  0.0304
  285loPI   GL2 4550  12.831   7.156   9.393  0.0035  0.2214  0.0323
  285loPI   C1A 4551  12.804   7.536   9.015  0.2089 -0.1279  0.3449
  285loPI   C2A 4552  12.993   7.584   8.580  0.1492  0.0103  0.0800
  285loPI   C3A 4553  12.967   7.604   8.081 -0.1580  0.2943  0.2220
  285loPI   C4A 4554  12.998   7.713   7.638 -0.1411 -0.6749  0.2028
  285loPI   C5A 4555  13.159   7.890   7.251 -0.1887  0.0587  0.0694
  285loPI   C6A 4556  13.053   8.101   6.946  0.0191 -0.0917 -0.2251
  285loPI   C1B 4557  12.763   7.037   9.020  0.1221  0.1827  0.2558
  285loPI   C2B 4558  12.700   7.054   8.536  0.0751  0.3076  0.3845
  285loPI   C3B 4559  12.663   7.095   8.121  0.2333 -0.1448 -0.0294
  285loPI   C4B 4560  12.756   7.292   7.691 -0.1822  0.3225 -0.1158
  286loPI    C1 4561   8.500  10.628   9.845  0.0855 -0.0873  0.1879
  286loPI    C2 4562   8.831  10.851   9.876  0.0459  0.0047 -0.0299
  286loPI    C3 4563   8.489  10.975  10.044  0.0352  0.0871 -0.1117
  286loPI   PO4 4564   8.432  10.573   9.642  0.1912 -0.0728 -0.1431
  286loPI   GL1 4565   8.309  10.431   9.245  0.0912  0.1930  0.2266
  286loPI   GL2 4566   8.495  10.601   9.133 -0.1433 -0.0556  0.2412
  286loPI   C1A 4567   8.214  10.269   8.799 -0.0710  0.1354  0.0510
  286loPI   C2A 4568   8.042  10.304   8.374  0.0800  0.1205 -0.2511
  286loPI   C3A 4569   8.174  10.207   7.983  0.4862  0.0402 -0.1502
  286loPI   C4A 4570   8.285  10.119   7.604  0.0112  0.1307 -0.0868
  286loPI   C5A 4571   8.599   9.958   7.417  0.1949  0.2233  0.1578
  286loPI   C6A 4572   8.948  10.118   7.239 -0.0108  0.3125  0.1835
  286loPI   C1B 4573   8.627  10.544   8.806  0.1158 -0.0336  0.2646
  286loPI   C2B 4574   8.537  10.514   8.415  0.1575 -0.2632  0.1589
  286loPI   C3B 4575   8.689  10.530   8.074 -0.1209 -0.2517 -0.3461
  286loPI   C4B 4576   8.761  10.276   7.742 -0.0072 -0.2306  0.0569
  287loPI    C1 4577  10.049   6.401   9.872 -0.0837 -0.0057 -0.0577
  287loPI    C2 4578   9.714   6.247  10.028  0.0912 -0.2009  0.1311
  287loPI    C3 4579  10.061   6.213  10.225  0.2244 -0.0045 -0.0650
  287loPI   PO4 4580  10.085   6.229   9.569 -0.4085  0.2220 -0.3799
  287loPI   GL1 4581   9.924   6.077   9.190 -0.4295  0.0129  0.2341
  287loPI   GL2 4582  10.099   6.367   9.092 -0.1643  0.0814 -0.0068
  287loPI   C1A 4583   9.863   5.955   8.685 -0.1523  0.1768  0.3647
  287loPI   C2A 4584   9.911   6.036   8.232  0.4698 -0.0787  0.1190
  287loPI   C3A 4585   9.772   6.167   7.766 -0.1480  0.1701 -0.0928
  287loPI   C4A 4586   9.400   6.021   7.470 -0.0228  0.1096 -0.1887
  287loPI   C5A 4587   9.095   5.736   7.554 -0.2785 -0.0460 -0.0222
  287loPI   C6A 4588   8.888   5.530   7.711  0.2613  0.1094  0.0370
  287loPI   C1B 4589  10.325   6.148   8.765 -0.0938 -0.0908  0.0905
  287loPI   C2B 4590  10.505   6.180   8.380 -0.0552 -0.0467 -0.0284
  287loPI   C3B 4591  10.424   6.136   7.962  0.0135  0.0174 -0.1110
  287loPI   C4B 4592  10.328   6.494   7.752  0.3068  0.1372 -0.3824
  288loPI    C1 4593  12.196  14.718   9.415  0.0459 -0.0219 -0.0492
  288loPI    C2 4594  12.518  14.489   9.484  0.1267  0.0803 -0.0846
  288loPI    C3 4595  12.435  14.797   9.726 -0.0712 -0.0816  0.0564
  288loPI   PO4 4596  12.154  14.739   9.139  0.0472 -0.2003 -0.0961
  288loPI   GL1 4597  11.902  14.908   8.886  0.0769 -0.4750  0.0934
  288loPI   GL2 4598  12.003  15.268   8.768 -0.2022 -0.1316  0.1825
  288loPI   C1A 4599  11.880  14.833   8.496 -0.0643 -0.1009  0.0539
  288loPI   C2A 4600  11.937  14.771   7.984 -0.1388  0.3316 -0.1493
  288loPI   C3A 4601  12.008  14.656   7.636 -0.2050  0.2023 -0.1311
  288loPI   C4A 4602  11.814  14.471   7.320 -0.4179  0.4025 -0.0890
  288loPI   C5A 4603  11.736  14.334   6.937  0.2250 -0.0855  0.3843
  288loPI   C6A 4604  11.883  14.162   6.553  0.3243 -0.0806  0.2185
  288loPI   C1B 4605  12.329  15.349   8.443 -0.2689 -0.0245  0.3099
  288loPI   C2B 4606  12.491  15.357   8.122  0.1122  0.1695 -0.0100
  288loPI   C3B 4607  12.561  15.327   7.691 -0.1055 -0.0076 -0.2157
  288loPI   C4B 4608  12.775  15.410   7.350 -0.2809  0.2718  0.1457
  289loPI    C1 4609   2.860   4.334  10.513 -0.1375 -0.1262 -0.0147
  289loPI    C2 4610   3.239   4.457  10.481 -0.1849  0.0529  0.0959
  289loPI    C3 4611   3.159   4.081  10.591 -0.0384 -0.0694 -0.2044
  289loPI   PO4 4612   2.723   4.375  10.364  0.2470  0.0709  0.0602
  289loPI   GL1 4613   2.721   4.446   9.921 -0.0066  0.2199  0.0008
  289loPI   GL2 4614   2.412   4.666   9.754  0.0924  0.2044  0.1004
  289loPI   C1A 4615   2.729   4.181   9.546  0.1057  0.0489 -0.0358
  289loPI   C2A 4616   2.972   4.217   9.220 -0.1619  0.1516 -0.1996
  289loPI   C3A 4617   3.057   4.215   8.825  0.0047 -0.2019 -0.2551
  289loPI   C4A 4618   2.930   4.115   8.356 -0.1706  0.4116 -0.0451
  289loPI   C5A 4619   3.012   4.407   7.909  0.0213 -0.1135  0.1056
  289loPI   C6A 4620   2.812   4.460   7.547  0.2600  0.2120  0.2842
  289loPI   C1B 4621   2.438   4.523   9.341 -0.4952 -0.0388 -0.0335
  289loPI   C2B 4622   2.577   4.414   8.861 -0.0172 -0.0793 -0.1056
  289loPI   C3B 4623   2.608   4.436   8.460 -0.1772  0.1429  0.3215
  289loPI   C4B 4624   2.517   4.564   7.954  0.1457  0.0354 -0.0364
  290loPI    C1 4625  13.732   8.679   9.998 -0.2452  0.2525  0.1585
  290loPI    C2 4626  13.955   8.733  10.326  0.0999  0.1430 -0.0521
  290loPI    C3 4627  13.564   8.657  10.360  0.1447  0.0637  0.3345
  290loPI   PO4 4628  13.865   8.684   9.809 -0.0394  0.3848  0.1097
  290loPI   GL1 4629  13.668   8.659   9.432  0.1157 -0.2771  0.0722
  290loPI   GL2 4630  13.303   8.676   9.527 -0.4143 -0.1734  0.4260
  290loPI   C1A 4631  14.073   8.592   9.166  0.0361  0.4029 -0.2714
  290loPI   C2A 4632  14.230   8.259   8.842  0.3229  0.2314  0.0864
  290loPI   C3A 4633  14.272   8.140   8.351 -0.2996  0.1749  0.4304
  290loPI   C4A 4634  14.321   8.271   7.920  0.0505 -0.0771 -0.1468
  290loPI   C5A 4635  14.275   8.501   7.581  0.1751  0.4064  0.1664
  290loPI   C6A 4636  14.497   8.493   7.018  0.2748 -0.2488  0.1008
  290loPI   C1B 4637  13.483   9.117   9.396  0.0765 -0.0522 -0.0435
  290loPI   C2B 4638  13.705   9.415   9.149  0.2180 -0.4067 -0.3170
  290loPI   C3B 4639  13.642   9.531   8.631 -0.1441  0.0123 -0.0739
  290loPI   C4B 4640  13.437   9.714   8.308  0.1266  0.1339  0.0936
  291loPI    C1 4641  14.301   3.389   9.604  0.0123 -0.0892 -0.0035
  291loPI    C2 4642  13.990   3.563   9.785  0.1338  0.1083  0.0188
  291loPI    C3 4643  14.133   3.215   9.922 -0.1416 -0.0374 -0.0557
  291loPI   PO4 4644  14.362   3.436   9.366 -0.0506 -0.0367 -0.2274
  291loPI   GL1 4645  14.145   3.304   8.964  0.0550  0.0804  0.2512
  291loPI   GL2 4646  14.350   3.089   8.974  0.0651  0.3601 -0.1880
  291loPI   C1A 4647  14.240   3.512   8.596 -0.2936 -0.0938  0.1948
  291loPI   C2A 4648  14.185   3.533   8.227  0.1722  0.0169 -0.1669
  291loPI   C3A 4649  13.917   3.461   7.968 -0.3056  0.1605 -0.1793
  291loPI   C4A 4650  13.759   3.543   7.705  0.4950  0.2367 -0.0497
  291loPI   C5A 4651  13.542   3.915   7.418 -0.4158 -0.0243  0.0819
  291loPI   C6A 4652  13.722   4.005   7.018 -0.1440  0.1091 -0.0683
  291loPI   C1B 4653  14.417   3.025   8.493 -0.1921  0.0503 -0.5781
  291loPI   C2B 4654  14.413   3.069   8.091  0.1934  0.1328 -0.0813
  291loPI   C3B 4655  14.418   3.007   7.701  0.0658  0.0338  0.1853
  291loPI   C4B 4656  14.072   3.235   7.475  0.2097 -0.2293 -0.0765
  292loPI    C1 4657  11.309   6.747   9.629  0.2254  0.0545  0.0681
  292loPI    C2 4658  11.216   6.573   9.977  0.1250  0.2114  0.1210
  292loPI    C3 4659  11.500   6.854   9.963  0.3214  0.0113  0.0273
  292loPI   PO4 4660  11.437   6.578   9.488  0.1199 -0.1226  0.1676
  292loPI   GL1 4661  11.316   6.415   9.157  0.1283 -0.2952  0.1010
  292loPI   GL2 4662  11.130   6.177   9.059  0.2088  0.3132  0.0850
  292loPI   C1A 4663  11.366   6.606   8.800  0.4460 -0.0088 -0.1030
  292loPI   C2A 4664  11.357   6.702   8.396 -0.1229  0.0197  0.0028
  292loPI   C3A 4665  11.546   6.704   8.030 -0.1006  0.1358 -0.2252
  292loPI   C4A 4666  11.369   6.562   7.653  0.0307 -0.0259  0.0948
  292loPI   C5A 4667  11.310   6.232   7.406  0.0774  0.2273 -0.1557
  292loPI   C6A 4668  11.168   5.834   7.121 -0.1443  0.2822  0.1720
  292loPI   C1B 4669  10.791   5.963   8.800  0.1375  0.1028  0.2484
  292loPI   C2B 4670  10.829   5.806   8.373 -0.1111 -0.0356 -0.0784
  292loPI   C3B 4671  10.700   5.709   8.030 -0.1033  0.1916  0.1204
  292loPI   C4B 4672  10.506   5.682   7.644 -0.3025 -0.0008 -0.2195
  293loPI    C1 4673   3.661   6.247  10.544 -0.0676 -0.0122 -0.1982
  293loPI    C2 4674   3.652   6.638  10.626  0.1308 -0.0590  0.0607
  293loPI    C3 4675   3.532   6.373  10.901  0.0897 -0.1857 -0.0779
  293loPI   PO4 4676   3.550   6.315  10.219  0.0519 -0.1297 -0.0213
  293loPI   GL1 4677   3.544   6.506   9.725  0.2873 -0.3182 -0.1299
  293loPI   GL2 4678   3.230   6.348   9.611  0.3317  0.0137  0.3631
  293loPI   C1A 4679   3.695   6.618   9.402 -0.2316  0.0457 -0.0780
  293loPI   C2A 4680   3.619   6.630   9.021  0.0358  0.2996  0.2883
  293loPI   C3A 4681   3.512   6.620   8.573 -0.0629  0.1823 -0.0555
  293loPI   C4A 4682   3.567   6.469   8.104  0.2005  0.1292  0.0448
  293loPI   C5A 4683   3.570   6.466   7.631 -0.0924  0.1651  0.2389
  293loPI   C6A 4684   3.340   6.516   7.257 -0.3558 -0.2919  0.0595
  293loPI   C1B 4685   3.232   6.273   9.140 -0.1446 -0.0952  0.1609
  293loPI   C2B 4686   3.150   6.315   8.692 -0.0534  0.1532 -0.0265
  293loPI   C3B 4687   3.084   6.540   8.295 -0.3334 -0.2231  0.0366
  293loPI   C4B 4688   3.088   6.582   7.877  0.2693  0.0690 -0.2401
  294loPI    C1 4689   3.514  10.758  10.036 -0.0737  0.1494  0.0898
  294loPI    C2 4690   3.826  10.585  10.217 -0.1542 -0.1763 -0.0756
  294loPI    C3 4691   3.561  10.794  10.432  0.1612  0.0829  0.0694
  294loPI   PO4 4692   3.517  10.590   9.772  0.2179 -0.2083  0.2022
  294loPI   GL1 4693   3.269  10.622   9.341  0.0298 -0.0626 -0.0495
  294loPI   GL2 4694   2.898  10.548   9.387 -0.0984  0.3037  0.0256
  294loPI   C1A 4695   3.275  10.537   8.902  0.2431 -0.1445  0.0941
  294loPI   C2A 4696   3.531  10.549   8.479 -0.2191  0.1512 -0.4706
  294loPI   C3A 4697   3.554  10.680   8.024  0.0652  0.2414 -0.2246
  294loPI   C4A 4698   3.643  10.771   7.557 -0.0475 -0.4565 -0.0469
  294loPI   C5A 4699   3.822  10.733   7.269 -0.1080  0.2154 -0.1801
  294loPI   C6A 4700   3.930  10.456   6.926 -0.1992  0.0235  0.0347
  294loPI   C1B 4701   2.837  10.329   8.915 -0.0297 -0.3358 -0.0493
  294loPI   C2B 4702   3.064  10.320   8.526  0.5447 -0.2593  0.1941
  294loPI   C3B 4703   3.168  10.363   8.101 -0.0162  0.0588 -0.2306
  294loPI   C4B 4704   3.228  10.248   7.740 -0.0534 -0.0355  0.0595
  295loPI    C1 4705   0.566   7.074  10.394 -0.0488  0.0473  0.2195
  295loPI    C2 4706   0.458   6.800  10.124 -0.2067  0.1985  0.1270
  295loPI    C3 4707   0.750   6.719  10.385  0.0350  0.0956 -0.1688
  295loPI   PO4 4708   0.674   7.284  10.271 -0.1167 -0.2496 -0.1048
  295loPI   GL1 4709   0.794   7.215   9.783  0.6356 -0.0589 -0.3048
  295loPI   GL2 4710   0.517   7.151   9.658 -0.0894 -0.0659 -0.0567
  295loPI   C1A 4711   1.097   6.995   9.336  0.1461 -0.2383  0.0712
  295loPI   C2A 4712   1.234   6.937   8.785 -0.2548  0.1322 -0.0444
  295loPI   C3A 4713   1.440   7.230   8.418 -0.2729  0.1450 -0.1616
  295loPI   C4A 4714   1.345   7.561   7.990  0.4195 -0.0954  0.1390
  295loPI   C5A 4715   1.233   7.703   7.670  0.5456 -0.0155  0.0583
  295loPI   C6A 4716   1.265   8.182   7.441  0.3463 -0.0021  0.3370
  295loPI   C1B 4717   0.626   7.065   9.224 -0.3124  0.2196  0.0406
  295loPI   C2B 4718   0.773   6.890   8.917 -0.0060  0.0012  0.2170
  295loPI   C3B 4719   0.752   6.927   8.453  0.1894 -0.1640 -0.1768
  295loPI   C4B 4720   0.874   6.582   8.050 -0.0852 -0.0713  0.3456
  296loPI    C1 4721  12.410   3.726   9.907 -0.0603  0.2141  0.0673
  296loPI    C2 4722  12.656   3.781  10.218 -0.0725  0.4536  0.0362
  296loPI    C3 4723  12.293   3.623  10.275  0.2025 -0.2079  0.0400
  296loPI   PO4 4724  12.640   3.675   9.637 -0.5408  0.1984 -0.0420
  296loPI   GL1 4725  12.621   3.779   9.274  0.3369  0.0046 -0.1470
  296loPI   GL2 4726  12.873   3.991   9.311  0.0315  0.1229 -0.1248
  296loPI   C1A 4727  12.279   3.821   9.012  0.1027  0.0124 -0.2647
  296loPI   C2A 4728  12.057   3.884   8.652 -0.1369  0.0479 -0.0448
  296loPI   C3A 4729  11.990   3.923   8.159  0.2070 -0.3067 -0.1106
  296loPI   C4A 4730  12.033   4.200   7.835 -0.0722  0.1224  0.2502
  296loPI   C5A 4731  11.852   4.218   7.507  0.1411 -0.2219  0.3379
  296loPI   C6A 4732  11.619   4.429   7.182 -0.2890 -0.0945 -0.2564
  296loPI   C1B 4733  13.023   3.935   8.942  0.1646 -0.0362  0.3371
  296loPI   C2B 4734  12.987   3.790   8.473 -0.0617 -0.0082 -0.0639
  296loPI   C3B 4735  12.856   3.626   8.096  0.0516 -0.4254  0.1033
  296loPI   C4B 4736  12.961   3.308   7.753 -0.1523  0.2082 -0.1460
  297loPI    C1 4737   8.423   2.262  10.284  0.1801 -0.0524 -0.0081
  297loPI    C2 4738   8.446   2.573  10.535  0.1853  0.0364 -0.1182
  297loPI    C3 4739   8.248   2.243  10.643 -0.1584  0.2271 -0.1534
  297loPI   PO4 4740   8.321   2.340  10.101  0.1029 -0.0201 -0.2435
  297loPI   GL1 4741   8.323   2.358   9.699 -0.4477 -0.2726 -0.0265
  297loPI   GL2 4742   8.172   2.419   9.564  0.1586 -0.1479  0.0093
  297loPI   C1A 4743   8.655   2.292   9.489  0.0565 -0.0148  0.1893
  297loPI   C2A 4744   8.823   2.162   9.103  0.0375  0.0872 -0.2410
  297loPI   C3A 4745   8.788   1.972   8.671 -0.1014 -0.0602 -0.0063
  297loPI   C4A 4746   8.862   1.877   8.311  0.0805  0.1680  0.2071
  297loPI   C5A 4747   8.700   2.056   7.842  0.1452 -0.1779 -0.1583
  297loPI   C6A 4748   8.357   2.232   7.692  0.0699  0.2362  0.2575
  297loPI   C1B 4749   8.311   2.140   9.114 -0.3676  0.1655 -0.0829
  297loPI   C2B 4750   8.236   2.050   8.756  0.1033 -0.4292 -0.0791
  297loPI   C3B 4751   8.415   1.738   8.463 -0.0782  0.3011  0.3377
  297loPI   C4B 4752   8.535   1.576   8.149 -0.0825 -0.0168  0.2340
  298loPI    C1 4753  15.184   4.041   9.687  0.0691 -0.0649  0.1126
  298loPI    C2 4754  15.000   4.113   9.340  0.0597  0.0850  0.1482
  298loPI    C3 4755  14.785   4.023   9.665  0.0498  0.2307  0.1827
  298loPI   PO4 4756  15.355   3.915   9.614 -0.3181 -0.3552 -0.3122
  298loPI   GL1 4757  15.287   3.680   9.203 -0.0571 -0.2366 -0.3571
  298loPI   GL2 4758  15.542   3.801   9.120  0.3179 -0.0505  0.2389
  298loPI   C1A 4759  15.006   3.857   8.938 -0.0251 -0.1512  0.1808
  298loPI   C2A 4760  15.048   4.000   8.526 -0.1116 -0.1350  0.0477
  298loPI   C3A 4761  14.928   4.047   8.126 -0.1012 -0.2043 -0.3110
  298loPI   C4A 4762  14.878   3.762   7.697  0.0823 -0.1112  0.1601
  298loPI   C5A 4763  14.955   3.885   7.285 -0.0147  0.1420 -0.3344
  298loPI   C6A 4764  15.365   3.963   7.144 -0.2120  0.0561 -0.2330
  298loPI   C1B 4765  15.527   3.833   8.709  0.1553  0.0285  0.1828
  298loPI   C2B 4766  15.406   3.683   8.411 -0.1835  0.1173 -0.0452
  298loPI   C3B 4767  15.405   3.885   8.035 -0.1825  0.0647 -0.0505
  298loPI   C4B 4768  15.363   3.729   7.615 -0.1648  0.0041 -0.0776
  299loPI    C1 4769  16.814  14.370   9.388  0.0039 -0.4378 -0.0361
  299loPI    C2 4770  16.658  14.259   9.740  0.1410 -0.1232  0.1280
  299loPI    C3 4771  17.023  14.423   9.726  0.1934 -0.2595 -0.1786
  299loPI   PO4 4772  16.634  14.537   9.245  0.0443 -0.4805 -0.2286
  299loPI   GL1 4773  16.444  14.750   8.842 -0.0190  0.0561 -0.0163
  299loPI   GL2 4774  16.231  14.905   8.802 -0.0252  0.1985 -0.0017
  299loPI   C1A 4775  16.622  14.872   8.456  0.1862 -0.0799 -0.1489
  299loPI   C2A 4776  16.662  14.899   8.016 -0.1442 -0.1988  0.0027
  299loPI   C3A 4777  16.765  14.778   7.525 -0.2116 -0.0013  0.2015
  299loPI   C4A 4778  16.767  14.781   7.091  0.2293  0.1324  0.0531
  299loPI   C5A 4779  16.634  14.772   6.687 -0.3360  0.3687  0.2688
  299loPI   C6A 4780  16.749  14.498   6.358 -0.0314  0.1529 -0.0880
  299loPI   C1B 4781  15.963  14.883   8.483  0.1434  0.5078 -0.2685
  299loPI   C2B 4782  16.133  14.919   8.214 -0.0599  0.0347  0.1119
  299loPI   C3B 4783  15.911  14.969   7.869  0.0875 -0.1121 -0.1013
  299loPI   C4B 4784  15.904  15.007   7.398  0.3241 -0.0741  0.1337
  300loPI    C1 4785  11.067  12.955   9.554 -0.1111 -0.0210  0.1850
  300loPI    C2 4786  11.047  12.611   9.758  0.0465 -0.0179  0.2067
  300loPI    C3 4787  11.067  12.960   9.954 -0.0229 -0.0017  0.1850
  300loPI   PO4 4788  10.989  12.778   9.314  0.1195 -0.0308 -0.0062
  300loPI   GL1 4789  10.658  12.718   9.107  0.1547  0.0262 -0.1676
  300loPI   GL2 4790  10.517  12.364   9.023 -0.2230 -0.4348  0.2186
  300loPI   C1A 4791  10.884  12.811   8.700 -0.2510  0.0507  0.3344
  300loPI   C2A 4792  10.955  12.916   8.383 -0.2780 -0.1228  0.0305
  300loPI   C3A 4793  11.109  12.929   7.890  0.0004 -0.3157  0.0259
  300loPI   C4A 4794  11.324  12.846   7.520  0.0784  0.1321 -0.0020
  300loPI   C5A 4795  11.376  12.513   7.243  0.0400 -0.4245 -0.0085
  300loPI   C6A 4796  11.144  12.108   7.358 -0.1722  0.0285  0.0151
  300loPI   C1B 4797  10.572  12.384   8.540  0.1498 -0.4351 -0.0719
  300loPI   C2B 4798  10.886  12.440   8.184 -0.1878 -0.1931  0.3824
  300loPI   C3B 4799  11.001  12.516   7.698 -0.4242 -0.2060 -0.1281
  300loPI   C4B 4800  10.890  12.522   7.252 -0.0982 -0.0608  0.0627
  301loPI    C1 4801   1.872   6.528  10.394 -0.2029 -0.0954  0.0862
  301loPI    C2 4802   2.136   6.671  10.659 -0.2084 -0.0872  0.0873
  301loPI    C3 4803   2.186   6.306  10.505 -0.2880 -0.1528  0.2150
  301loPI   PO4 4804   1.781   6.741  10.276 -0.0386 -0.1849  0.3673
  301loPI   GL1 4805   1.860   6.945   9.896  0.1479  0.3546  0.2284
  301loPI   GL2 4806   1.512   6.860   9.879  0.0761 -0.1031  0.3150
  301loPI   C1A 4807   1.896   6.759   9.542  0.0653 -0.6364  0.0967
  301loPI   C2A 4808   1.575   6.692   9.220 -0.0660  0.1382  0.0315
  301loPI   C3A 4809   1.539   6.466   8.862 -0.0119 -0.2840 -0.4636
  301loPI   C4A 4810   1.731   6.187   8.508 -0.0231 -0.0780 -0.2383
  301loPI   C5A 4811   1.533   5.979   8.234  0.2518  0.1030 -0.1119
  301loPI   C6A 4812   1.211   6.134   7.931  0.1506 -0.3819 -0.4926
  301loPI   C1B 4813   1.303   7.166   9.718  0.5894 -0.2896 -0.3065
  301loPI   C2B 4814   1.053   7.469   9.485  0.3868  0.1866 -0.2118
  301loPI   C3B 4815   0.876   7.524   9.208  0.1734  0.0128 -0.0852
  301loPI   C4B 4816   0.541   7.560   8.971  0.0927  0.0449 -0.1439
  302loPI    C1 4817   9.678   7.217   9.552 -0.0859  0.1795 -0.0604
  302loPI    C2 4818   9.550   7.596   9.563 -0.2667  0.1177  0.0137
  302loPI    C3 4819   9.389   7.323   9.807 -0.0691  0.0128  0.0295
  302loPI   PO4 4820   9.641   7.133   9.326  0.4844 -0.0317  0.0587
  302loPI   GL1 4821   9.886   7.016   8.982  0.1566 -0.1140 -0.0296
  302loPI   GL2 4822  10.109   7.233   8.865  0.2365 -0.0333 -0.0155
  302loPI   C1A 4823   9.587   6.938   8.625  0.2067  0.1090 -0.1102
  302loPI   C2A 4824   9.234   6.741   8.421  0.0466 -0.0547 -0.1162
  302loPI   C3A 4825   9.176   6.787   7.967  0.2035  0.3594  0.0378
  302loPI   C4A 4826   9.034   6.825   7.476  0.1184 -0.0744 -0.0993
  302loPI   C5A 4827   8.672   6.610   7.305 -0.0173  0.3274  0.1688
  302loPI   C6A 4828   8.572   6.443   6.979 -0.0061 -0.6261  0.0713
  302loPI   C1B 4829   9.924   7.127   8.362  0.1806 -0.4462  0.1193
  302loPI   C2B 4830   9.601   7.097   8.069 -0.2311 -0.2038  0.0198
  302loPI   C3B 4831   9.367   7.253   7.756  0.3562 -0.1733 -0.0789
  302loPI   C4B 4832   8.984   7.221   7.730  0.0182 -0.0510  0.1013
  303loPI    C1 4833   7.802  14.959   9.844 -0.0899  0.0674  0.0826
  303loPI    C2 4834   7.729  15.352   9.837  0.1252  0.1070 -0.0478
  303loPI    C3 4835   7.803  15.169  10.184  0.3372  0.2428 -0.0192
  303loPI   PO4 4836   8.011  14.953   9.645  0.0406 -0.1498 -0.0579
  303loPI   GL1 4837   8.041  14.726   9.181 -0.1346  0.2740  0.1198
  303loPI   GL2 4838   7.738  14.814   9.007  0.1303  0.1152 -0.0014
  303loPI   C1A 4839   8.308  15.020   8.924  0.3627  0.0047 -0.1650
  303loPI   C2A 4840   8.226  14.945   8.384 -0.1428  0.0485 -0.1531
  303loPI   C3A 4841   8.274  14.841   7.981 -0.0128  0.2100 -0.2779
  303loPI   C4A 4842   8.395  14.891   7.494 -0.1953 -0.0334  0.2882
  303loPI   C5A 4843   8.128  14.866   7.171  0.1576 -0.0972 -0.1841
  303loPI   C6A 4844   7.804  14.545   7.062  0.0043 -0.1718 -0.1668
  303loPI   C1B 4845   7.811  14.950   8.618 -0.2582 -0.0945 -0.2978
  303loPI   C2B 4846   7.772  15.004   8.201  0.0273 -0.1897 -0.2709
  303loPI   C3B 4847   7.712  15.228   7.882  0.1984  0.3751 -0.1075
  303loPI   C4B 4848   7.756  15.698   7.810 -0.1108  0.1972  0.0741
  304loPI    C1 4849  18.817  17.751   9.424 -0.1045  0.2259  0.0306
  304loPI    C2 4850  18.497  17.564   9.274 -0.0088 -0.0371  0.1467
  304loPI    C3 4851  18.743  17.370   9.522  0.3346  0.1078 -0.0721
  304loPI   PO4 4852  18.849  17.906   9.240 -0.2112 -0.1862 -0.1948
  304loPI   GL1 4853  18.692  18.190   8.867 -0.0634 -0.0930  0.3494
  304loPI   GL2 4854  18.442  17.907   8.886  0.3100  0.1377 -0.0438
  304loPI   C1A 4855  18.742  18.314   8.429  0.0306 -0.3316  0.3342
  304loPI   C2A 4856  18.669  18.477   8.055 -0.0340  0.0247  0.0845
  304loPI   C3A 4857  18.484  18.465   7.545 -0.4641 -0.2376  0.0896
  304loPI   C4A 4858  18.239  18.643   7.285  0.1090 -0.0196  0.2617
  304loPI   C5A 4859  17.915  18.931   7.201  0.0594 -0.3498  0.1437
  304loPI   C6A 4860  17.895  19.368   7.340 -0.0403 -0.3756 -0.0883
  304loPI   C1B 4861  18.317  17.953   8.495  0.2146 -0.2388 -0.1353
  304loPI   C2B 4862  18.281  18.055   8.030  0.0507  0.0011 -0.0697
  304loPI   C3B 4863  18.089  18.244   7.615  0.2066 -0.0144  0.0928
  304loPI   C4B 4864  18.106  18.056   7.287 -0.3281 -0.0247 -0.0815
  305loPI    C1 4865   5.854  17.808   9.745 -0.0609 -0.2091  0.1254
  305loPI    C2 4866   5.610  17.570   9.535  0.1390 -0.1810 -0.1442
  305loPI    C3 4867   5.473  17.762   9.858 -0.1402 -0.3199 -0.1774
  305loPI   PO4 4868   5.982  17.894   9.640 -0.1171  0.1087  0.1478
  305loPI   GL1 4869   5.960  17.731   9.158  0.3536  0.1733 -0.2864
  305loPI   GL2 4870   6.214  18.001   9.168  0.2395 -0.0314  0.8085
  305loPI   C1A 4871   5.906  17.865   8.739  0.0364 -0.0517 -0.2192
  305loPI   C2A 4872   5.705  18.079   8.431  0.0399 -0.0738 -0.2386
  305loPI   C3A 4873   5.539  18.217   8.060  0.2077  0.2706 -0.0736
  305loPI   C4A 4874   5.428  18.438   7.673  0.0197  0.2763  0.1903
  305loPI   C5A 4875   5.084  18.633   7.467  0.1509  0.2476 -0.2642
  305loPI   C6A 4876   4.693  18.362   7.329  0.2065 -0.1367 -0.1444
  305loPI   C1B 4877   5.881  18.289   9.133  0.2121 -0.2767 -0.0175
  305loPI   C2B 4878   5.591  18.372   8.832  0.0712 -0.1902 -0.0473
  305loPI   C3B 4879   5.483  18.544   8.440 -0.0854 -0.0895 -0.5507
  305loPI   C4B 4880   5.306  18.693   8.098  0.4849  0.1084  0.0106
  306loPI    C1 4881  11.564   3.646   9.692  0.0091 -0.2889  0.1396
  306loPI    C2 4882  11.937   3.770   9.620 -0.0800 -0.0004  0.1621
  306loPI    C3 4883  11.854   3.570   9.957  0.1000 -0.2834  0.0420
  306loPI   PO4 4884  11.520   3.499   9.515  0.2170  0.1703  0.0941
  306loPI   GL1 4885  11.545   3.288   9.114  0.1691 -0.2094 -0.3005
  306loPI   GL2 4886  11.587   2.952   9.059 -0.1518 -0.0228  0.1418
  306loPI   C1A 4887  11.816   3.321   8.748 -0.4086 -0.0477 -0.0044
  306loPI   C2A 4888  11.872   3.460   8.335 -0.1382 -0.1846  0.0252
  306loPI   C3A 4889  11.567   3.487   8.055 -0.1532 -0.0792  0.0564
  306loPI   C4A 4890  11.278   3.440   7.697 -0.0203 -0.0479 -0.2626
  306loPI   C5A 4891  10.986   3.500   7.352  0.1556  0.0971  0.1839
  306loPI   C6A 4892  11.088   3.567   6.896 -0.4910  0.2091  0.0318
  306loPI   C1B 4893  11.647   2.842   8.638 -0.3467 -0.0369 -0.1239
  306loPI   C2B 4894  11.926   2.875   8.310  0.1697  0.1264 -0.5236
  306loPI   C3B 4895  11.960   3.167   7.967  0.0166  0.0522 -0.0209
  306loPI   C4B 4896  11.783   3.174   7.599 -0.2480 -0.0769  0.2432
  307loPI    C1 4897   4.513  16.051   9.448 -0.2587 -0.0027  0.1322
  307loPI    C2 4898   4.752  16.341   9.586 -0.0287 -0.2781  0.3233
  307loPI    C3 4899   4.392  16.283   9.750 -0.1303 -0.0191  0.1968
  307loPI   PO4 4900   4.638  15.786   9.512  0.0520  0.0270  0.0311
  307loPI   GL1 4901   4.653  15.538   9.207  0.1842 -0.0497 -0.0708
  307loPI   GL2 4902   4.879  15.420   9.063  0.1614 -0.2642  0.0696
  307loPI   C1A 4903   4.933  15.899   8.996  0.1796  0.2230 -0.4525
  307loPI   C2A 4904   4.963  15.945   8.683 -0.1993 -0.2392 -0.3422
  307loPI   C3A 4905   4.931  15.870   8.194  0.3697  0.1053 -0.4182
  307loPI   C4A 4906   4.966  15.852   7.705 -0.1175  0.1933 -0.1506
  307loPI   C5A 4907   5.275  15.804   7.470  0.0519 -0.0620  0.1529
  307loPI   C6A 4908   5.568  16.127   7.240 -0.0323  0.1628  0.0587
  307loPI   C1B 4909   4.846  15.439   8.513 -0.1525  0.0912  0.0390
  307loPI   C2B 4910   4.990  15.413   8.031  0.0958  0.1179 -0.1542
  307loPI   C3B 4911   5.116  15.289   7.615  0.2355 -0.1795  0.1100
  307loPI   C4B 4912   5.084  15.368   7.254 -0.1025  0.0656 -0.1358
  308loPI    C1 4913   8.821  11.342   9.935 -0.1878  0.1611  0.0148
  308loPI    C2 4914   8.523  11.545  10.108 -0.0392  0.2095  0.2175
  308loPI    C3 4915   8.885  11.537  10.278  0.1233  0.2952 -0.1157
  308loPI   PO4 4916   8.774  11.455   9.560 -0.2370 -0.0903 -0.0510
  308loPI   GL1 4917   8.394  11.511   9.242 -0.0386  0.3793  0.0443
  308loPI   GL2 4918   8.298  11.082   9.030 -0.1897 -0.1251  0.1486
  308loPI   C1A 4919   8.615  11.488   8.845 -0.0063  0.1454  0.2073
  308loPI   C2A 4920   8.754  11.555   8.440  0.1216  0.1719 -0.1367
  308loPI   C3A 4921   8.850  11.609   8.088  0.2888  0.1932 -0.0766
  308loPI   C4A 4922   8.862  11.552   7.694  0.0318  0.1950  0.3477
  308loPI   C5A 4923   8.850  11.646   7.316 -0.4801  0.3816  0.1152
  308loPI   C6A 4924   8.923  11.467   6.998 -0.0087 -0.0229 -0.0652
  308loPI   C1B 4925   8.460  11.022   8.649  0.0527  0.2361 -0.1109
  308loPI   C2B 4926   8.716  11.111   8.230  0.1804  0.2467  0.2935
  308loPI   C3B 4927   8.841  11.073   7.772  0.1724  0.3240  0.3464
  308loPI   C4B 4928   8.958  11.144   7.373  0.1078  0.3770  0.2890
  309loPI    C1 4929  10.843   1.143   9.800  0.3062 -0.0298 -0.1059
  309loPI    C2 4930  10.930   0.865   9.526 -0.1097 -0.1266 -0.1465
  309loPI    C3 4931  10.592   0.837   9.739 -0.0367  0.2187  0.0220
  309loPI   PO4 4932  10.887   1.355   9.675 -0.0750  0.0968  0.0645
  309loPI   GL1 4933  10.570   1.417   9.363  0.0047 -0.0116 -0.1755
  309loPI   GL2 4934  10.827   1.220   9.193  0.1916  0.1353 -0.3582
  309loPI   C1A 4935  10.448   1.795   9.025  0.0809  0.0100 -0.0232
  309loPI   C2A 4936  10.253   2.201   8.717  0.1016 -0.0117 -0.2140
  309loPI   C3A 4937  10.233   2.214   8.321 -0.1817  0.5375  0.1098
  309loPI   C4A 4938  10.177   2.274   7.856  0.0297  0.1862 -0.1103
  309loPI   C5A 4939  10.479   2.378   7.568  0.6000  0.3512 -0.0883
  309loPI   C6A 4940  10.848   2.601   7.572  0.1472  0.1842 -0.1110
  309loPI   C1B 4941  10.527   1.290   8.863  0.3627 -0.2629 -0.2846
  309loPI   C2B 4942  10.182   1.202   8.578  0.1645 -0.0225 -0.2085
  309loPI   C3B 4943  10.126   1.226   8.155  0.2155  0.0482 -0.2395
  309loPI   C4B 4944   9.970   1.329   7.701  0.1132  0.2121  0.1183
  310loPI    C1 4945  10.226   1.962  10.091  0.1488  0.0974  0.1872
  310loPI    C2 4946   9.890   1.754  10.151  0.2360 -0.0317  0.2341
  310loPI    C3 4947  10.105   1.882  10.463  0.2180  0.0720  0.2045
  310loPI   PO4 4948  10.129   2.055   9.868 -0.2477 -0.4137  0.2296
  310loPI   GL1 4949  10.038   1.800   9.537 -0.0148  0.4301  0.0458
  310loPI   GL2 4950  10.057   1.501   9.375 -0.3285 -0.0243 -0.0535
  310loPI   C1A 4951   9.997   1.967   9.093 -0.3242  0.1519 -0.2193
  310loPI   C2A 4952   9.737   1.930   8.778  0.1317 -0.0261 -0.2053
  310loPI   C3A 4953   9.795   1.900   8.347  0.0125 -0.1737 -0.1461
  310loPI   C4A 4954  10.091   1.767   8.043 -0.1362 -0.0054  0.2508
  310loPI   C5A 4955  10.094   1.843   7.632 -0.1583 -0.1546 -0.0821
  310loPI   C6A 4956   9.983   1.976   7.316  0.2063  0.1464  0.3932
  310loPI   C1B 4957  10.102   1.478   8.992  0.1730 -0.0395 -0.0308
  310loPI   C2B 4958  10.198   1.719   8.560  0.0927 -0.0967  0.0938
  310loPI   C3B 4959  10.639   1.740   8.532  0.1315  0.1789 -0.0408
  310loPI   C4B 4960  10.594   1.912   8.244 -0.1783  0.3189  0.1973
  311loPI    C1 4961   6.656  13.170   9.837 -0.1817  0.0202  0.0391
  311loPI    C2 4962   6.357  12.930   9.952 -0.0309 -0.0561  0.2799
  311loPI    C3 4963   6.566  13.134  10.225  0.2177 -0.0991  0.1252
  311loPI   PO4 4964   6.509  13.324   9.590 -0.0507 -0.3178  0.1343
  311loPI   GL1 4965   6.347  13.263   9.129  0.3477  0.4221 -0.0213
  311loPI   GL2 4966   6.254  12.945   8.955 -0.2491 -0.0486 -0.0459
  311loPI   C1A 4967   6.644  13.441   8.716 -0.3876  0.0973  0.1870
  311loPI   C2A 4968   6.665  13.399   8.320  0.0757 -0.1521  0.1901
  311loPI   C3A 4969   6.695  13.240   7.843  0.0824  0.0312  0.2248
  311loPI   C4A 4970   6.679  12.761   7.766 -0.0075  0.2271  0.0810
  311loPI   C5A 4971   6.721  12.514   7.400 -0.0060  0.0287  0.2288
  311loPI   C6A 4972   6.815  12.223   7.152 -0.2066 -0.2094 -0.1762
  311loPI   C1B 4973   5.951  12.864   8.596 -0.4772 -0.1355 -0.0815
  311loPI   C2B 4974   5.828  12.787   8.198 -0.3904  0.0535 -0.0987
  311loPI   C3B 4975   5.659  12.646   7.781 -0.3075  0.2204  0.3281
  311loPI   C4B 4976   5.340  12.719   7.383  0.1599 -0.2077  0.0693
  312loPI    C1 4977  10.692  16.769   9.584 -0.2244 -0.2588  0.1013
  312loPI    C2 4978  10.391  16.909   9.362  0.1389  0.1623 -0.1419
  312loPI    C3 4979  10.425  17.018   9.746 -0.2594 -0.2423  0.0176
  312loPI   PO4 4980  10.732  16.506   9.428 -0.3669  0.2295 -0.0893
  312loPI   GL1 4981  10.795  16.388   8.930 -0.0793 -0.0481 -0.0517
  312loPI   GL2 4982  10.533  16.531   8.994 -0.0027 -0.1293 -0.3595
  312loPI   C1A 4983  10.810  16.215   8.511  0.0009 -0.1165  0.0916
  312loPI   C2A 4984  10.774  15.808   8.134 -0.1709  0.1386 -0.2320
  312loPI   C3A 4985  10.538  15.418   7.893 -0.1820 -0.0630  0.0128
  312loPI   C4A 4986  10.441  15.054   7.584 -0.0114 -0.0954  0.1992
  312loPI   C5A 4987  10.733  14.900   7.187  0.0898  0.0370 -0.1653
  312loPI   C6A 4988  11.145  15.071   7.216 -0.0977  0.1453  0.0832
  312loPI   C1B 4989  10.395  16.559   8.503 -0.0125  0.3329  0.0566
  312loPI   C2B 4990  10.631  16.570   8.194 -0.1477 -0.2303 -0.1257
  312loPI   C3B 4991  10.901  16.656   7.838  0.1200 -0.0613 -0.2370
  312loPI   C4B 4992  11.223  16.735   7.615  0.0068 -0.4651 -0.1496
  313loPI    C1 4993  17.788   7.655  10.022 -0.0855  0.0312  0.0504
  313loPI    C2 4994  17.541   7.407  10.215  0.0193 -0.1063  0.0096
  313loPI    C3 4995  17.560   7.792  10.320 -0.1723 -0.1064  0.0482
  313loPI   PO4 4996  17.893   7.465   9.857  0.1428  0.1234  0.0611
  313loPI   GL1 4997  18.080   7.301   9.614  0.0917  0.1177 -0.0339
  313loPI   GL2 4998  18.184   7.564   9.472 -0.0427 -0.0988  0.1306
  313loPI   C1A 4999  18.070   7.207   9.154 -0.1641 -0.1411 -0.2165
  313loPI   C2A 5000  18.119   7.157   8.698  0.3566  0.1879 -0.0606
  313loPI   C3A 5001  18.270   6.970   8.329 -0.2358 -0.0758 -0.2389
  313loPI   C4A 5002  18.232   6.720   7.997  0.1756  0.3467  0.4491
  313loPI   C5A 5003  18.584   6.483   7.855  0.3388  0.4850 -0.0116
  313loPI   C6A 5004  18.771   6.396   8.272  0.1477 -0.0744  0.0517
  313loPI   C1B 5005  18.368   7.715   9.119 -0.0302  0.0348  0.0085
  313loPI   C2B 5006  18.296   7.713   8.738  0.0355 -0.2072 -0.1425
  313loPI   C3B 5007  18.348   7.905   8.429 -0.3060 -0.1956 -0.1133
  313loPI   C4B 5008  18.559   8.315   8.263  0.0618  0.1476 -0.0913
  314loPI    C1 5009  15.946   1.973   9.998  0.0188 -0.1165 -0.0393
  314loPI    C2 5010  16.085   2.260  10.241  0.0855 -0.1022 -0.0942
  314loPI    C3 5011  16.202   1.880  10.291  0.0794 -0.1032 -0.0879
  314loPI   PO4 5012  16.040   2.004   9.782 -0.1302 -0.0870 -0.0261
  314loPI   GL1 5013  15.908   2.087   9.424 -0.3278  0.0234  0.0988
  314loPI   GL2 5014  16.290   2.068   9.342  0.1491  0.1537 -0.0901
  314loPI   C1A 5015  15.693   1.933   9.082 -0.2173 -0.3231  0.1385
  314loPI   C2A 5016  15.815   1.910   8.655  0.1934 -0.2141 -0.0483
  314loPI   C3A 5017  15.764   1.884   8.258 -0.1718 -0.0162 -0.2098
  314loPI   C4A 5018  15.793   1.900   7.851 -0.0844  0.2114  0.0235
  314loPI   C5A 5019  16.085   1.720   7.558  0.1928  0.0119 -0.0305
  314loPI   C6A 5020  16.392   1.601   7.153  0.1106  0.0079  0.1804
  314loPI   C1B 5021  16.095   2.300   8.980  0.0339  0.0159 -0.1369
  314loPI   C2B 5022  16.156   2.227   8.525  0.1010 -0.0218 -0.2026
  314loPI   C3B 5023  16.272   2.198   8.200 -0.0868 -0.1904  0.1800
  314loPI   C4B 5024  16.224   2.127   7.814  0.0630 -0.4029 -0.2409
  315loPI    C1 5025  16.520   2.199   9.991  0.0057  0.1347  0.2475
  315loPI    C2 5026  16.715   2.342  10.310  0.0496 -0.1698  0.3612
  315loPI    C3 5027  16.763   1.961  10.201 -0.1192 -0.1210  0.1063
  315loPI   PO4 5028  16.508   2.341   9.778 -0.2050 -0.0375 -0.1078
  315loPI   GL1 5029  16.337   2.581   9.407  0.1712 -0.1119  0.1692
  315loPI   GL2 5030  16.359   2.774   9.578 -0.0748  0.2969  0.0600
  315loPI   C1A 5031  16.540   2.431   9.094 -0.2325  0.0518 -0.1225
  315loPI   C2A 5032  16.660   2.419   8.686  0.0483  0.2418  0.2161
  315loPI   C3A 5033  16.682   2.477   8.202 -0.0992 -0.0933  0.3491
  315loPI   C4A 5034  16.670   2.449   7.775 -0.0873  0.3771  0.0592
  315loPI   C5A 5035  16.405   2.371   7.441  0.0552 -0.0472  0.1793
  315loPI   C6A 5036  16.070   2.110   7.219  0.1765  0.0765  0.1586
  315loPI   C1B 5037  16.586   2.922   9.176 -0.1033 -0.3536 -0.1299
  315loPI   C2B 5038  16.771   2.943   8.745 -0.1403 -0.0251  0.0547
  315loPI   C3B 5039  16.821   2.940   8.216  0.1182  0.1283  0.1128
  315loPI   C4B 5040  16.635   2.919   7.849  0.2043  0.0073  0.1692
  316loPI    C1 5041  11.611   0.935   9.629 -0.0509 -0.2800 -0.0017
  316loPI    C2 5042  11.817   1.211   9.426 -0.1534 -0.1244  0.1032
  316loPI    C3 5043  12.000   0.988   9.703 -0.0572 -0.2027 -0.0223
  316loPI   PO4 5044  11.479   0.759   9.501  0.1472 -0.1824  0.1341
  316loPI   GL1 5045  11.125   0.651   9.160 -0.2856  0.0053  0.0271
  316loPI   GL2 5046  11.351   0.945   9.029 -0.1267 -0.0937  0.0216
  316loPI   C1A 5047  10.958   0.681   8.789  0.3108  0.4069  0.0746
  316loPI   C2A 5048  10.879   0.708   8.343  0.0756 -0.0794  0.2336
  316loPI   C3A 5049  11.041   1.097   8.094  0.1621  0.1804 -0.1958
  316loPI   C4A 5050  10.937   1.141   7.688  0.0695  0.1160  0.0472
  316loPI   C5A 5051  10.744   0.824   7.409 -0.3459  0.1942  0.0504
  316loPI   C6A 5052  10.625   0.427   7.232 -0.1882 -0.1870  0.0016
  316loPI   C1B 5053  11.294   1.021   8.595 -0.1462 -0.2205  0.3111
  316loPI   C2B 5054  11.466   1.283   8.300  0.4261  0.0352 -0.1680
  316loPI   C3B 5055  11.423   1.450   7.916 -0.0940  0.2572 -0.1053
  316loPI   C4B 5056  11.438   1.480   7.400  0.1460  0.0032  0.0657
  317loPI    C1 5057  10.593  15.113   9.737  0.2533  0.2843  0.2629
  317loPI    C2 5058  10.211  15.074   9.847  0.2232  0.2356  0.1430
  317loPI    C3 5059  10.503  14.983  10.104  0.1535 -0.0837  0.1131
  317loPI   PO4 5060  10.526  15.017   9.476  0.0683 -0.0854  0.1533
  317loPI   GL1 5061  10.413  14.824   9.032  0.0324  0.0279 -0.0830
  317loPI   GL2 5062  10.596  14.629   9.053  0.1633 -0.0235 -0.3414
  317loPI   C1A 5063  10.355  14.793   8.646 -0.1200 -0.1035  0.0091
  317loPI   C2A 5064  10.360  14.621   8.219 -0.0711 -0.2553 -0.0105
  317loPI   C3A 5065  10.495  14.544   7.811  0.1045 -0.0930 -0.0597
  317loPI   C4A 5066  10.517  14.535   7.424  0.1026 -0.1401 -0.1075
  317loPI   C5A 5067  10.419  14.493   6.960 -0.1280  0.1973  0.4614
  317loPI   C6A 5068  10.097  14.526   6.550 -0.1901  0.1031 -0.1714
  317loPI   C1B 5069  10.832  14.672   8.877  0.0653 -0.1331 -0.1536
  317loPI   C2B 5070  11.098  14.455   8.652  0.0656  0.0366  0.2042
  317loPI   C3B 5071  11.303  14.198   8.372 -0.1410 -0.3624 -0.0420
  317loPI   C4B 5072  11.417  13.941   8.013 -0.0705 -0.0823 -0.1626
  318loPI    C1 5073  11.326  11.890   9.544 -0.1299  0.0638 -0.0402
  318loPI    C2 5074  11.238  11.729   9.899  0.3446 -0.2171 -0.0412
  318loPI    C3 5075  11.296  11.493   9.581  0.3082  0.0080 -0.2174
  318loPI   PO4 5076  11.174  12.156   9.546  0.0082  0.2172  0.0716
  318loPI   GL1 5077  11.001  12.046   9.135  0.1145  0.1118 -0.2144
  318loPI   GL2 5078  11.084  12.386   9.013  0.4599 -0.3531  0.3163
  318loPI   C1A 5079  11.153  11.792   8.873  0.3444  0.1298  0.1853
  318loPI   C2A 5080  11.418  11.708   8.433  0.1994 -0.3242  0.1334
  318loPI   C3A 5081  11.362  11.538   8.018 -0.1672 -0.1232  0.0943
  318loPI   C4A 5082  11.300  11.652   7.552 -0.2171  0.4049 -0.3386
  318loPI   C5A 5083  11.591  11.845   7.224 -0.3258  0.1179  0.0208
  318loPI   C6A 5084  11.797  12.189   7.131 -0.4004 -0.4250  0.1635
  318loPI   C1B 5085  11.066  12.227   8.657  0.2578  0.2808  0.0294
  318loPI   C2B 5086  11.247  12.138   8.230  0.3547  0.2823  0.2645
  318loPI   C3B 5087  11.284  12.060   7.852 -0.0103 -0.1429 -0.0732
  318loPI   C4B 5088  11.580  12.128   7.628 -0.1848  0.1723 -0.1551
  319loPI    C1 5089  16.560  10.178   9.674 -0.0430 -0.0951  0.0923
  319loPI    C2 5090  16.667  10.529   9.835  0.0473 -0.0346 -0.0973
  319loPI    C3 5091  16.685  10.195  10.054  0.1257  0.0533  0.0318
  319loPI   PO4 5092  16.354  10.227   9.572  0.2521 -0.0154 -0.1805
  319loPI   GL1 5093  16.392  10.287   9.213 -0.2653  0.4386 -0.2131
  319loPI   GL2 5094  16.588  10.465   9.112 -0.0548 -0.0145  0.1413
  319loPI   C1A 5095  16.081  10.535   8.948 -0.2517 -0.4519  0.4754
  319loPI   C2A 5096  16.183  10.757   8.463 -0.3014 -0.0620  0.3769
  319loPI   C3A 5097  16.102  10.772   8.026  0.5486  0.0017  0.3861
  319loPI   C4A 5098  16.048  10.871   7.605 -0.0970 -0.0713  0.1337
  319loPI   C5A 5099  16.272  11.128   7.310 -0.3742  0.1240 -0.0490
  319loPI   C6A 5100  16.573  11.387   7.033 -0.1719  0.2420 -0.0592
  319loPI   C1B 5101  16.560  10.486   8.652  0.0738  0.4234 -0.0293
  319loPI   C2B 5102  16.484  10.411   8.147 -0.1045  0.2067  0.0283
  319loPI   C3B 5103  16.505  10.127   7.743 -0.0777 -0.2735  0.2851
  319loPI   C4B 5104  16.697  10.166   7.353  0.2029  0.0744 -0.2593
  320loPI    C1 5105   3.753  14.541   9.436 -0.2506  0.0514 -0.2517
  320loPI    C2 5106   3.565  14.861   9.286  0.1335  0.3868 -0.0387
  320loPI    C3 5107   3.514  14.761   9.670 -0.1256  0.0791 -0.1487
  320loPI   PO4 5108   3.694  14.341   9.138  0.1374  0.2080  0.0671
  320loPI   GL1 5109   3.288  14.104   8.919 -0.1110 -0.0733 -0.1948
  320loPI   GL2 5110   3.121  14.338   8.924  0.3825  0.0083 -0.0501
  320loPI   C1A 5111   3.524  14.162   8.596 -0.4222 -0.2535  0.2685
  320loPI   C2A 5112   3.675  14.418   8.202 -0.0820  0.0770  0.0169
  320loPI   C3A 5113   3.501  14.685   7.850  0.4020  0.1440  0.2452
  320loPI   C4A 5114   3.557  14.854   7.508 -0.0117  0.0151  0.3658
  320loPI   C5A 5115   3.642  15.162   7.275 -0.0835 -0.0440 -0.2064
  320loPI   C6A 5116   3.456  15.457   6.973  0.2455  0.0806 -0.2580
  320loPI   C1B 5117   3.053  14.290   8.438  0.1640  0.1887  0.0994
  320loPI   C2B 5118   3.145  14.361   7.973 -0.0198  0.0831  0.4399
  320loPI   C3B 5119   3.146  14.555   7.482  0.0887  0.0163 -0.4544
  320loPI   C4B 5120   2.961  14.382   6.979 -0.0492 -0.0393 -0.1062
  321loPI    C1 5121   5.236  18.194  10.145  0.0292  0.0129  0.0700
  321loPI    C2 5122   5.441  18.421  10.403 -0.1401  0.2629 -0.0119
  321loPI    C3 5123   5.056  18.338  10.472 -0.1556  0.2369 -0.1267
  321loPI   PO4 5124   5.207  18.275   9.980 -0.1776 -0.3652 -0.2261
  321loPI   GL1 5125   5.145  18.125   9.522  0.0488  0.1723  0.0691
  321loPI   GL2 5126   5.466  18.108   9.471  0.2074  0.0386  0.2565
  321loPI   C1A 5127   4.977  18.249   9.125  0.0618 -0.1863 -0.2432
  321loPI   C2A 5128   5.041  18.224   8.716  0.1267  0.4336  0.1299
  321loPI   C3A 5129   5.016  18.342   8.265 -0.1026 -0.0819 -0.1879
  321loPI   C4A 5130   4.965  18.232   7.788  0.1533  0.1595  0.2752
  321loPI   C5A 5131   5.088  18.125   7.319  0.0460  0.0201 -0.2734
  321loPI   C6A 5132   4.836  18.107   6.908 -0.1872 -0.0456 -0.0481
  321loPI   C1B 5133   5.509  17.815   9.134  0.0870  0.1451  0.1994
  321loPI   C2B 5134   5.303  17.732   8.776  0.1093 -0.0558 -0.0287
  321loPI   C3B 5135   5.223  17.853   8.329 -0.0736  0.2358 -0.0472
  321loPI   C4B 5136   5.237  17.851   7.945 -0.0773  0.2218  0.6130
  322loPI    C1 5137   9.677   5.262   9.751 -0.0748 -0.0905  0.0724
  322loPI    C2 5138   9.801   5.361  10.118  0.1551 -0.1262  0.0058
  322loPI    C3 5139  10.065   5.326   9.820 -0.0629  0.1949 -0.2325
  322loPI   PO4 5140   9.410   5.316   9.734 -0.1366 -0.2731 -0.3571
  322loPI   GL1 5141   9.150   5.116   9.428 -0.2861  0.0384  0.2012
  322loPI   GL2 5142   9.393   4.882   9.518  0.0539 -0.3569  0.0432
  322loPI   C1A 5143   8.976   5.024   9.086 -0.0159 -0.0109 -0.0698
  322loPI   C2A 5144   8.717   4.925   8.724 -0.0117  0.0202 -0.1741
  322loPI   C3A 5145   8.591   4.902   8.273  0.2884 -0.1315 -0.2334
  322loPI   C4A 5146   8.442   4.854   7.842  0.1743 -0.1093  0.1151
  322loPI   C5A 5147   8.116   4.863   7.521  0.1972  0.0939 -0.0034
  322loPI   C6A 5148   7.847   5.132   7.433  0.0991  0.3040 -0.4858
  322loPI   C1B 5149   9.217   4.638   9.132  0.0325 -0.1314 -0.2107
  322loPI   C2B 5150   9.058   4.433   8.722  0.1207  0.2447 -0.3238
  322loPI   C3B 5151   9.041   4.123   8.328  0.2429  0.1150  0.1060
  322loPI   C4B 5152   8.765   4.019   8.067  0.0994  0.0051  0.0712
  323loPI    C1 5153  18.268   1.047  10.084 -0.1420  0.1974 -0.1667
  323loPI    C2 5154  18.581   0.805  10.145 -0.1592  0.1691 -0.1901
  323loPI    C3 5155  18.296   0.835  10.423 -0.1800  0.1278 -0.2069
  323loPI   PO4 5156  18.215   1.042   9.896 -0.1077  0.3223 -0.0455
  323loPI   GL1 5157  18.043   1.222   9.545  0.2094  0.0963 -0.1884
  323loPI   GL2 5158  18.344   1.264   9.487 -0.0801  0.1318  0.1964
  323loPI   C1A 5159  17.906   1.048   9.126  0.0877  0.3861 -0.3791
  323loPI   C2A 5160  17.613   0.887   8.762  0.2741 -0.1988  0.0552
  323loPI   C3A 5161  17.589   0.971   8.337 -0.0054 -0.3139  0.0726
  323loPI   C4A 5162  17.587   1.071   7.976  0.1243  0.3846  0.0463
  323loPI   C5A 5163  17.831   1.244   7.627 -0.3473 -0.0389 -0.0746
  323loPI   C6A 5164  18.211   1.454   7.560 -0.2537  0.2429 -0.0264
  323loPI   C1B 5165  18.431   1.184   9.077  0.1579 -0.1834 -0.0265
  323loPI   C2B 5166  18.661   0.994   8.687  0.1754 -0.1543  0.6286
  323loPI   C3B 5167  18.556   1.151   8.352  0.1219  0.0237  0.0025
  323loPI   C4B 5168  18.551   1.259   7.906 -0.0080  0.1533  0.0874
  324loPI    C1 5169  14.397   9.509   9.914 -0.1457  0.0690  0.0506
  324loPI    C2 5170  14.213   9.321  10.216 -0.0456  0.1427  0.1587
  324loPI    C3 5171  14.080   9.676  10.090 -0.1461  0.0679  0.0510
  324loPI   PO4 5172  14.316   9.341   9.634  0.0248  0.0214  0.2114
  324loPI   GL1 5173  14.302   8.960   9.460 -0.1385  0.1392  0.0270
  324loPI   GL2 5174  13.986   9.037   9.368 -0.0673  0.2553  0.5048
  324loPI   C1A 5175  14.330   9.045   8.990  0.1391  0.1060  0.3196
  324loPI   C2A 5176  14.606   8.906   8.534 -0.2273 -0.1452 -0.1098
  324loPI   C3A 5177  14.942   8.694   8.481  0.1253 -0.0335  0.1115
  324loPI   C4A 5178  15.088   8.738   8.088  0.1336  0.0592 -0.1388
  324loPI   C5A 5179  14.872   8.731   7.733 -0.0494 -0.0590 -0.1303
  324loPI   C6A 5180  15.006   8.498   7.387 -0.1137  0.1994 -0.2643
  324loPI   C1B 5181  13.817   9.015   8.916  0.0133  0.0928 -0.0459
  324loPI   C2B 5182  13.819   9.019   8.481 -0.0635  0.1751  0.3888
  324loPI   C3B 5183  13.799   9.095   8.064  0.3001  0.5891 -0.5755
  324loPI   C4B 5184  13.642   9.303   7.792 -0.1705  0.0920 -0.0144
  325loPI    C1 5185  13.378  13.967   9.824 -0.1175  0.1033 -0.2833
  325loPI    C2 5186  13.098  14.245   9.893  0.0362  0.1283  0.2851
  325loPI    C3 5187  13.478  14.312   9.999  0.1155 -0.2136  0.2320
  325loPI   PO4 5188  13.394  13.937   9.498  0.3677  0.0592  0.3064
  325loPI   GL1 5189  13.550  13.690   9.125 -0.1921  0.0503  0.1280
  325loPI   GL2 5190  13.704  13.355   9.030 -0.0053 -0.2189 -0.0881
  325loPI   C1A 5191  13.439  13.604   8.676  0.0154  0.2280 -0.1284
  325loPI   C2A 5192  13.459  13.554   8.183 -0.0244 -0.1656 -0.0522
  325loPI   C3A 5193  13.249  13.689   7.739 -0.0980  0.0437  0.0188
  325loPI   C4A 5194  13.036  13.553   7.482 -0.2306 -0.1098 -0.2010
  325loPI   C5A 5195  12.757  13.617   7.215 -0.0306  0.0306  0.1419
  325loPI   C6A 5196  12.908  13.843   6.833  0.5402 -0.2750  0.0484
  325loPI   C1B 5197  13.920  13.423   8.512  0.3492  0.2242  0.3101
  325loPI   C2B 5198  14.048  13.583   8.153  0.2312  0.0185 -0.0567
  325loPI   C3B 5199  14.116  13.575   7.780 -0.0719  0.2126 -0.2500
  325loPI   C4B 5200  13.957  13.733   7.361 -0.1527 -0.1432  0.0167
  326loPI    C1 5201   5.102  11.775   9.935  0.0288 -0.0485  0.0608
  326loPI    C2 5202   4.735  11.932   9.948  0.0711  0.0430  0.1571
  326loPI    C3 5203   4.902  11.786  10.281  0.2178  0.2243  0.1650
  326loPI   PO4 5204   5.084  11.729   9.596 -0.1467  0.0765  0.0510
  326loPI   GL1 5205   4.999  11.360   9.223  0.0428 -0.3496 -0.1062
  326loPI   GL2 5206   4.852  11.512   9.000  0.1290  0.1111 -0.0750
  326loPI   C1A 5207   5.234  11.479   8.748 -0.3145  0.2951  0.0748
  326loPI   C2A 5208   5.156  11.485   8.350 -0.0885 -0.1904  0.2001
  326loPI   C3A 5209   5.277  11.539   8.014  0.0546  0.1291  0.0650
  326loPI   C4A 5210   5.586  11.815   7.804  0.2293  0.2068  0.1799
  326loPI   C5A 5211   5.471  12.227   7.524  0.0112  0.3552 -0.0587
  326loPI   C6A 5212   5.454  12.354   7.046 -0.1148  0.2650 -0.2425
  326loPI   C1B 5213   4.541  11.664   8.626  0.0402  0.1884  0.0472
  326loPI   C2B 5214   4.395  11.785   8.235  0.1598 -0.2016  0.0702
  326loPI   C3B 5215   4.672  11.926   7.789  0.3471 -0.1362 -0.1422
  326loPI   C4B 5216   5.083  12.008   7.807  0.1911 -0.1351  0.3415
  327loPI    C1 5217  12.572   8.832  10.338 -0.1611  0.0692  0.1286
  327loPI    C2 5218  12.810   9.148  10.279 -0.3737  0.1611 -0.2776
  327loPI    C3 5219  12.524   9.162  10.558 -0.2789  0.2662 -0.1847
  327loPI   PO4 5220  12.398   8.761  10.076  0.1892  0.2108  0.3175
  327loPI   GL1 5221  12.569   8.609   9.707 -0.1112 -0.0999  0.1949
  327loPI   GL2 5222  12.561   8.317   9.663 -0.1083  0.1081 -0.3616
  327loPI   C1A 5223  12.371   8.768   9.393  0.0848  0.0885 -0.0775
  327loPI   C2A 5224  12.415   8.714   8.936  0.0079  0.2503 -0.4445
  327loPI   C3A 5225  12.443   8.639   8.467  0.0843 -0.2832  0.1464
  327loPI   C4A 5226  12.482   8.489   8.057  0.0474  0.0750  0.2059
  327loPI   C5A 5227  12.562   8.345   7.572 -0.1575 -0.1824 -0.1072
  327loPI   C6A 5228  12.680   7.998   7.264 -0.0302  0.2117 -0.0492
  327loPI   C1B 5229  12.820   8.473   9.250  0.0794 -0.1172 -0.1644
  327loPI   C2B 5230  12.831   8.483   8.809  0.0688 -0.0569 -0.0538
  327loPI   C3B 5231  12.724   8.173   8.473  0.2590  0.2034 -0.0737
  327loPI   C4B 5232  12.764   8.066   8.025  0.1683  0.2294  0.1118
  328loPI    C1 5233   0.310  14.113   9.648 -0.0364 -0.0875  0.0625
  328loPI    C2 5234   0.539  13.831   9.816 -0.0985 -0.0526  0.2073
  328loPI    C3 5235   0.298  14.055  10.044 -0.3286 -0.1360  0.0485
  328loPI   PO4 5236   0.164  14.086   9.384  0.0756  0.1359  0.0996
  328loPI   GL1 5237   0.166  13.886   8.896  0.1833 -0.0984 -0.0161
  328loPI   GL2 5238   0.346  13.546   8.881 -0.0786  0.2435  0.1190
  328loPI   C1A 5239   0.160  13.764   8.491  0.2796 -0.0689 -0.1785
  328loPI   C2A 5240   0.020  13.569   8.112  0.0636  0.1985 -0.1595
  328loPI   C3A 5241  -0.179  13.617   7.740  0.0656  0.1085  0.0102
  328loPI   C4A 5242  -0.320  13.554   7.310 -0.3232  0.2715 -0.0872
  328loPI   C5A 5243  -0.067  13.227   7.021 -0.0423  0.2592 -0.1366
  328loPI   C6A 5244   0.275  13.303   6.873 -0.0925 -0.3202  0.1149
  328loPI   C1B 5245   0.402  13.374   8.434 -0.1179  0.3340  0.3668
  328loPI   C2B 5246   0.444  13.305   8.018 -0.1213 -0.0236 -0.0388
  328loPI   C3B 5247   0.828  13.207   7.660 -0.0647 -0.0950 -0.1865
  328loPI   C4B 5248   1.117  12.968   7.500  0.0048  0.2552 -0.0885
  329loPI    C1 5249   9.183   8.698  10.051 -0.4017 -0.5294  0.2814
  329loPI    C2 5250   9.398   9.000  10.202 -0.0261 -0.4165 -0.4323
  329loPI    C3 5251   9.433   8.632  10.356 -0.0903 -0.2080  0.1033
  329loPI   PO4 5252   9.072   8.745   9.797 -0.0395  0.2551  0.1773
  329loPI   GL1 5253   9.249   8.610   9.409 -0.1509  0.0078  0.3561
  329loPI   GL2 5254   8.981   8.780   9.244  0.2617  0.1133  0.1004
  329loPI   C1A 5255   9.318   8.358   9.003 -0.0631  0.4317  0.0966
  329loPI   C2A 5256   9.123   8.274   8.516  0.0156  0.0185 -0.0388
  329loPI   C3A 5257   8.997   8.228   8.098  0.2785  0.1004 -0.2674
  329loPI   C4A 5258   9.008   8.078   7.657  0.2211 -0.0008  0.1700
  329loPI   C5A 5259   8.889   7.676   7.421  0.2088  0.2325  0.0793
  329loPI   C6A 5260   8.603   7.647   7.077 -0.1067  0.0808  0.1759
  329loPI   C1B 5261   8.887   8.746   8.825  0.1220  0.4714 -0.2182
  329loPI   C2B 5262   9.044   8.777   8.329  0.0023  0.1618 -0.0441
  329loPI   C3B 5263   9.058   8.769   7.929  0.0620  0.1544 -0.0594
  329loPI   C4B 5264   9.094   8.565   7.513 -0.0843 -0.2030  0.1284
  330loPI    C1 5265   4.387   4.647  10.452 -0.0153  0.0749  0.0367
  330loPI    C2 5266   4.123   4.827  10.692 -0.0476  0.0480  0.0214
  330loPI    C3 5267   4.143   4.428  10.681  0.0363  0.0505  0.0686
  330loPI   PO4 5268   4.418   4.705  10.195  0.0287 -0.0607  0.0883
  330loPI   GL1 5269   4.605   4.921   9.988  0.0210  0.0239 -0.1060
  330loPI   GL2 5270   4.927   4.972   9.878 -0.2456 -0.0767  0.0938
  330loPI   C1A 5271   4.430   4.869   9.490  0.0872  0.0439 -0.1960
  330loPI   C2A 5272   4.476   5.052   9.091 -0.0864 -0.1225  0.2358
  330loPI   C3A 5273   4.334   5.043   8.670 -0.1166 -0.0615 -0.0533
  330loPI   C4A 5274   4.382   5.053   8.233 -0.1953  0.2733  0.1851
  330loPI   C5A 5275   4.614   5.138   7.873 -0.3848  0.1385 -0.1714
  330loPI   C6A 5276   5.009   4.854   7.750 -0.1139 -0.0224  0.0715
  330loPI   C1B 5277   4.798   5.158   9.438 -0.1122 -0.0148  0.2478
  330loPI   C2B 5278   4.839   5.450   9.038  0.1432 -0.1478  0.0030
  330loPI   C3B 5279   4.966   5.453   8.658  0.1456 -0.0189 -0.0126
  330loPI   C4B 5280   4.959   5.350   8.238 -0.1283 -0.1953 -0.1048
  331loPI    C1 5281  17.755   9.626   9.818 -0.1126 -0.0043 -0.3154
  331loPI    C2 5282  17.429   9.573  10.044 -0.1517  0.0639 -0.3553
  331loPI    C3 5283  17.581   9.940   9.995  0.2790 -0.0354  0.1449
  331loPI   PO4 5284  17.702   9.559   9.533  0.0162  0.1973  0.0797
  331loPI   GL1 5285  17.549   9.188   9.242  0.1464  0.4290  0.0036
  331loPI   GL2 5286  17.735   9.066   9.098 -0.0592  0.2370 -0.2032
  331loPI   C1A 5287  17.158   9.245   8.982  0.0968 -0.0282 -0.0745
  331loPI   C2A 5288  16.966   9.560   8.840  0.1197 -0.0596 -0.0075
  331loPI   C3A 5289  16.741   9.597   8.463  0.0850 -0.1448 -0.1709
  331loPI   C4A 5290  16.866   9.900   8.075 -0.0158  0.2135 -0.2474
  331loPI   C5A 5291  17.045  10.026   7.673 -0.0617 -0.0281 -0.1303
  331loPI   C6A 5292  17.177  10.016   7.160 -0.2363  0.2551  0.0272
  331loPI   C1B 5293  17.582   9.270   8.682 -0.1607  0.3231 -0.0334
  331loPI   C2B 5294  17.316   9.298   8.363  0.3674  0.0090  0.1683
  331loPI   C3B 5295  16.974   9.387   8.024 -0.0782 -0.3248 -0.0590
  331loPI   C4B 5296  16.676   9.682   7.676  0.2927 -0.0890  0.3690
  332loPI    C1 5297  10.769   8.788   9.810  0.0894  0.2084  0.1552
  332loPI    C2 5298  10.652   8.606  10.146 -0.1237  0.0756  0.0117
  332loPI    C3 5299  10.661   9.005  10.128 -0.3212  0.0852  0.1052
  332loPI   PO4 5300  10.601   8.699   9.565 -0.3166 -0.0868  0.0132
  332loPI   GL1 5301  10.833   8.712   9.189 -0.0195 -0.2172 -0.2967
  332loPI   GL2 5302  10.850   8.930   9.242  0.0210  0.0674 -0.0587
  332loPI   C1A 5303  10.847   8.510   8.845  0.0927  0.1991 -0.0843
  332loPI   C2A 5304  10.903   8.779   8.575 -0.0614  0.2574 -0.1037
  332loPI   C3A 5305  10.920   8.802   8.140 -0.3546  0.0448 -0.0809
  332loPI   C4A 5306  11.242   8.887   7.765 -0.1403 -0.1599 -0.2432
  332loPI   C5A 5307  11.605   8.997   7.463  0.2139  0.1258 -0.1147
  332loPI   C6A 5308  11.611   9.442   7.259 -0.1155 -0.0183  0.1069
  332loPI   C1B 5309  11.132   9.008   8.995 -0.1138 -0.1194  0.1007
  332loPI   C2B 5310  11.531   8.917   8.807  0.3972  0.0073 -0.1678
  332loPI   C3B 5311  11.945   9.070   8.961 -0.0303 -0.4731 -0.0795
  332loPI   C4B 5312  12.083   9.215   9.275  0.0868 -0.0344  0.1935
  333loPI    C1 5313   0.112  11.921   9.566 -0.1649 -0.1124 -0.1237
  333loPI    C2 5314  -0.262  12.013   9.671  0.0089  0.3445  0.1217
  333loPI    C3 5315   0.003  11.904   9.950  0.1059  0.1895 -0.0294
  333loPI   PO4 5316   0.069  11.786   9.363 -0.3320  0.1615 -0.1088
  333loPI   GL1 5317   0.190  11.857   8.977  0.2150  0.0271  0.0990
  333loPI   GL2 5318   0.369  11.560   8.832  0.1933 -0.0422 -0.0835
  333loPI   C1A 5319   0.243  12.123   8.481 -0.1974  0.5074 -0.1528
  333loPI   C2A 5320   0.225  12.193   8.004 -0.3774  0.3376 -0.2750
  333loPI   C3A 5321   0.235  12.215   7.701 -0.2534  0.1869  0.0502
  333loPI   C4A 5322   0.423  12.320   7.335 -0.1691  0.2130 -0.0224
  333loPI   C5A 5323   0.466  12.287   6.881 -0.1683 -0.1984  0.2038
  333loPI   C6A 5324   0.418  12.378   6.473  0.2426 -0.0752 -0.3905
  333loPI   C1B 5325   0.382  11.378   8.418 -0.1113  0.1044  0.1862
  333loPI   C2B 5326   0.476  11.341   7.994  0.1568 -0.1980 -0.1580
  333loPI   C3B 5327   0.628  11.418   7.548 -0.0403 -0.1107  0.3667
  333loPI   C4B 5328   0.864  11.528   7.160  0.0022 -0.1021 -0.4831
  334loPI    C1 5329   2.640  11.368   9.686  0.1349  0.2092 -0.0922
  334loPI    C2 5330   2.907  11.284   9.972 -0.1247 -0.4747 -0.0299
  334loPI    C3 5331   2.557  11.450  10.069  0.0190 -0.1614 -0.0335
  334loPI   PO4 5332   2.688  11.011   9.511 -0.0299 -0.2586 -0.3668
  334loPI   GL1 5333   2.991  10.957   9.142  0.1119  0.5213 -0.0058
  334loPI   GL2 5334   3.275  11.035   9.082  0.0640 -0.1434  0.1334
  334loPI   C1A 5335   2.815  10.844   8.787  0.2046  0.1696  0.2500
  334loPI   C2A 5336   2.881  10.798   8.431  0.3439 -0.2381 -0.1196
  334loPI   C3A 5337   2.896  10.777   8.006 -0.0607 -0.0528 -0.2086
  334loPI   C4A 5338   2.999  10.727   7.510 -0.1145 -0.2067  0.0338
  334loPI   C5A 5339   3.254  10.514   7.282  0.0950  0.1522 -0.0842
  334loPI   C6A 5340   3.445  10.569   6.944  0.1853  0.1771 -0.3142
  334loPI   C1B 5341   3.288  11.044   8.612 -0.2038  0.0098 -0.3093
  334loPI   C2B 5342   3.282  10.979   8.255 -0.3152 -0.1102 -0.0796
  334loPI   C3B 5343   3.185  11.064   7.786  0.3387 -0.3363 -0.0947
  334loPI   C4B 5344   3.286  11.059   7.347 -0.0078 -0.3615 -0.0470
  335loPI    C1 5345   4.456  13.658   9.386 -0.2048 -0.1518  0.0572
  335loPI    C2 5346   4.328  13.622   9.763 -0.2192  0.3467  0.1058
  335loPI    C3 5347   4.458  13.976   9.628  0.0356  0.1131 -0.2819
  335loPI   PO4 5348   4.279  13.564   9.298  0.1683 -0.2036 -0.0076
  335loPI   GL1 5349   4.193  13.706   8.948  0.0339  0.2864  0.1311
  335loPI   GL2 5350   4.252  13.961   8.822  0.0948  0.2240 -0.0218
  335loPI   C1A 5351   3.826  13.640   8.569  0.0594 -0.1215  0.0111
  335loPI   C2A 5352   3.792  13.353   8.240  0.3029  0.1753  0.2904
  335loPI   C3A 5353   4.022  13.222   7.945  0.0939  0.1581  0.0402
  335loPI   C4A 5354   4.018  13.183   7.472  0.0815 -0.1337 -0.2034
  335loPI   C5A 5355   3.913  13.364   7.091  0.0499  0.0073  0.2941
  335loPI   C6A 5356   3.705  12.992   6.978  0.1560  0.0377 -0.2676
  335loPI   C1B 5357   4.047  14.119   8.479  0.0028 -0.1841  0.1390
  335loPI   C2B 5358   4.025  14.130   8.016  0.1188 -0.1200 -0.1421
  335loPI   C3B 5359   4.035  14.136   7.543 -0.3598  0.1512  0.0784
  335loPI   C4B 5360   3.881  14.112   7.099  0.3324  0.2006  0.1004
  336loPI    C1 5361  16.473   0.610   9.723 -0.2590 -0.2603  0.0308
  336loPI    C2 5362  16.589   0.513  10.093  0.0268 -0.1116 -0.0173
  336loPI    C3 5363  16.830   0.441   9.782 -0.0170  0.1824 -0.1222
  336loPI   PO4 5364  16.278   0.568   9.687  0.1648 -0.4040 -0.1570
  336loPI   GL1 5365  15.936   0.772   9.637  0.0978 -0.3473  0.1655
  336loPI   GL2 5366  15.945   1.110   9.445 -0.1395 -0.0608  0.2546
  336loPI   C1A 5367  16.100   0.694   9.123 -0.2656 -0.0492  0.1844
  336loPI   C2A 5368  16.281   0.543   8.775  0.0587 -0.4402  0.0279
  336loPI   C3A 5369  16.536   0.542   8.467  0.0831 -0.3011  0.0701
  336loPI   C4A 5370  16.522   0.602   8.026 -0.0371 -0.1592  0.0055
  336loPI   C5A 5371  16.474   0.626   7.682 -0.1393  0.0441  0.0377
  336loPI   C6A 5372  16.119   0.860   7.398 -0.3562 -0.1494 -0.1774
  336loPI   C1B 5373  16.236   1.191   9.095 -0.0188  0.0984  0.4918
  336loPI   C2B 5374  16.176   1.080   8.782  0.2208  0.0469  0.1790
  336loPI   C3B 5375  16.162   0.921   8.350  0.0099 -0.0403 -0.1669
  336loPI   C4B 5376  16.110   1.046   7.938 -0.1430 -0.0513 -0.1178
  337loPI    C1 5377   9.862   4.500  10.115  0.0470 -0.2062  0.1613
  337loPI    C2 5378   9.740   4.878  10.070 -0.2915 -0.3436 -0.1156
  337loPI    C3 5379  10.026   4.791  10.335 -0.0747  0.1314 -0.1834
  337loPI   PO4 5380   9.810   4.391   9.832 -0.1739  0.0757 -0.0161
  337loPI   GL1 5381   9.782   4.603   9.624  0.0034  0.2107 -0.0326
  337loPI   GL2 5382   9.904   4.860   9.426  0.0369 -0.2619 -0.0743
  337loPI   C1A 5383   9.711   4.475   9.165 -0.1953  0.1030  0.1112
  337loPI   C2A 5384   9.586   4.441   8.793  0.1387 -0.2479 -0.0060
  337loPI   C3A 5385   9.460   4.310   8.460 -0.0490  0.1269  0.0972
  337loPI   C4A 5386   9.407   4.460   8.094  0.1552 -0.2139  0.2759
  337loPI   C5A 5387   9.395   4.739   7.920  0.3432  0.0474  0.0739
  337loPI   C6A 5388   9.592   4.904   7.546  0.2261  0.1561  0.0755
  337loPI   C1B 5389   9.584   4.975   9.043  0.0366 -0.2726 -0.2276
  337loPI   C2B 5390   9.741   5.018   8.585  0.1465  0.4964  0.2919
  337loPI   C3B 5391   9.762   5.101   8.084 -0.2786 -0.3092  0.0773
  337loPI   C4B 5392   9.366   5.331   7.780  0.1410 -0.1144  0.2012
  338loPI    C1 5393  11.343   5.532   9.525  0.0677 -0.1049 -0.0746
  338loPI    C2 5394  11.733   5.596   9.589  0.0628 -0.1145 -0.0343
  338loPI    C3 5395  11.479   5.580   9.898  0.0140 -0.0009 -0.0683
  338loPI   PO4 5396  11.346   5.350   9.384 -0.0743 -0.1730  0.0057
  338loPI   GL1 5397  11.261   5.143   8.952  0.0276 -0.0542  0.0950
  338loPI   GL2 5398  11.545   5.238   8.878 -0.1204 -0.0052  0.1373
  338loPI   C1A 5399  11.097   5.041   8.635 -0.1639  0.0856 -0.1433
  338loPI   C2A 5400  10.895   4.847   8.336 -0.1125 -0.0634  0.1933
  338loPI   C3A 5401  10.899   4.645   7.950  0.1709  0.2528 -0.0455
  338loPI   C4A 5402  10.791   4.492   7.610  0.0962 -0.7566 -0.0187
  338loPI   C5A 5403  10.347   4.619   7.473  0.2093 -0.1557  0.2167
  338loPI   C6A 5404   9.923   4.715   7.254 -0.0126 -0.0721  0.4466
  338loPI   C1B 5405  11.633   5.159   8.526  0.1457 -0.0748 -0.0900
  338loPI   C2B 5406  11.528   5.181   8.109  0.4978 -0.0404 -0.0573
  338loPI   C3B 5407  11.717   5.190   7.762 -0.1950  0.3824 -0.0853
  338loPI   C4B 5408  11.939   4.778   7.563  0.0347  0.2175  0.1544
  339loPI    C1 5409  16.979  16.761   9.754 -0.0286 -0.1826 -0.1398
  339loPI    C2 5410  17.009  16.432   9.980 -0.1185  0.0135  0.1640
  339loPI    C3 5411  16.655  16.613   9.936 -0.1021 -0.0235 -0.1401
  339loPI   PO4 5412  17.196  16.733   9.604  0.0330 -0.3708  0.0623
  339loPI   GL1 5413  17.218  16.721   9.192  0.2290  0.2582 -0.0014
  339loPI   GL2 5414  17.400  16.476   9.028  0.0547  0.2639  0.0659
  339loPI   C1A 5415  17.227  16.888   8.816 -0.2531 -0.1686  0.0092
  339loPI   C2A 5416  17.192  16.983   8.460 -0.2678  0.1844 -0.1925
  339loPI   C3A 5417  17.148  17.056   8.104  0.0755 -0.4387  0.1624
  339loPI   C4A 5418  17.173  17.130   7.644  0.0285 -0.2459  0.0516
  339loPI   C5A 5419  16.924  17.498   7.403 -0.1489 -0.1616 -0.1182
  339loPI   C6A 5420  16.530  17.592   7.465  0.1846  0.0915 -0.1358
  339loPI   C1B 5421  17.575  16.438   8.619  0.0676 -0.0285  0.1204
  339loPI   C2B 5422  17.628  16.634   8.254  0.0849  0.3184  0.1535
  339loPI   C3B 5423  17.499  16.778   7.906 -0.0383  0.0825 -0.3339
  339loPI   C4B 5424  17.376  16.719   7.424 -0.1934  0.0300 -0.1403
  340loPI    C1 5425   1.748   4.659  10.481  0.1013 -0.4098  0.0690
  340loPI    C2 5426   2.084   4.546  10.668  0.3211  0.3096  0.1381
  340loPI    C3 5427   1.774   4.682  10.880  0.0344 -0.2017  0.0623
  340loPI   PO4 5428   1.828   4.630  10.206 -0.0485 -0.0974  0.1871
  340loPI   GL1 5429   1.942   4.876   9.894 -0.2855 -0.0148 -0.1719
  340loPI   GL2 5430   1.649   4.875   9.774  0.0918  0.0111 -0.1557
  340loPI   C1A 5431   1.988   4.528   9.576  0.1145 -0.0388 -0.2192
  340loPI   C2A 5432   2.039   4.614   9.127 -0.2805  0.2620  0.1491
  340loPI   C3A 5433   2.138   4.680   8.627 -0.1611 -0.1475  0.0783
  340loPI   C4A 5434   2.166   4.655   8.285  0.1495  0.0059 -0.1313
  340loPI   C5A 5435   2.031   4.858   7.817 -0.0805  0.1945 -0.2807
  340loPI   C6A 5436   2.117   4.849   7.295  0.1599 -0.3479 -0.0685
  340loPI   C1B 5437   1.623   4.849   9.315  0.0628 -0.1145 -0.1480
  340loPI   C2B 5438   1.674   4.878   8.873  0.0776 -0.0436  0.2582
  340loPI   C3B 5439   1.538   4.914   8.452  0.0105  0.3588 -0.1538
  340loPI   C4B 5440   1.302   5.213   8.180 -0.1653  0.0414 -0.4166
  341loPI    C1 5441   4.756   2.098  10.503 -0.1454  0.1975  0.1902
  341loPI    C2 5442   4.800   1.723  10.371  0.2344  0.3043 -0.0033
  341loPI    C3 5443   4.617   1.792  10.720 -0.4316 -0.0113 -0.2716
  341loPI   PO4 5444   4.587   2.198  10.246  0.2857 -0.1670  0.2455
  341loPI   GL1 5445   4.454   2.173   9.856  0.0288  0.0417 -0.4071
  341loPI   GL2 5446   4.559   2.494   9.721 -0.1457  0.1674  0.2823
  341loPI   C1A 5447   4.170   2.296   9.552 -0.0735  0.1564  0.1406
  341loPI   C2A 5448   4.176   2.425   9.091  0.3388  0.1226  0.0836
  341loPI   C3A 5449   4.183   2.365   8.622 -0.0095  0.0544  0.0966
  341loPI   C4A 5450   3.999   2.292   8.205  0.0830 -0.0158 -0.1308
  341loPI   C5A 5451   3.624   2.226   7.928  0.1780 -0.0351  0.2753
  341loPI   C6A 5452   3.230   2.472   7.801 -0.3844 -0.1464 -0.2003
  341loPI   C1B 5453   4.626   2.302   9.317 -0.1914  0.0305  0.1026
  341loPI   C2B 5454   4.640   2.366   8.763 -0.1929  0.1672 -0.2454
  341loPI   C3B 5455   4.591   2.269   8.335 -0.1585  0.0523  0.1201
  341loPI   C4B 5456   4.514   2.103   7.990 -0.0696 -0.0995  0.0353
  342loPI    C1 5457   4.722   7.243  10.199  0.0327  0.0482  0.0165
  342loPI    C2 5458   4.996   6.981  10.325  0.2036  0.2299  0.0282
  342loPI    C3 5459   4.673   7.056  10.549  0.1379  0.0083  0.0101
  342loPI   PO4 5460   4.927   7.481  10.125 -0.1128 -0.0965 -0.0714
  342loPI   GL1 5461   4.826   7.480   9.650  0.2239  0.1443  0.1641
  342loPI   GL2 5462   4.520   7.446   9.721  0.0846  0.0723  0.0820
  342loPI   C1A 5463   4.893   7.581   9.233 -0.0059 -0.2362 -0.2119
  342loPI   C2A 5464   4.913   7.474   8.831  0.2359 -0.0175  0.0089
  342loPI   C3A 5465   4.818   7.464   8.337  0.0383  0.0855  0.0972
  342loPI   C4A 5466   4.817   7.595   8.038 -0.0470  0.2152 -0.2404
  342loPI   C5A 5467   4.941   7.927   7.720  0.2433  0.1318  0.1080
  342loPI   C6A 5468   4.856   7.997   7.202 -0.0050 -0.2704  0.0114
  342loPI   C1B 5469   4.543   7.122   9.322 -0.2135 -0.1099 -0.2212
  342loPI   C2B 5470   4.454   7.143   8.814  0.0257 -0.0855 -0.2007
  342loPI   C3B 5471   4.377   7.208   8.380  0.1533  0.0733  0.2114
  342loPI   C4B 5472   4.318   7.165   7.975  0.0003 -0.2919 -0.1571
  343loPI    C1 5473   1.889  10.744   9.680 -0.1335 -0.1031  0.1466
  343loPI    C2 5474   1.804  10.416   9.892 -0.1466 -0.0306  0.2540
  343loPI    C3 5475   1.846  10.768  10.077  0.1081 -0.0145  0.1693
  343loPI   PO4 5476   1.781  10.654   9.446  0.0130  0.2400  0.5149
  343loPI   GL1 5477   1.992  10.347   9.219  0.0004  0.1543 -0.2277
  343loPI   GL2 5478   1.735  10.282   9.030 -0.0847 -0.2399  0.2471
  343loPI   C1A 5479   2.196  10.331   8.853 -0.1037  0.1747  0.3870
  343loPI   C2A 5480   2.511  10.419   8.484 -0.0497  0.1819 -0.1376
  343loPI   C3A 5481   2.606  10.372   8.120 -0.4732  0.2187  0.0894
  343loPI   C4A 5482   2.702  10.432   7.720 -0.0475  0.0405 -0.3720
  343loPI   C5A 5483   2.752  10.348   7.321  0.2776 -0.5424 -0.3098
  343loPI   C6A 5484   2.988  10.304   6.902 -0.0124 -0.1826  0.0828
  343loPI   C1B 5485   1.930  10.123   8.526  0.2495  0.3526  0.0228
  343loPI   C2B 5486   2.208  10.036   8.113 -0.3785  0.1543  0.0577
  343loPI   C3B 5487   2.292  10.052   7.699 -0.0932  0.1820  0.0420
  343loPI   C4B 5488   2.310  10.006   7.248  0.0160  0.1665 -0.0019
  344loPI    C1 5489  14.520   3.704  10.088 -0.1046 -0.0092  0.0436
  344loPI    C2 5490  14.908   3.711   9.990 -0.1206 -0.1624 -0.0341
  344loPI    C3 5491  14.787   3.861  10.341 -0.0189  0.0807 -0.1009
  344loPI   PO4 5492  14.430   3.756   9.889  0.0402 -0.0836 -0.3319
  344loPI   GL1 5493  14.261   3.924   9.477 -0.2458 -0.2593  0.3563
  344loPI   GL2 5494  14.531   3.906   9.277 -0.1683 -0.1595  0.1422
  344loPI   C1A 5495  14.057   3.837   8.971 -0.1436 -0.0147 -0.0549
  344loPI   C2A 5496  14.048   3.911   8.514  0.0290  0.0453 -0.4110
  344loPI   C3A 5497  13.984   3.948   8.030  0.0623  0.1576 -0.2392
  344loPI   C4A 5498  14.045   3.928   7.729  0.1242 -0.1466 -0.1682
  344loPI   C5A 5499  13.971   3.712   7.338 -0.0029 -0.0081 -0.1741
  344loPI   C6A 5500  14.022   3.533   7.031  0.2176 -0.0068  0.4076
  344loPI   C1B 5501  14.533   4.008   8.813 -0.0151  0.2209 -0.2340
  344loPI   C2B 5502  14.515   3.928   8.386  0.3777  0.2971 -0.1562
  344loPI   C3B 5503  14.478   3.925   7.991  0.1697  0.3244 -0.3024
  344loPI   C4B 5504  14.327   3.529   7.758  0.0586  0.0562 -0.0401
  345loPI    C1 5505   2.670  17.291   9.755  0.2695  0.2959 -0.0834
  345loPI    C2 5506   2.549  17.341  10.133 -0.0300  0.1356 -0.1549
  345loPI    C3 5507   2.939  17.344  10.046  0.0508 -0.0186  0.1842
  345loPI   PO4 5508   2.460  17.354   9.636 -0.0387 -0.0262 -0.0104
  345loPI   GL1 5509   2.389  16.997   9.334  0.2354 -0.3632  0.1499
  345loPI   GL2 5510   2.421  16.751   9.213 -0.2983 -0.2379 -0.0775
  345loPI   C1A 5511   2.587  17.124   8.893 -0.2392 -0.1683  0.1018
  345loPI   C2A 5512   2.362  17.193   8.532 -0.0844  0.1107  0.1730
  345loPI   C3A 5513   2.286  17.359   8.140  0.0134 -0.3106 -0.2295
  345loPI   C4A 5514   1.977  17.493   7.917 -0.1134  0.3341 -0.4428
  345loPI   C5A 5515   1.705  17.741   7.771  0.5540 -0.2240 -0.0635
  345loPI   C6A 5516   1.505  18.205   7.663  0.0355 -0.0193 -0.1173
  345loPI   C1B 5517   2.255  16.798   8.793  0.1755  0.1875 -0.1229
  345loPI   C2B 5518   2.144  16.617   8.376  0.0372  0.2023 -0.1928
  345loPI   C3B 5519   2.094  16.632   7.939 -0.1940  0.1276  0.4047
  345loPI   C4B 5520   2.159  16.608   7.442  0.4064  0.1236 -0.1702
  346loPI    C1 5521  14.144  12.502   9.634  0.1607 -0.1042  0.0620
  346loPI    C2 5522  13.921  12.642   9.936  0.1139  0.1512 -0.0877
  346loPI    C3 5523  14.288  12.498  10.007 -0.0510 -0.1656  0.1446
  346loPI   PO4 5524  14.040  12.648   9.430  0.0298  0.2355  0.4567
  346loPI   GL1 5525  13.917  12.858   9.056  0.0863  0.6194  0.2401
  346loPI   GL2 5526  13.631  12.730   8.986 -0.1586 -0.1790  0.0213
  346loPI   C1A 5527  13.912  12.911   8.618  0.1851 -0.2225  0.0689
  346loPI   C2A 5528  13.715  13.080   8.225  0.3904  0.3977  0.0928
  346loPI   C3A 5529  13.727  13.290   7.867 -0.1568  0.0586 -0.2815
  346loPI   C4A 5530  13.624  13.221   7.466  0.2517 -0.2451  0.0446
  346loPI   C5A 5531  13.684  13.231   6.996 -0.0229 -0.0316 -0.0172
  346loPI   C6A 5532  13.791  13.182   6.544 -0.4244 -0.1582 -0.1140
  346loPI   C1B 5533  13.699  12.461   8.627  0.2048 -0.0051  0.1318
  346loPI   C2B 5534  13.870  12.422   8.281  0.0994  0.1915 -0.1238
  346loPI   C3B 5535  13.833  12.378   7.778  0.2530 -0.2726  0.2304
  346loPI   C4B 5536  13.695  12.053   7.375  0.1009 -0.2609 -0.3721
  347loPI    C1 5537  16.159  11.059   9.540 -0.0972 -0.0188 -0.1419
  347loPI    C2 5538  15.981  10.922   9.210  0.0684 -0.1894 -0.1621
  347loPI    C3 5539  16.137  10.665   9.474  0.0622 -0.0492 -0.0211
  347loPI   PO4 5540  16.312  11.204   9.457 -0.0584  0.2482  0.1510
  347loPI   GL1 5541  16.381  11.286   9.076  0.3145  0.1240  0.1508
  347loPI   GL2 5542  16.483  11.016   9.022  0.0717  0.0021  0.3106
  347loPI   C1A 5543  16.082  11.137   8.793 -0.0848  0.0851 -0.1986
  347loPI   C2A 5544  16.004  11.217   8.327 -0.0328  0.1127  0.1728
  347loPI   C3A 5545  15.798  11.288   7.881 -0.0666 -0.1309  0.1615
  347loPI   C4A 5546  16.039  11.507   7.612  0.0201  0.2498 -0.1156
  347loPI   C5A 5547  16.446  11.723   7.383  0.4701 -0.0161 -0.2709
  347loPI   C6A 5548  16.638  11.976   7.269  0.0001 -0.0736 -0.1098
  347loPI   C1B 5549  16.579  11.010   8.578 -0.1193 -0.3742 -0.1233
  347loPI   C2B 5550  16.635  10.894   8.194  0.4371  0.0673 -0.2109
  347loPI   C3B 5551  16.689  10.927   7.773 -0.3205  0.4949 -0.0223
  347loPI   C4B 5552  16.559  10.637   7.415  0.1473 -0.0255  0.1429
  348loPI    C1 5553   1.827   0.818  10.303  0.1521 -0.4251  0.0035
  348loPI    C2 5554   2.115   1.088  10.239 -0.2274  0.0115  0.0799
  348loPI    C3 5555   2.001   1.002  10.612 -0.2449 -0.1090  0.0472
  348loPI   PO4 5556   1.754   0.547  10.248  0.1177  0.1054  0.0600
  348loPI   GL1 5557   1.609   0.456   9.870 -0.0975  0.1062  0.3985
  348loPI   GL2 5558   1.435   0.316   9.640 -0.4070  0.2710 -0.2251
  348loPI   C1A 5559   1.653   0.722   9.521 -0.2831  0.1050 -0.1205
  348loPI   C2A 5560   1.646   0.761   9.111 -0.1979 -0.0502 -0.2141
  348loPI   C3A 5561   1.672   0.828   8.662  0.0985 -0.0963  0.2798
  348loPI   C4A 5562   1.740   0.961   8.213  0.1356 -0.3996  0.0440
  348loPI   C5A 5563   1.878   0.955   7.818 -0.0554 -0.0224  0.0037
  348loPI   C6A 5564   2.352   0.898   7.669 -0.0440  0.1067 -0.1286
  348loPI   C1B 5565   1.179   0.677   9.304  0.0968 -0.0268 -0.0740
  348loPI   C2B 5566   1.138   1.051   9.204  0.2598 -0.2526  0.0393
  348loPI   C3B 5567   1.431   1.232   9.016 -0.1694 -0.0526 -0.3023
  348loPI   C4B 5568   1.311   1.224   8.610 -0.3228  0.0312 -0.0293
  349loPI    C1 5569  14.651   8.691   9.986 -0.0533 -0.1155  0.0170
  349loPI    C2 5570  14.665   9.048   9.807  0.1066 -0.1575 -0.0566
  349loPI    C3 5571  14.319   8.911   9.954  0.0180 -0.0296 -0.1437
  349loPI   PO4 5572  14.734   8.490   9.847  0.0806 -0.2991 -0.1726
  349loPI   GL1 5573  14.729   8.627   9.423  0.1393  0.0809  0.0647
  349loPI   GL2 5574  15.008   8.661   9.392 -0.2988  0.0090  0.2261
  349loPI   C1A 5575  14.527   8.615   8.953  0.1236  0.3031 -0.0291
  349loPI   C2A 5576  14.138   8.640   8.600 -0.2776 -0.0696  0.2394
  349loPI   C3A 5577  14.042   8.667   8.093  0.2077  0.3135  0.0835
  349loPI   C4A 5578  13.816   8.678   7.695 -0.2865  0.1376  0.0185
  349loPI   C5A 5579  13.393   8.598   7.573  0.0675 -0.3240  0.0289
  349loPI   C6A 5580  13.047   8.383   7.374  0.5129  0.4132 -0.1692
  349loPI   C1B 5581  15.010   8.407   8.971  0.0286  0.1565  0.0560
  349loPI   C2B 5582  14.732   8.221   8.672  0.2245 -0.0884  0.0404
  349loPI   C3B 5583  14.860   8.280   8.231  0.1926  0.0074  0.2803
  349loPI   C4B 5584  14.568   8.639   8.158  0.2071 -0.0047  0.0047
  350loPI    C1 5585  11.649  10.094   9.827  0.0320  0.3112 -0.0219
  350loPI    C2 5586  11.340  10.347   9.841 -0.0089  0.2588  0.0231
  350loPI    C3 5587  11.403  10.092  10.143 -0.1979 -0.0562 -0.1975
  350loPI   PO4 5588  11.684  10.002   9.619 -0.3133 -0.2520  0.0298
  350loPI   GL1 5589  11.502   9.973   9.318 -0.0381 -0.0971  0.1861
  350loPI   GL2 5590  11.270  10.125   9.332 -0.2063 -0.0316 -0.5508
  350loPI   C1A 5591  11.552   9.877   8.857 -0.2546  0.0689  0.0181
  350loPI   C2A 5592  11.584   9.708   8.328 -0.1713  0.2282 -0.2118
  350loPI   C3A 5593  12.025   9.465   8.117 -0.0111  0.2273  0.0931
  350loPI   C4A 5594  12.341   9.548   7.892  0.1136  0.0019  0.0522
  350loPI   C5A 5595  12.213   9.821   7.531 -0.1312  0.0979 -0.1964
  350loPI   C6A 5596  11.908   9.838   7.249 -0.0302  0.5195  0.1638
  350loPI   C1B 5597  11.294  10.387   8.974 -0.1265 -0.1067 -0.3227
  350loPI   C2B 5598  11.363  10.292   8.633 -0.2676 -0.1306 -0.0339
  350loPI   C3B 5599  11.413  10.145   8.252  0.2706 -0.0658 -0.1924
  350loPI   C4B 5600  11.324  10.039   7.830  0.0577 -0.1199 -0.0870
  351loPI    C1 5601   4.580   8.218  10.456 -0.0687 -0.0650  0.2143
  351loPI    C2 5602   4.351   7.982  10.684  0.2010 -0.2188  0.3304
  351loPI    C3 5603   4.694   8.129  10.829  0.3194 -0.2256  0.0621
  351loPI   PO4 5604   4.779   8.184  10.208 -0.1002 -0.1539  0.1844
  351loPI   GL1 5605   4.839   7.969   9.793  0.1069 -0.1998  0.3165
  351loPI   GL2 5606   5.075   8.189   9.756 -0.1706  0.2569 -0.2894
  351loPI   C1A 5607   4.612   7.887   9.491  0.0222  0.3629 -0.2399
  351loPI   C2A 5608   4.415   7.672   9.036  0.2679  0.0984  0.1572
  351loPI   C3A 5609   4.365   7.679   8.615  0.2790 -0.2840 -0.0697
  351loPI   C4A 5610   4.291   7.678   8.242  0.0882  0.2956  0.0083
  351loPI   C5A 5611   4.111   7.574   7.766 -0.1387 -0.0985  0.1082
  351loPI   C6A 5612   4.027   7.341   7.440 -0.0928  0.0083 -0.0915
  351loPI   C1B 5613   4.965   8.115   9.299 -0.1549 -0.1079  0.2131
  351loPI   C2B 5614   4.786   7.968   8.911  0.2153 -0.2629  0.2007
  351loPI   C3B 5615   4.723   7.979   8.474  0.0907 -0.1081 -0.3484
  351loPI   C4B 5616   4.869   8.103   8.200 -0.2313  0.0480  0.2282
  352loPI    C1 5617  16.055   6.130  10.114 -0.1222  0.0302  0.0056
  352loPI    C2 5618  16.058   6.467  10.330  0.1282 -0.0041  0.0587
  352loPI    C3 5619  16.401   6.278  10.249 -0.0129 -0.2653  0.0574
  352loPI   PO4 5620  15.919   6.182   9.895  0.3558  0.2745 -0.2014
  352loPI   GL1 5621  15.898   6.140   9.506 -0.0292 -0.0204  0.2340
  352loPI   GL2 5622  15.814   6.295   9.313  0.0774 -0.1642  0.1147
  352loPI   C1A 5623  15.944   5.852   9.160 -0.0941 -0.0793 -0.4511
  352loPI   C2A 5624  15.924   5.472   8.878  0.1913  0.1082  0.0290
  352loPI   C3A 5625  15.769   5.416   8.559 -0.0288  0.0350 -0.0004
  352loPI   C4A 5626  15.763   5.325   8.168 -0.3315 -0.0511 -0.1096
  352loPI   C5A 5627  15.589   5.349   7.766 -0.0102  0.2338  0.2554
  352loPI   C6A 5628  15.481   5.594   7.438 -0.4025 -0.0987 -0.2043
  352loPI   C1B 5629  15.877   6.307   8.897 -0.2281  0.3775 -0.0332
  352loPI   C2B 5630  15.984   6.265   8.441 -0.3369  0.0619 -0.1677
  352loPI   C3B 5631  15.676   6.443   8.086 -0.2410  0.3032  0.1658
  352loPI   C4B 5632  15.259   6.318   7.793 -0.1570 -0.0734  0.1038
  353loPI    C1 5633  13.630  15.050   9.998 -0.1934  0.0628  0.0107
  353loPI    C2 5634  13.789  14.687   9.943 -0.1432  0.0725  0.0922
  353loPI    C3 5635  13.624  14.782  10.295  0.3362  0.3142  0.2604
  353loPI   PO4 5636  13.691  15.168   9.731 -0.0913 -0.2937  0.0597
  353loPI   GL1 5637  13.630  15.066   9.375  0.0437 -0.3559  0.0210
  353loPI   GL2 5638  13.744  15.275   9.177  0.1999 -0.2851 -0.1117
  353loPI   C1A 5639  13.583  14.893   8.938  0.1065  0.0607 -0.3775
  353loPI   C2A 5640  13.690  14.895   8.573  0.2631 -0.3280 -0.1790
  353loPI   C3A 5641  13.761  14.928   8.120  0.1496  0.0982 -0.0047
  353loPI   C4A 5642  13.745  14.934   7.677 -0.0274  0.1559 -0.0499
  353loPI   C5A 5643  13.882  14.888   7.295 -0.2540  0.1963 -0.0872
  353loPI   C6A 5644  14.149  14.953   6.974  0.1531 -0.4277 -0.1923
  353loPI   C1B 5645  13.532  15.356   8.695  0.1776 -0.2646 -0.1496
  353loPI   C2B 5646  13.392  15.366   8.224  0.1499 -0.0833 -0.0924
  353loPI   C3B 5647  13.403  15.275   7.778 -0.1992  0.1575 -0.2525
  353loPI   C4B 5648  13.583  15.384   7.371  0.1212  0.0316  0.2359
  354loPI    C1 5649  19.217   4.708  10.430  0.3617 -0.2625 -0.0700
  354loPI    C2 5650  19.455   4.991  10.584  0.1624 -0.0375 -0.1681
  354loPI    C3 5651  19.540   4.604  10.642  0.3318  0.0412  0.1318
  354loPI   PO4 5652  19.024   4.810  10.268  0.2036 -0.0644  0.0835
  354loPI   GL1 5653  18.834   5.111   9.919  0.1516 -0.2848  0.1419
  354loPI   GL2 5654  18.775   4.780   9.834 -0.0812 -0.0297 -0.1223
  354loPI   C1A 5655  18.799   5.126   9.547 -0.0253 -0.1328  0.2944
  354loPI   C2A 5656  19.049   5.178   9.163  0.0584  0.3531 -0.0389
  354loPI   C3A 5657  18.858   5.118   8.838 -0.1833  0.1429 -0.1318
  354loPI   C4A 5658  18.718   5.422   8.459  0.1035  0.2307 -0.5319
  354loPI   C5A 5659  18.779   5.460   8.019 -0.0749 -0.1995 -0.0415
  354loPI   C6A 5660  18.538   5.525   7.592 -0.0881  0.2436  0.3425
  354loPI   C1B 5661  18.875   4.636   9.415 -0.0149  0.0798  0.1600
  354loPI   C2B 5662  18.943   4.598   8.955 -0.0554  0.1417 -0.2270
  354loPI   C3B 5663  18.846   4.665   8.561  0.0891 -0.2299  0.0281
  354loPI   C4B 5664  18.647   4.643   8.111 -0.0068 -0.2830 -0.0637
  355loPI    C1 5665   2.630   1.991  10.362 -0.2521 -0.0696  0.1699
  355loPI    C2 5666   2.329   1.968  10.624 -0.1642 -0.2147  0.2598
  355loPI    C3 5667   2.688   2.101  10.742 -0.1806 -0.0819  0.1628
  355loPI   PO4 5668   2.541   2.132  10.113  0.2374  0.0881 -0.4531
  355loPI   GL1 5669   2.401   2.016   9.741  0.0124  0.1271  0.1675
  355loPI   GL2 5670   2.086   2.139   9.912  0.0298 -0.1009  0.0626
  355loPI   C1A 5671   2.287   2.232   9.384 -0.0750  0.3480 -0.0838
  355loPI   C2A 5672   2.249   2.338   9.009 -0.2810 -0.1068  0.3787
  355loPI   C3A 5673   2.175   2.800   8.666  0.0685 -0.0084  0.3379
  355loPI   C4A 5674   2.002   2.776   8.204  0.1280 -0.3528  0.1301
  355loPI   C5A 5675   1.686   2.569   7.963 -0.0921  0.0453 -0.0638
  355loPI   C6A 5676   1.245   2.516   7.867 -0.1632  0.0991 -0.3355
  355loPI   C1B 5677   1.945   2.511   9.708 -0.0336 -0.0132  0.3930
  355loPI   C2B 5678   1.846   2.623   9.265 -0.1777  0.2749 -0.2574
  355loPI   C3B 5679   1.633   2.693   8.951  0.1368  0.1582 -0.0913
  355loPI   C4B 5680   1.659   2.717   8.560 -0.0474  0.0777  0.1570
  356loPI    C1 5681   7.185  13.297   9.795 -0.0540 -0.3474 -0.1344
  356loPI    C2 5682   7.577  13.318   9.871 -0.1483  0.0436  0.2891
  356loPI    C3 5683   7.388  12.966   9.892  0.1707 -0.1428  0.1111
  356loPI   PO4 5684   7.160  13.420   9.465 -0.1543 -0.1071 -0.1346
  356loPI   GL1 5685   7.370  13.366   9.017 -0.1644 -0.1638 -0.0021
  356loPI   GL2 5686   7.144  13.639   8.845  0.1354 -0.2088 -0.1626
  356loPI   C1A 5687   7.267  13.223   8.506 -0.1497 -0.1214  0.0984
  356loPI   C2A 5688   7.537  13.210   8.101 -0.0036  0.0568  0.0565
  356loPI   C3A 5689   7.672  13.015   7.788 -0.1998 -0.0690 -0.0310
  356loPI   C4A 5690   7.485  12.831   7.528  0.0297  0.1294  0.0736
  356loPI   C5A 5691   7.259  12.685   7.289  0.0100 -0.2488 -0.1000
  356loPI   C6A 5692   7.025  12.741   7.049 -0.0134 -0.1763 -0.0639
  356loPI   C1B 5693   7.101  13.631   8.318 -0.1414 -0.1283  0.3103
  356loPI   C2B 5694   7.211  13.508   7.920  0.4246 -0.1482  0.0063
  356loPI   C3B 5695   7.365  13.413   7.527  0.1397  0.2123 -0.2510
  356loPI   C4B 5696   7.442  13.223   7.197 -0.0467 -0.2214  0.1304
  357loPI    C1 5697  16.686  17.466   9.616 -0.2363  0.0794 -0.0662
  357loPI    C2 5698  16.682  17.077   9.524  0.0156  0.0254  0.1375
  357loPI    C3 5699  16.549  17.199   9.881  0.0404  0.1142  0.1164
  357loPI   PO4 5700  16.586  17.521   9.369  0.3296 -0.4399  0.1000
  357loPI   GL1 5701  16.807  17.746   9.047  0.2245  0.2933 -0.1975
  357loPI   GL2 5702  17.008  17.802   9.244 -0.2109  0.0810 -0.0314
  357loPI   C1A 5703  17.013  17.796   8.639  0.1539  0.0896 -0.1909
  357loPI   C2A 5704  17.154  17.961   8.263 -0.3071  0.2546 -0.1215
  357loPI   C3A 5705  17.420  18.133   7.882 -0.1663 -0.1808 -0.2417
  357loPI   C4A 5706  17.528  18.284   7.507 -0.1335  0.1372  0.1116
  357loPI   C5A 5707  17.804  18.484   7.153  0.1952  0.1423 -0.0816
  357loPI   C6A 5708  17.562  18.755   6.862 -0.0900 -0.0837  0.0537
  357loPI   C1B 5709  16.780  18.206   8.894  0.1151 -0.1544 -0.2578
  357loPI   C2B 5710  16.910  18.409   8.498  0.2817  0.1025 -0.0564
  357loPI   C3B 5711  17.022  18.414   8.105  0.0873  0.1248  0.1602
  357loPI   C4B 5712  17.019  18.386   7.713 -0.1270 -0.2886  0.0602
  358loPI    C1 5713  15.118  15.130   9.643 -0.1127  0.1382 -0.0575
  358loPI    C2 5714  15.257  15.454   9.832  0.2126 -0.0538  0.0397
  358loPI    C3 5715  15.030  15.190  10.028 -0.2535  0.2297 -0.1031
  358loPI   PO4 5716  14.980  15.174   9.450 -0.2613 -0.1890  0.2385
  358loPI   GL1 5717  14.706  15.410   9.213 -0.0199 -0.1334  0.0450
  358loPI   GL2 5718  14.455  15.160   9.297  0.1844  0.0503 -0.1897
  358loPI   C1A 5719  14.569  15.399   8.780  0.2255  0.0492  0.2024
  358loPI   C2A 5720  14.454  15.295   8.392  0.0760 -0.1684  0.0530
  358loPI   C3A 5721  14.195  14.859   8.421 -0.3436 -0.1523 -0.2080
  358loPI   C4A 5722  14.086  14.562   8.184  0.0642  0.2997  0.0511
  358loPI   C5A 5723  14.121  14.622   7.785 -0.3073 -0.2422  0.0058
  358loPI   C6A 5724  14.322  14.932   7.493  0.3597 -0.0338 -0.2520
  358loPI   C1B 5725  14.163  15.111   9.071 -0.2607  0.0930  0.1205
  358loPI   C2B 5726  14.032  15.216   8.693  0.0297  0.0702  0.2085
  358loPI   C3B 5727  13.917  15.396   8.348 -0.0728  0.1750 -0.0864
  358loPI   C4B 5728  13.832  15.477   7.864 -0.1618 -0.1436 -0.1817
  359loPI    C1 5729  14.332  11.231   9.647  0.0263  0.0777  0.0743
  359loPI    C2 5730  14.120  11.266   9.985 -0.1376  0.1001 -0.0296
  359loPI    C3 5731  14.209  10.904   9.841 -0.0182  0.0901  0.0672
  359loPI   PO4 5732  14.231  11.461   9.435  0.0615  0.0798 -0.1596
  359loPI   GL1 5733  14.130  11.542   9.011  0.6120 -0.0904  0.0475
  359loPI   GL2 5734  14.427  11.562   8.986  0.1523  0.0751  0.2075
  359loPI   C1A 5735  13.951  11.466   8.634  0.0086  0.2060 -0.1727
  359loPI   C2A 5736  13.591  11.335   8.470 -0.1101  0.0247 -0.1465
  359loPI   C3A 5737  13.435  11.199   7.984  0.1156  0.0061 -0.0561
  359loPI   C4A 5738  13.278  11.294   7.681  0.1847  0.0024 -0.0134
  359loPI   C5A 5739  13.051  11.326   7.376 -0.0523 -0.1309 -0.1985
  359loPI   C6A 5740  12.676  11.641   7.327  0.1736 -0.1208 -0.4104
  359loPI   C1B 5741  14.626  11.631   8.666 -0.1205  0.2956  0.2641
  359loPI   C2B 5742  14.671  11.717   8.257  0.3584 -0.1117  0.2955
  359loPI   C3B 5743  14.661  11.722   7.734 -0.0006  0.0460 -0.1603
  359loPI   C4B 5744  14.557  11.993   7.448 -0.1597 -0.0070  0.0165
  360loPI    C1 5745  15.691   4.838  10.168 -0.0712 -0.2950 -0.0005
  360loPI    C2 5746  16.000   4.656  10.345 -0.1410 -0.2542  0.1654
  360loPI    C3 5747  15.740   4.867  10.564  0.0523  0.2196 -0.0460
  360loPI   PO4 5748  15.780   4.806   9.825  0.2767 -0.1955  0.0407
  360loPI   GL1 5749  15.984   4.493   9.512  0.3585 -0.2042  0.2044
  360loPI   GL2 5750  16.226   4.841   9.512  0.0442  0.0849 -0.1188
  360loPI   C1A 5751  16.026   4.617   9.120  0.0997  0.1909  0.2292
  360loPI   C2A 5752  16.063   4.616   8.668  0.0817 -0.0560 -0.0193
  360loPI   C3A 5753  16.059   4.422   8.212 -0.1299  0.0154  0.0397
  360loPI   C4A 5754  15.968   4.477   7.802 -0.0979  0.1201  0.0142
  360loPI   C5A 5755  16.029   4.686   7.372 -0.3348 -0.4132  0.4511
  360loPI   C6A 5756  15.948   4.710   6.908  0.1329 -0.3004 -0.2612
  360loPI   C1B 5757  16.057   5.086   9.119  0.2579 -0.1769  0.4077
  360loPI   C2B 5758  16.183   5.085   8.609  0.0734 -0.0639 -0.0844
  360loPI   C3B 5759  16.231   5.054   8.135 -0.1496  0.1245  0.2854
  360loPI   C4B 5760  16.030   4.976   7.769  0.0180 -0.1088  0.3730
  361loPI    C1 5761  14.734  15.555   9.719  0.1042 -0.1371  0.1705
  361loPI    C2 5762  14.714  15.873   9.477  0.0861 -0.3012 -0.0464
  361loPI    C3 5763  14.913  15.897   9.823  0.1762 -0.0864 -0.1115
  361loPI   PO4 5764  14.475  15.481   9.694 -0.1405  0.1072  0.2475
  361loPI   GL1 5765  14.288  15.739   9.258  0.2361  0.0658 -0.0345
  361loPI   GL2 5766  14.187  15.581   9.025  0.0029 -0.2316  0.0099
  361loPI   C1A 5767  14.617  15.907   9.038 -0.1891  0.1542  0.2397
  361loPI   C2A 5768  14.757  16.174   8.768 -0.0831  0.0373 -0.1785
  361loPI   C3A 5769  14.517  16.269   8.481 -0.1018 -0.0647  0.2197
  361loPI   C4A 5770  14.565  16.566   8.111 -0.3071 -0.3059 -0.3649
  361loPI   C5A 5771  14.516  16.559   7.643 -0.0569  0.1599 -0.2074
  361loPI   C6A 5772  14.440  16.750   7.275  0.0639 -0.1272 -0.0416
  361loPI   C1B 5773  14.255  15.744   8.649  0.0618  0.0073 -0.0556
  361loPI   C2B 5774  14.183  15.784   8.280 -0.1736 -0.0409  0.0619
  361loPI   C3B 5775  14.301  15.588   8.028 -0.2202 -0.0819  0.1540
  361loPI   C4B 5776  14.243  15.468   7.607 -0.0565 -0.1359  0.0098
  362loPI    C1 5777   1.915  15.311   9.640 -0.0959  0.0958  0.0407
  362loPI    C2 5778   1.752  15.229   9.997  0.0664 -0.1550  0.0597
  362loPI    C3 5779   2.138  15.332   9.972 -0.0777  0.4031  0.0110
  362loPI   PO4 5780   1.806  15.137   9.475 -0.3150  0.3753 -0.3427
  362loPI   GL1 5781   1.783  15.112   8.981  0.3523 -0.1201  0.0920
  362loPI   GL2 5782   1.943  15.406   9.128 -0.1461 -0.1922  0.1836
  362loPI   C1A 5783   1.835  15.036   8.572 -0.1856 -0.4355  0.2659
  362loPI   C2A 5784   1.966  14.990   8.250  0.1713 -0.1420  0.2144
  362loPI   C3A 5785   2.271  15.137   7.975  0.0774 -0.1716 -0.2535
  362loPI   C4A 5786   2.486  14.978   7.704 -0.0986 -0.0582  0.0109
  362loPI   C5A 5787   2.764  15.009   7.313 -0.2453  0.2632 -0.0674
  362loPI   C6A 5788   3.124  14.899   7.030 -0.1583 -0.1952 -0.3418
  362loPI   C1B 5789   2.052  15.483   8.621 -0.4727  0.0757 -0.1428
  362loPI   C2B 5790   2.100  15.572   8.232 -0.2834  0.0571  0.1523
  362loPI   C3B 5791   2.425  15.581   7.921  0.0383  0.0730  0.0052
  362loPI   C4B 5792   2.465  15.486   7.512  0.5629 -0.3967  0.2567
  363loPI    C1 5793   4.239  14.549   9.591  0.2671  0.1591  0.0463
  363loPI    C2 5794   4.336  14.359   9.930  0.0234  0.0733  0.0695
  363loPI    C3 5795   3.998  14.573   9.910  0.0049  0.0269 -0.1384
  363loPI   PO4 5796   4.306  14.418   9.358  0.0482 -0.3129 -0.3254
  363loPI   GL1 5797   4.141  14.437   8.953  0.3787 -0.1505  0.0745
  363loPI   GL2 5798   4.024  14.781   9.055  0.0649  0.0170 -0.0987
  363loPI   C1A 5799   4.033  14.596   8.485  0.0329 -0.1371  0.0127
  363loPI   C2A 5800   4.090  14.670   8.126  0.0881 -0.1952  0.1588
  363loPI   C3A 5801   3.960  14.584   7.707 -0.1137 -0.3522  0.0952
  363loPI   C4A 5802   3.977  14.686   7.272  0.1460 -0.0307 -0.1850
  363loPI   C5A 5803   3.922  14.792   6.962 -0.1488  0.0268 -0.0447
  363loPI   C6A 5804   3.570  15.027   6.793  0.0408  0.2777 -0.1209
  363loPI   C1B 5805   3.938  15.063   8.744 -0.0908  0.0985  0.1449
  363loPI   C2B 5806   4.063  15.283   8.394  0.3055 -0.2150 -0.0236
  363loPI   C3B 5807   4.450  15.618   8.342  0.3455  0.3319  0.1680
  363loPI   C4B 5808   4.409  16.117   8.394  0.0641 -0.1010  0.0996
  364loPI    C1 5809   8.895   7.266   9.849 -0.0005  0.2649  0.2933
  364loPI    C2 5810   8.730   7.544  10.084 -0.4002  0.1265  0.1829
  364loPI    C3 5811   8.671   7.157  10.162 -0.3182  0.0775  0.0064
  364loPI   PO4 5812   8.909   7.411   9.631  0.2270  0.0751 -0.3505
  364loPI   GL1 5813   9.156   7.271   9.364  0.1145  0.2694  0.0041
  364loPI   GL2 5814   8.873   7.518   9.126 -0.1325  0.1513  0.0157
  364loPI   C1A 5815   9.156   7.261   8.838  0.3745  0.2554  0.2505
  364loPI   C2A 5816   9.102   7.254   8.416  0.0569  0.0651 -0.1176
  364loPI   C3A 5817   8.754   7.402   8.133  0.1156  0.0621 -0.1547
  364loPI   C4A 5818   8.482   7.417   7.732  0.1907  0.3740 -0.0213
  364loPI   C5A 5819   8.235   7.459   7.308 -0.1225  0.1161  0.1420
  364loPI   C6A 5820   7.802   7.554   7.152  0.1237 -0.0479  0.1266
  364loPI   C1B 5821   8.680   7.459   8.696 -0.2803 -0.2885  0.1246
  364loPI   C2B 5822   8.352   7.354   8.407  0.2008 -0.4158  0.0166
  364loPI   C3B 5823   8.112   7.278   7.990  0.2058 -0.3387  0.3203
  364loPI   C4B 5824   7.788   7.384   7.648 -0.1051  0.1467 -0.1614
  365loPI    C1 5825   6.027  13.593   9.442  0.1624  0.0193 -0.3408
  365loPI    C2 5826   6.297  13.775   9.209  0.1314  0.2744 -0.1817
  365loPI    C3 5827   6.320  13.811   9.606  0.0186  0.0751 -0.1559
  365loPI   PO4 5828   5.773  13.585   9.354 -0.0282 -0.2877 -0.0213
  365loPI   GL1 5829   5.729  13.624   8.967 -0.0918  0.1785  0.2604
  365loPI   GL2 5830   5.955  13.373   8.833 -0.0191  0.1665  0.2112
  365loPI   C1A 5831   5.675  13.748   8.558 -0.0670 -0.2186  0.3358
  365loPI   C2A 5832   5.814  13.805   8.061 -0.1060  0.4495 -0.1708
  365loPI   C3A 5833   5.669  13.610   7.625 -0.1252 -0.1047 -0.0910
  365loPI   C4A 5834   5.805  13.555   7.219 -0.3651 -0.1455  0.2479
  365loPI   C5A 5835   5.991  13.154   7.177  0.0348 -0.1513 -0.2390
  365loPI   C6A 5836   5.810  12.688   7.298 -0.0915  0.3483 -0.1550
  365loPI   C1B 5837   6.115  13.441   8.366 -0.2490  0.3654 -0.0159
  365loPI   C2B 5838   6.161  13.479   7.937  0.0307 -0.0871 -0.0298
  365loPI   C3B 5839   6.307  13.486   7.540  0.0495  0.0894  0.0107
  365loPI   C4B 5840   6.205  13.564   6.989 -0.2734  0.1729 -0.1011
  366loPI    C1 5841   3.917  15.081   9.792 -0.3674 -0.1324  0.1093
  366loPI    C2 5842   3.931  15.465   9.683 -0.1670 -0.2607 -0.3385
  366loPI    C3 5843   4.122  15.344  10.013  0.0718 -0.0375 -0.3916
  366loPI   PO4 5844   3.971  15.010   9.488 -0.2233 -0.0505 -0.0667
  366loPI   GL1 5845   3.919  15.400   9.152 -0.0291 -0.2176  0.1542
  366loPI   GL2 5846   4.152  15.636   9.178  0.3534  0.1994 -0.3381
  366loPI   C1A 5847   3.903  15.560   8.700  0.3491 -0.3415  0.2981
  366loPI   C2A 5848   3.987  15.859   8.401  0.2454 -0.2936 -0.1883
  366loPI   C3A 5849   3.793  16.085   8.138  0.1484 -0.1743 -0.4015
  366loPI   C4A 5850   3.593  16.400   7.915  0.1923 -0.1102  0.0473
  366loPI   C5A 5851   3.586  16.568   7.655 -0.1447 -0.1953  0.3300
  366loPI   C6A 5852   3.669  16.622   7.335 -0.3117  0.2357 -0.2290
  366loPI   C1B 5853   3.853  16.005   9.008  0.0505 -0.0396 -0.0484
  366loPI   C2B 5854   3.654  16.150   8.650  0.1282 -0.1180 -0.1870
  366loPI   C3B 5855   3.649  16.582   8.461  0.2212  0.1217  0.1358
  366loPI   C4B 5856   3.647  17.032   8.330 -0.0736  0.6495 -0.3393
  367loPI    C1 5857   6.996  15.282   9.410 -0.0838  0.0504  0.1975
  367loPI    C2 5858   7.269  15.412   9.148  0.0104 -0.0951  0.2217
  367loPI    C3 5859   7.095  15.669   9.400 -0.1389  0.0600 -0.0349
  367loPI   PO4 5860   6.772  15.081   9.291  0.1306 -0.1586 -0.2182
  367loPI   GL1 5861   6.484  15.032   8.916  0.0645 -0.0804 -0.1463
  367loPI   GL2 5862   6.168  15.082   8.975  0.4588  0.0978 -0.1655
  367loPI   C1A 5863   6.722  14.945   8.486  0.1932  0.0076 -0.3327
  367loPI   C2A 5864   6.660  15.013   8.071 -0.0315 -0.3760 -0.1556
  367loPI   C3A 5865   6.711  15.281   7.664 -0.1605 -0.4270  0.0705
  367loPI   C4A 5866   6.728  15.480   7.262 -0.2045  0.1841 -0.3779
  367loPI   C5A 5867   6.759  15.311   6.920 -0.2196 -0.0811 -0.3329
  367loPI   C6A 5868   6.657  15.098   6.603  0.0535  0.0141  0.0014
  367loPI   C1B 5869   6.198  15.099   8.516  0.0639 -0.1121  0.1299
  367loPI   C2B 5870   6.209  14.816   8.111 -0.1692  0.1481  0.1338
  367loPI   C3B 5871   6.215  14.900   7.696 -0.1844  0.2895 -0.1568
  367loPI   C4B 5872   6.437  15.038   7.314 -0.2564  0.2634  0.2421
  368loPI    C1 5873  18.125   7.179  10.187 -0.2173  0.0567 -0.0695
  368loPI    C2 5874  18.383   7.460  10.065 -0.0735 -0.0184  0.0596
  368loPI    C3 5875  18.427   7.290  10.425 -0.2194 -0.1344  0.0235
  368loPI   PO4 5876  18.148   6.964  10.075  0.2454  0.0505  0.6593
  368loPI   GL1 5877  18.164   6.677   9.747 -0.3097 -0.3569  0.0082
  368loPI   GL2 5878  18.461   6.856   9.543 -0.1181  0.1807 -0.0361
  368loPI   C1A 5879  18.313   6.299   9.625  0.0211  0.2956 -0.2306
  368loPI   C2A 5880  18.499   6.036   9.299 -0.2731 -0.3728 -0.1047
  368loPI   C3A 5881  18.556   6.134   8.804  0.4594 -0.1277  0.2257
  368loPI   C4A 5882  18.534   5.907   8.381 -0.0435  0.1488 -0.0875
  368loPI   C5A 5883  18.253   5.666   8.180 -0.0401 -0.1134  0.1017
  368loPI   C6A 5884  18.189   5.289   7.908  0.0995  0.0368 -0.1118
  368loPI   C1B 5885  18.275   6.643   9.219  0.0316  0.1091 -0.2484
  368loPI   C2B 5886  17.970   6.717   8.988  0.2239 -0.2220  0.1582
  368loPI   C3B 5887  17.858   6.707   8.586 -0.1749  0.0568  0.1284
  368loPI   C4B 5888  17.749   6.343   8.397 -0.2105  0.0191  0.0098
  369loPI    C1 5889   1.857   3.730  10.171 -0.2621 -0.0755  0.1339
  369loPI    C2 5890   1.964   3.384  10.003 -0.1392 -0.0141  0.0838
  369loPI    C3 5891   1.953   3.418  10.401 -0.0468 -0.0440  0.0892
  369loPI   PO4 5892   1.725   3.834  10.043  0.1071  0.2409  0.3071
  369loPI   GL1 5893   1.792   4.063   9.663  0.0551  0.0061 -0.1238
  369loPI   GL2 5894   1.645   4.282   9.858  0.3608 -0.1724 -0.1629
  369loPI   C1A 5895   1.926   4.145   9.282 -0.0856  0.2917  0.1417
  369loPI   C2A 5896   2.052   4.128   8.887 -0.0353 -0.0736  0.3817
  369loPI   C3A 5897   2.219   4.151   8.492 -0.0495 -0.1209 -0.0075
  369loPI   C4A 5898   2.370   4.061   7.970  0.0081  0.2433  0.1561
  369loPI   C5A 5899   2.775   4.003   7.720  0.0370 -0.0956  0.0066
  369loPI   C6A 5900   2.998   3.840   7.514 -0.2203 -0.3463  0.3814
  369loPI   C1B 5901   1.499   4.330   9.426  0.1175 -0.0891 -0.0921
  369loPI   C2B 5902   1.569   4.319   8.924  0.2331  0.1282  0.3167
  369loPI   C3B 5903   1.724   4.397   8.524 -0.1292  0.0514  0.2904
  369loPI   C4B 5904   1.513   4.492   8.134 -0.1158 -0.0001 -0.1344
  370loPI    C1 5905   9.790  12.830   9.533 -0.1086  0.3464  0.1102
  370loPI    C2 5906   9.769  12.672   9.901 -0.1374  0.1652  0.0319
  370loPI    C3 5907   9.709  13.064   9.847 -0.0459  0.2076  0.2312
  370loPI   PO4 5908   9.591  12.714   9.396  0.0167 -0.0151 -0.0782
  370loPI   GL1 5909   9.681  12.359   9.025 -0.2433  0.0660 -0.0536
  370loPI   GL2 5910   9.391  12.207   8.945 -0.4580 -0.2693  0.2769
  370loPI   C1A 5911   9.914  12.557   8.662 -0.0141 -0.0317  0.1167
  370loPI   C2A 5912  10.068  12.382   8.324  0.2615 -0.2158  0.2016
  370loPI   C3A 5913  10.433  12.391   7.968  0.1075  0.4877 -0.0768
  370loPI   C4A 5914  10.488  12.422   7.546 -0.0070 -0.1443 -0.0231
  370loPI   C5A 5915  10.394  12.521   7.114  0.3497  0.2914 -0.0479
  370loPI   C6A 5916   9.955  12.518   7.016 -0.3315  0.0272 -0.0070
  370loPI   C1B 5917   9.348  12.369   8.596 -0.0331 -0.2645  0.1542
  370loPI   C2B 5918   9.599  12.389   8.210 -0.3772  0.3095 -0.1071
  370loPI   C3B 5919   9.871  12.659   7.925  0.3477  0.0844 -0.1981
  370loPI   C4B 5920  10.075  12.734   7.614 -0.4519  0.3521  0.0096
  371loPI    C1 5921  13.474   9.111   9.873 -0.2380 -0.2294  0.0875
  371loPI    C2 5922  13.703   9.125  10.200 -0.1459  0.0147  0.0149
  371loPI    C3 5923  13.866   9.184   9.840 -0.2601 -0.1776 -0.0698
  371loPI   PO4 5924  13.203   9.186   9.959 -0.4180  0.0700  0.1639
  371loPI   GL1 5925  13.030   9.065   9.575  0.0463 -0.1356  0.0851
  371loPI   GL2 5926  13.063   9.426   9.484  0.0059 -0.1512  0.0329
  371loPI   C1A 5927  12.977   8.918   9.134  0.1807  0.0801 -0.4206
  371loPI   C2A 5928  12.842   8.955   8.671  0.1565 -0.1135 -0.0521
  371loPI   C3A 5929  12.945   8.717   8.273  0.1743 -0.2569  0.1707
  371loPI   C4A 5930  12.921   8.636   7.884  0.2022  0.2829  0.0413
  371loPI   C5A 5931  12.878   8.839   7.509  0.0286  0.0107  0.1799
  371loPI   C6A 5932  13.058   9.306   7.492  0.0106  0.1973 -0.1789
  371loPI   C1B 5933  13.192   9.352   9.031  0.0876 -0.0762 -0.3509
  371loPI   C2B 5934  13.339   9.101   8.721  0.0399 -0.5329 -0.1736
  371loPI   C3B 5935  13.347   9.187   8.299 -0.0497  0.1586  0.1124
  371loPI   C4B 5936  13.230   9.039   7.895 -0.0976 -0.0871 -0.0152
  372loPI    C1 5937   5.063  14.143   9.567  0.2777  0.0061  0.1099
  372loPI    C2 5938   4.798  14.308   9.816  0.0288 -0.2472  0.0174
  372loPI    C3 5939   5.108  14.102   9.962 -0.0177 -0.2447  0.1203
  372loPI   PO4 5940   4.895  14.065   9.340 -0.5064 -0.0566  0.1014
  372loPI   GL1 5941   4.943  14.278   8.944 -0.0291 -0.1469  0.1552
  372loPI   GL2 5942   4.638  14.260   9.031 -0.2021 -0.2362  0.0151
  372loPI   C1A 5943   4.957  14.292   8.431  0.0979 -0.0675  0.0292
  372loPI   C2A 5944   4.970  14.370   8.008  0.1710 -0.2009 -0.3652
  372loPI   C3A 5945   4.995  14.349   7.594 -0.3668  0.1283  0.2012
  372loPI   C4A 5946   5.333  14.562   7.276 -0.1566  0.0647 -0.1328
  372loPI   C5A 5947   5.452  15.090   7.230  0.1236 -0.0511 -0.0602
  372loPI   C6A 5948   5.736  15.430   7.170  0.0171  0.1595 -0.0314
  372loPI   C1B 5949   4.486  14.315   8.610 -0.0513 -0.0774  0.0055
  372loPI   C2B 5950   4.501  14.470   8.214  0.4138  0.0916  0.2926
  372loPI   C3B 5951   4.471  14.384   7.732 -0.2941 -0.1692 -0.3338
  372loPI   C4B 5952   4.485  14.281   7.382 -0.2919 -0.3718  0.3031
  373loPI    C1 5953   0.010  17.140  10.006 -0.0267  0.1583 -0.1651
  373loPI    C2 5954  -0.315  17.353  10.101 -0.0290  0.1913 -0.2462
  373loPI    C3 5955   0.049  17.511  10.152 -0.0195  0.0930  0.0008
  373loPI   PO4 5956  -0.067  17.080   9.734  0.0146  0.1393  0.0720
  373loPI   GL1 5957  -0.203  17.043   9.317 -0.1931  0.0495 -0.1278
  373loPI   GL2 5958  -0.477  17.138   9.120 -0.3598  0.0106 -0.1476
  373loPI   C1A 5959  -0.218  16.581   9.068 -0.1387  0.0485  0.2926
  373loPI   C2A 5960  -0.279  16.646   8.671 -0.1580  0.2141  0.2086
  373loPI   C3A 5961  -0.215  16.831   8.257  0.2509 -0.1550  0.1116
  373loPI   C4A 5962   0.092  16.796   8.005  0.3045  0.1630  0.0521
  373loPI   C5A 5963   0.471  16.630   7.898 -0.1985  0.0602 -0.0694
  373loPI   C6A 5964   0.697  16.308   7.598  0.2157 -0.2323  0.1233
  373loPI   C1B 5965  -0.610  17.109   8.703  0.0502  0.1474  0.4130
  373loPI   C2B 5966  -0.616  17.193   8.207  0.1461  0.1207  0.0578
  373loPI   C3B 5967  -0.471  16.984   7.841  0.0935  0.2268 -0.3923
  373loPI   C4B 5968  -0.328  16.949   7.419  0.1379  0.2103  0.4459
  374loPI    C1 5969  13.996   5.376   9.744  0.0980 -0.2465 -0.2265
  374loPI    C2 5970  14.227   5.197  10.017  0.1103 -0.0712 -0.1202
  374loPI    C3 5971  13.840   5.102   9.989  0.0683  0.0360  0.0783
  374loPI   PO4 5972  14.089   5.620   9.732  0.1323 -0.6344 -0.4879
  374loPI   GL1 5973  14.184   5.844   9.512  0.1986 -0.2055 -0.3289
  374loPI   GL2 5974  13.842   6.037   9.401  0.3338 -0.1638  0.0777
  374loPI   C1A 5975  14.146   5.441   9.112 -0.4582  0.0703  0.0960
  374loPI   C2A 5976  14.368   5.335   8.703 -0.2308  0.2922 -0.3083
  374loPI   C3A 5977  14.270   5.349   8.297  0.2899  0.1904 -0.0952
  374loPI   C4A 5978  14.156   5.355   7.886  0.0172 -0.1640  0.4516
  374loPI   C5A 5979  13.955   5.016   7.851 -0.7183  0.1420 -0.0413
  374loPI   C6A 5980  13.760   4.755   7.978  0.1463  0.1863 -0.0699
  374loPI   C1B 5981  14.015   5.919   9.031  0.0518 -0.0052 -0.2720
  374loPI   C2B 5982  14.066   5.755   8.605  0.1246  0.2863  0.1070
  374loPI   C3B 5983  14.070   5.808   8.151 -0.0200  0.0381 -0.3127
  374loPI   C4B 5984  13.986   5.825   7.722 -0.3021  0.0078  0.0217
  375loPI    C1 5985   6.443   5.582  10.296  0.0076 -0.2603 -0.0010
  375loPI    C2 5986   6.608   5.401  10.611  0.1490 -0.2284 -0.0562
  375loPI    C3 5987   6.815   5.676  10.407 -0.0436 -0.0443 -0.0071
  375loPI   PO4 5988   6.303   5.376  10.110 -0.2247  0.0050 -0.0072
  375loPI   GL1 5989   6.189   5.370   9.709  0.1605  0.2223 -0.3100
  375loPI   GL2 5990   5.839   5.215   9.823  0.3576 -0.2372  0.5775
  375loPI   C1A 5991   6.242   5.251   9.312 -0.0352  0.5313 -0.1165
  375loPI   C2A 5992   6.347   5.145   8.857 -0.0430 -0.2831  0.0356
  375loPI   C3A 5993   6.318   5.116   8.506  0.1373  0.0182 -0.2427
  375loPI   C4A 5994   6.288   5.203   8.170  0.0409  0.0723  0.1952
  375loPI   C5A 5995   6.519   5.215   7.729 -0.0454 -0.2220 -0.1171
  375loPI   C6A 5996   6.853   5.225   7.327  0.3390  0.0074 -0.2456
  375loPI   C1B 5997   5.833   4.925   9.545  0.2113 -0.0015  0.1615
  375loPI   C2B 5998   5.753   4.883   9.087  0.3052  0.0743  0.0138
  375loPI   C3B 5999   5.886   4.870   8.695 -0.0433  0.0241 -0.2404
  375loPI   C4B 6000   5.900   4.893   8.285  0.1413 -0.2788 -0.0731
  376loPI    C1 6001   1.555  12.196   9.796  0.0365  0.2438  0.0777
  376loPI    C2 6002   1.229  12.426   9.775  0.0943  0.3298  0.1170
  376loPI    C3 6003   1.307  12.221  10.109  0.1109  0.3545  0.1283
  376loPI   PO4 6004   1.742  12.323   9.605 -0.1616 -0.2932 -0.1573
  376loPI   GL1 6005   1.870  12.274   9.205 -0.1199 -0.0556 -0.0694
  376loPI   GL2 6006   2.054  12.025   9.014 -0.0032 -0.1609  0.4936
  376loPI   C1A 6007   2.164  12.504   9.047 -0.1731  0.2992  0.2105
  376loPI   C2A 6008   2.248  12.615   8.680 -0.0583 -0.0175 -0.0956
  376loPI   C3A 6009   2.176  12.542   8.170  0.1182  0.3730  0.2089
  376loPI   C4A 6010   2.030  12.442   7.853 -0.2623 -0.3796  0.3183
  376loPI   C5A 6011   1.675  12.194   7.744 -0.5318 -0.1187  0.0009
  376loPI   C6A 6012   1.747  12.026   7.279 -0.1313 -0.0851  0.0217
  376loPI   C1B 6013   2.203  11.981   8.523  0.0563  0.0102 -0.0953
  376loPI   C2B 6014   2.279  12.026   8.077  0.1330 -0.4722  0.0100
  376loPI   C3B 6015   2.155  11.955   7.605  0.1176 -0.0032  0.0984
  376loPI   C4B 6016   2.258  11.999   7.171 -0.2602  0.0621 -0.1571
  377loPI    C1 6017  18.755   8.397  10.112 -0.1369 -0.1244  0.0037
  377loPI    C2 6018  18.625   8.602  10.430  0.1472 -0.1526  0.1411
  377loPI    C3 6019  18.966   8.707  10.250  0.1127 -0.2874 -0.0052
  377loPI   PO4 6020  18.544   8.428   9.944 -0.2445 -0.4523 -0.0336
  377loPI   GL1 6021  18.691   8.294   9.601  0.1653  0.3554  0.1733
  377loPI   GL2 6022  19.005   8.283   9.706 -0.0837  0.1290 -0.0567
  377loPI   C1A 6023  18.855   8.467   9.235  0.0055  0.0697 -0.2886
  377loPI   C2A 6024  19.052   8.712   8.840  0.3629 -0.2157 -0.0092
  377loPI   C3A 6025  19.506   8.783   8.634  0.1626  0.0817  0.1886
  377loPI   C4A 6026  19.508   8.617   8.144  0.0488 -0.0313  0.2506
  377loPI   C5A 6027  19.659   8.414   7.699  0.3978 -0.1024 -0.1864
  377loPI   C6A 6028  19.616   7.951   7.480  0.4097 -0.2174 -0.2299
  377loPI   C1B 6029  19.374   8.404   9.456 -0.3523  0.2366  0.2017
  377loPI   C2B 6030  19.518   8.342   8.959  0.2465 -0.1624  0.1573
  377loPI   C3B 6031  19.451   8.220   8.543 -0.0432 -0.0179  0.0431
  377loPI   C4B 6032  19.161   8.150   8.181 -0.0438  0.2266 -0.4126
  378loPI    C1 6033   4.393   2.626  10.405  0.1591 -0.0585 -0.0155
  378loPI    C2 6034   4.549   2.966  10.547 -0.0206  0.0546 -0.0859
  378loPI    C3 6035   4.671   2.614  10.692  0.2210  0.1453 -0.0653
  378loPI   PO4 6036   4.377   2.728  10.074 -0.0606 -0.2130 -0.1458
  378loPI   GL1 6037   4.131   2.772   9.689  0.0828 -0.0803  0.1896
  378loPI   GL2 6038   4.167   3.116   9.683 -0.1938  0.3683  0.4006
  378loPI   C1A 6039   3.810   2.571   9.389 -0.0468  0.3053 -0.0353
  378loPI   C2A 6040   3.653   2.604   9.102 -0.0455  0.0296  0.0849
  378loPI   C3A 6041   3.859   2.750   8.758 -0.0070 -0.3476  0.1463
  378loPI   C4A 6042   4.053   2.783   8.415 -0.2752 -0.1916  0.2339
  378loPI   C5A 6043   4.313   2.640   8.050 -0.0345 -0.1285  0.2773
  378loPI   C6A 6044   4.071   2.443   7.738 -0.2930  0.1059  0.0443
  378loPI   C1B 6045   4.357   3.346   9.273 -0.0919 -0.0015 -0.1153
  378loPI   C2B 6046   4.504   3.424   8.886 -0.3019 -0.3309  0.0413
  378loPI   C3B 6047   4.332   3.576   8.446 -0.1882 -0.0368 -0.3161
  378loPI   C4B 6048   4.316   3.628   8.063  0.0275  0.1234 -0.0099
  379loPI    C1 6049  10.288  12.610   9.674 -0.1506  0.1132 -0.0221
  379loPI    C2 6050  10.622  12.808   9.769  0.0722 -0.1963 -0.1428
  379loPI    C3 6051  10.550  12.449   9.929 -0.2341 -0.1072 -0.0733
  379loPI   PO4 6052  10.279  12.648   9.410 -0.0357  0.0281 -0.0454
  379loPI   GL1 6053  10.257  13.053   9.126 -0.0032  0.0764  0.0080
  379loPI   GL2 6054   9.953  12.941   9.042  0.4702  0.1219  0.0760
  379loPI   C1A 6055  10.381  12.802   8.742  0.2504  0.0232  0.2588
  379loPI   C2A 6056  10.398  12.797   8.252 -0.2499  0.0198 -0.4925
  379loPI   C3A 6057  10.625  12.826   7.846  0.2073 -0.0655  0.1062
  379loPI   C4A 6058  10.794  12.977   7.510  0.0666 -0.3468  0.0514
  379loPI   C5A 6059  11.085  13.014   7.178  0.2822  0.0564  0.0735
  379loPI   C6A 6060  11.351  12.936   6.908  0.2560 -0.2429  0.3262
  379loPI   C1B 6061   9.966  13.082   8.701  0.2056  0.1714  0.0748
  379loPI   C2B 6062   9.960  13.208   8.331 -0.2409 -0.1179  0.1708
  379loPI   C3B 6063   9.909  13.150   7.848 -0.0134 -0.1210 -0.1721
  379loPI   C4B 6064  10.039  13.241   7.496 -0.0373 -0.0821  0.1768
  380loPI    C1 6065   0.809  14.409   9.620  0.0382 -0.0613  0.2140
  380loPI    C2 6066   0.767  14.276   9.995 -0.1032  0.0628  0.2429
  380loPI    C3 6067   0.519  14.556   9.853 -0.1250 -0.0682  0.0178
  380loPI   PO4 6068   0.771  14.208   9.479 -0.0455  0.0620 -0.1909
  380loPI   GL1 6069   0.734  14.201   9.014 -0.0373  0.2899 -0.0760
  380loPI   GL2 6070   1.001  14.153   8.952 -0.1551 -0.0616  0.1214
  380loPI   C1A 6071   0.493  14.139   8.532 -0.0993  0.0911  0.1832
  380loPI   C2A 6072   0.301  14.183   8.138  0.2710 -0.2544  0.2049
  380loPI   C3A 6073   0.199  13.918   7.814 -0.2309 -0.3222  0.3751
  380loPI   C4A 6074   0.224  13.568   7.433  0.0271  0.0194 -0.2513
  380loPI   C5A 6075   0.389  13.143   7.415  0.1652  0.1985  0.0998
  380loPI   C6A 6076   0.823  13.049   7.132  0.2119 -0.1128 -0.2736
  380loPI   C1B 6077   1.004  14.077   8.500  0.0719  0.3005 -0.0937
  380loPI   C2B 6078   0.836  14.242   8.091 -0.0633  0.1476  0.2552
  380loPI   C3B 6079   0.601  14.259   7.736  0.1051  0.3034 -0.0460
  380loPI   C4B 6080   0.475  14.077   7.279  0.0750 -0.0315 -0.3672
  381loPI    C1 6081  19.189  14.511   9.611 -0.0741  0.3158  0.0023
  381loPI    C2 6082  18.836  14.500   9.798 -0.0877 -0.1529 -0.0401
  381loPI    C3 6083  19.084  14.188   9.821  0.3248  0.1683 -0.0178
  381loPI   PO4 6084  19.145  14.604   9.400 -0.3135  0.3772 -0.1745
  381loPI   GL1 6085  19.195  14.380   8.982 -0.2168 -0.3390 -0.0357
  381loPI   GL2 6086  19.487  14.498   8.788 -0.0294 -0.2289  0.0451
  381loPI   C1A 6087  19.052  14.406   8.530 -0.1827  0.1552 -0.0574
  381loPI   C2A 6088  18.992  14.460   8.100  0.1961  0.0699 -0.3853
  381loPI   C3A 6089  18.905  14.576   7.720  0.0767 -0.0993 -0.2081
  381loPI   C4A 6090  18.896  14.549   7.310  0.0343 -0.0130  0.0117
  381loPI   C5A 6091  18.683  14.784   6.882 -0.1220 -0.1099 -0.1032
  381loPI   C6A 6092  18.668  14.820   6.367  0.1137  0.1712  0.0041
  381loPI   C1B 6093  19.563  14.595   8.459  0.1217  0.1715 -0.0395
  381loPI   C2B 6094  19.769  14.619   8.044 -0.3390  0.1295 -0.2007
  381loPI   C3B 6095  20.024  14.825   7.633  0.1707 -0.2426  0.1102
  381loPI   C4B 6096  19.894  14.620   7.287  0.0032  0.0462 -0.1206
  382loPI    C1 6097  11.243   2.733   9.859 -0.2793 -0.0402 -0.0683
  382loPI    C2 6098  11.272   2.822  10.248  0.1970  0.2688 -0.1658
  382loPI    C3 6099  11.317   2.444  10.125 -0.3297  0.1062  0.1073
  382loPI   PO4 6100  11.006   2.778   9.749  0.2841 -0.0304  0.0238
  382loPI   GL1 6101  10.815   2.943   9.351 -0.2320 -0.1899 -0.2033
  382loPI   GL2 6102  10.954   3.194   9.083 -0.2804 -0.3381 -0.0161
  382loPI   C1A 6103  10.696   2.662   9.092 -0.0021 -0.0066 -0.0282
  382loPI   C2A 6104  10.642   2.524   8.673  0.0811  0.1389 -0.2930
  382loPI   C3A 6105  10.658   2.405   8.203  0.3794 -0.3176 -0.0440
  382loPI   C4A 6106  10.806   2.207   7.842 -0.1303  0.1854 -0.2912
  382loPI   C5A 6107  10.999   2.144   7.470 -0.3136 -0.0059 -0.1004
  382loPI   C6A 6108  11.464   1.977   7.412  0.1790  0.1418  0.0798
  382loPI   C1B 6109  10.769   3.017   8.757 -0.1121 -0.0557  0.2705
  382loPI   C2B 6110  10.647   2.907   8.393 -0.0165 -0.2587  0.0885
  382loPI   C3B 6111  10.666   2.911   7.965 -0.1684  0.2703  0.1063
  382loPI   C4B 6112  10.806   3.123   7.638  0.1901  0.1705 -0.3206
  383loPI    C1 6113   0.402  16.616   9.743  0.2233  0.1062 -0.0569
  383loPI    C2 6114   0.504  16.497  10.111  0.1977  0.1118 -0.0480
  383loPI    C3 6115   0.159  16.691  10.052  0.1289 -0.0245 -0.0984
  383loPI   PO4 6116   0.659  16.644   9.586 -0.2638  0.4961 -0.3725
  383loPI   GL1 6117   0.806  16.627   9.268  0.1163  0.0540  0.1236
  383loPI   GL2 6118   0.552  16.341   9.235 -0.2806 -0.3944  0.1000
  383loPI   C1A 6119   0.557  16.690   8.846  0.0206 -0.1887  0.0954
  383loPI   C2A 6120   0.490  16.384   8.417  0.4875  0.0290 -0.0917
  383loPI   C3A 6121   0.569  16.168   8.093  0.1112  0.0079 -0.1340
  383loPI   C4A 6122   0.408  15.863   7.794 -0.0873 -0.0458  0.0152
  383loPI   C5A 6123   0.643  15.493   7.638  0.1029 -0.1984 -0.1078
  383loPI   C6A 6124   0.421  15.224   7.395 -0.1995 -0.1734 -0.1728
  383loPI   C1B 6125   0.637  16.151   8.875 -0.0045  0.0711  0.0938
  383loPI   C2B 6126   0.748  15.947   8.541 -0.0069  0.2216  0.1189
  383loPI   C3B 6127   0.949  15.705   8.167 -0.1282 -0.1394 -0.1325
  383loPI   C4B 6128   0.935  15.918   7.819  0.4362 -0.0830 -0.0995
  384loPI    C1 6129   7.147   8.254  10.248 -0.1469 -0.0651 -0.0644
  384loPI    C2 6130   7.144   8.322  10.642 -0.0825  0.0176 -0.0779
  384loPI    C3 6131   7.338   8.572  10.398  0.1051 -0.1807 -0.1351
  384loPI   PO4 6132   7.008   8.113  10.024  0.0131  0.0181  0.0005
  384loPI   GL1 6133   7.113   7.988   9.546 -0.2286 -0.2477 -0.3874
  384loPI   GL2 6134   7.360   7.705   9.541  0.0134 -0.1385 -0.2022
  384loPI   C1A 6135   6.778   7.766   9.336  0.0009  0.1109  0.1072
  384loPI   C2A 6136   6.703   7.662   8.840 -0.1119 -0.1210  0.2313
  384loPI   C3A 6137   6.657   7.478   8.435 -0.4203 -0.1563 -0.2952
  384loPI   C4A 6138   6.387   7.309   8.045 -0.0091  0.0006 -0.2806
  384loPI   C5A 6139   6.003   7.098   7.696  0.0486 -0.1404  0.0620
  384loPI   C6A 6140   5.712   6.963   7.400  0.3789 -0.1692 -0.1640
  384loPI   C1B 6141   7.257   7.554   9.195  0.0611 -0.1128  0.0168
  384loPI   C2B 6142   7.170   7.515   8.594  0.3967  0.3484  0.0748
  384loPI   C3B 6143   7.111   7.611   8.213 -0.0101 -0.1285  0.2240
  384loPI   C4B 6144   6.923   7.535   7.820  0.0064  0.3111  0.3213
  385loPI    C1 6145   7.098   2.823  10.385 -0.0101  0.1281 -0.0108
  385loPI    C2 6146   6.864   2.545  10.551 -0.2414  0.0900 -0.3881
  385loPI    C3 6147   6.944   2.883  10.749 -0.4261  0.0031 -0.1598
  385loPI   PO4 6148   7.001   2.811  10.077 -0.1626  0.0245 -0.3379
  385loPI   GL1 6149   7.030   2.364   9.869  0.2344 -0.2060  0.0024
  385loPI   GL2 6150   7.084   2.613   9.657 -0.1299 -0.2148 -0.1824
  385loPI   C1A 6151   6.866   2.211   9.463  0.2070  0.0268  0.2777
  385loPI   C2A 6152   6.724   2.295   9.048  0.1383  0.1896 -0.2405
  385loPI   C3A 6153   6.756   2.163   8.630 -0.1802 -0.0955  0.2529
  385loPI   C4A 6154   6.818   2.024   8.222  0.4482 -0.2031 -0.0650
  385loPI   C5A 6155   6.731   1.837   7.779  0.2160 -0.2295 -0.1658
  385loPI   C6A 6156   6.831   1.459   7.551 -0.1044  0.2619  0.0011
  385loPI   C1B 6157   7.331   2.698   9.232 -0.2395  0.1193  0.0541
  385loPI   C2B 6158   7.458   2.604   8.794  0.3167 -0.3101  0.2472
  385loPI   C3B 6159   7.545   2.675   8.328 -0.0570  0.1908 -0.3235
  385loPI   C4B 6160   7.822   2.308   8.098 -0.0880  0.0695 -0.0533
  386loPI    C1 6161  15.770  16.843   9.822 -0.0461 -0.2507 -0.0876
  386loPI    C2 6162  15.899  16.519  10.019  0.3276 -0.0011  0.0907
  386loPI    C3 6163  16.163  16.770   9.853  0.0382  0.1626 -0.1309
  386loPI   PO4 6164  15.620  16.767   9.612 -0.0217 -0.2047 -0.2596
  386loPI   GL1 6165  15.546  16.581   9.224  0.1585  0.2440 -0.0483
  386loPI   GL2 6166  15.712  16.456   8.919  0.2594  0.3444  0.2801
  386loPI   C1A 6167  15.402  16.877   8.778 -0.1141 -0.1471  0.1447
  386loPI   C2A 6168  15.281  16.789   8.255 -0.3222  0.0110 -0.0138
  386loPI   C3A 6169  15.314  16.834   7.810  0.0438  0.4918  0.2089
  386loPI   C4A 6170  15.466  16.924   7.421 -0.1275 -0.0650 -0.2187
  386loPI   C5A 6171  15.456  16.785   7.050 -0.0214  0.0934 -0.1463
  386loPI   C6A 6172  15.514  16.362   6.691  0.0576  0.1016 -0.2615
  386loPI   C1B 6173  15.617  16.501   8.527  0.1453  0.0571 -0.1895
  386loPI   C2B 6174  15.611  16.500   8.020  0.2238 -0.0936 -0.3437
  386loPI   C3B 6175  15.474  16.324   7.735 -0.1093  0.1088  0.1348
  386loPI   C4B 6176  15.442  16.321   7.317  0.0258 -0.2159  0.0524
  387loPI    C1 6177   0.290   2.968  10.356 -0.1644 -0.0240 -0.4191
  387loPI    C2 6178   0.288   2.570  10.313 -0.0302 -0.0893  0.1101
  387loPI    C3 6179  -0.020   2.753  10.491  0.1374 -0.0179  0.3313
  387loPI   PO4 6180   0.382   3.049  10.072 -0.0365  0.1462 -0.2454
  387loPI   GL1 6181   0.442   2.800   9.718  0.0905 -0.0518 -0.0355
  387loPI   GL2 6182   0.727   2.754   9.816  0.1114  0.1137 -0.1160
  387loPI   C1A 6183   0.385   2.964   9.295 -0.0445 -0.0459 -0.0230
  387loPI   C2A 6184   0.105   3.088   8.923 -0.2940  0.1190  0.0062
  387loPI   C3A 6185   0.076   3.081   8.517  0.0841 -0.3063 -0.2198
  387loPI   C4A 6186   0.194   3.113   8.189 -0.2106  0.3343  0.1826
  387loPI   C5A 6187   0.442   2.986   7.790  0.1078  0.0846  0.3402
  387loPI   C6A 6188   0.741   2.675   7.787 -0.4750  0.0075 -0.0672
  387loPI   C1B 6189   0.766   2.630   9.412 -0.0364  0.0252 -0.1120
  387loPI   C2B 6190   0.653   2.570   9.120  0.1390 -0.0889  0.2751
  387loPI   C3B 6191   0.350   2.303   8.958  0.0677  0.0862  0.2236
  387loPI   C4B 6192  -0.099   2.192   9.102  0.1748  0.3773 -0.0478
  388loPI    C1 6193  16.403  16.654   9.374 -0.0562  0.0629 -0.2079
  388loPI    C2 6194  16.017  16.559   9.416 -0.0037 -0.0433  0.0465
  388loPI    C3 6195  16.300  16.325   9.576  0.1753 -0.0575 -0.2821
  388loPI   PO4 6196  16.463  16.711   9.173  0.2304  0.2272  0.1504
  388loPI   GL1 6197  16.719  16.964   8.977  0.3154  0.2298  0.1133
  388loPI   GL2 6198  16.732  17.209   9.046 -0.3166 -0.0656 -0.1769
  388loPI   C1A 6199  16.684  16.788   8.599 -0.2139 -0.3313  0.0178
  388loPI   C2A 6200  16.683  16.818   8.231 -0.0085 -0.0625 -0.3094
  388loPI   C3A 6201  16.484  16.702   7.841 -0.2704 -0.0394  0.2507
  388loPI   C4A 6202  16.363  16.515   7.393  0.2592  0.1528  0.0087
  388loPI   C5A 6203  16.330  16.604   6.882  0.3012  0.0617  0.0005
  388loPI   C6A 6204  16.604  16.445   6.594 -0.1629  0.1338  0.0574
  388loPI   C1B 6205  16.828  17.355   8.701  0.0055  0.1209  0.0007
  388loPI   C2B 6206  16.807  17.407   8.340 -0.3511  0.0318  0.0229
  388loPI   C3B 6207  16.722  17.264   7.893 -0.2454 -0.0810 -0.0749
  388loPI   C4B 6208  16.609  17.059   7.513 -0.0806  0.2212 -0.2601
  389loPI    C1 6209  10.319  15.739   9.823 -0.1140  0.2048  0.3810
  389loPI    C2 6210  10.714  15.773   9.880 -0.0047 -0.1035 -0.1310
  389loPI    C3 6211  10.507  15.490  10.073  0.0232  0.0504  0.1285
  389loPI   PO4 6212  10.211  15.624   9.553 -0.2159 -0.1449 -0.0927
  389loPI   GL1 6213  10.244  15.408   9.170  0.1570 -0.0429  0.1303
  389loPI   GL2 6214   9.948  15.515   9.023 -0.1433  0.1579 -0.3975
  389loPI   C1A 6215  10.497  15.277   8.884  0.0701 -0.1553 -0.1000
  389loPI   C2A 6216  10.472  15.314   8.394 -0.0459  0.0714 -0.0302
  389loPI   C3A 6217  10.227  15.134   8.117  0.3305  0.0301  0.3394
  389loPI   C4A 6218  10.077  15.338   7.729 -0.0381 -0.2766 -0.0615
  389loPI   C5A 6219  10.318  15.613   7.420  0.0185  0.2516 -0.2138
  389loPI   C6A 6220  10.571  15.528   7.088  0.2748 -0.3125 -0.1263
  389loPI   C1B 6221  10.060  15.611   8.576 -0.1560 -0.0559 -0.2442
  389loPI   C2B 6222  10.078  15.606   8.220  0.2687 -0.0393 -0.3570
  389loPI   C3B 6223  10.007  15.800   7.849  0.2027 -0.2220  0.0360
  389loPI   C4B 6224   9.933  16.091   7.492  0.1158  0.1402 -0.0818
  390loPI    C1 6225   5.957   0.375  10.048  0.2237  0.0957  0.1075
  390loPI    C2 6226   6.151   0.132  10.299  0.1677  0.1329  0.1869
  390loPI    C3 6227   6.357   0.376  10.058  0.2279 -0.0961  0.0036
  390loPI   PO4 6228   5.813   0.526  10.011 -0.2078  0.1850  0.0058
  390loPI   GL1 6229   5.590   0.759   9.727  0.2198  0.1916  0.2224
  390loPI   GL2 6230   5.442   0.443   9.614 -0.0116 -0.1296 -0.0668
  390loPI   C1A 6231   5.804   0.600   9.333  0.1295  0.0383  0.1158
  390loPI   C2A 6232   5.964   0.651   8.939 -0.1404  0.1999  0.1229
  390loPI   C3A 6233   5.901   0.886   8.618 -0.0356  0.0229 -0.1002
  390loPI   C4A 6234   5.643   0.817   8.262  0.2610 -0.0623 -0.0049
  390loPI   C5A 6235   5.507   0.583   8.008 -0.1804 -0.1082  0.1444
  390loPI   C6A 6236   5.159   0.438   7.676 -0.1548  0.1644  0.0475
  390loPI   C1B 6237   5.418   0.233   9.261 -0.0973  0.0974 -0.0312
  390loPI   C2B 6238   5.156   0.014   8.917  0.2490  0.1022  0.0488
  390loPI   C3B 6239   5.042  -0.053   8.433  0.2012  0.1032  0.3143
  390loPI   C4B 6240   4.982   0.029   7.968 -0.0166  0.3026 -0.2861
  391loPI    C1 6241  15.457   9.162  10.049 -0.2721 -0.2261 -0.0390
  391loPI    C2 6242  15.656   9.002  10.356 -0.0858  0.1296  0.0308
  391loPI    C3 6243  15.272   9.104  10.398 -0.0690  0.1501  0.1367
  391loPI   PO4 6244  15.651   9.280   9.908 -0.1625 -0.2802 -0.0723
  391loPI   GL1 6245  15.844   9.285   9.559 -0.2099 -0.0602  0.3115
  391loPI   GL2 6246  15.573   9.362   9.387 -0.3279  0.1373 -0.0836
  391loPI   C1A 6247  16.118   9.192   9.153  0.0032 -0.0016 -0.0478
  391loPI   C2A 6248  16.093   8.968   8.801  0.0276 -0.0790 -0.0685
  391loPI   C3A 6249  16.015   8.846   8.399 -0.2641  0.1545  0.3612
  391loPI   C4A 6250  15.760   8.631   8.040 -0.3183 -0.2440 -0.2187
  391loPI   C5A 6251  15.481   8.799   7.785 -0.0088 -0.1303  0.4180
  391loPI   C6A 6252  15.179   9.197   7.748 -0.2254  0.5138 -0.1708
  391loPI   C1B 6253  15.325   9.431   9.013  0.1288 -0.0612  0.0036
  391loPI   C2B 6254  15.264   9.570   8.599  0.2102  0.3650  0.3312
  391loPI   C3B 6255  15.222   9.946   8.385  0.0811 -0.2567  0.3289
  391loPI   C4B 6256  15.354  10.361   8.465 -0.0029  0.1784 -0.2105
  392loPI    C1 6257  18.164  10.589   9.918  0.2404  0.1540 -0.0928
  392loPI    C2 6258  18.032  10.228  10.031  0.5061  0.1306  0.1541
  392loPI    C3 6259  18.162  10.489  10.306  0.2963  0.4247 -0.0210
  392loPI   PO4 6260  18.039  10.646   9.673  0.1792  0.1066 -0.0890
  392loPI   GL1 6261  18.058  10.661   9.301  0.2106 -0.2704  0.3561
  392loPI   GL2 6262  18.051  10.407   9.197 -0.3236  0.1772 -0.0100
  392loPI   C1A 6263  18.231  10.655   8.820 -0.0786 -0.0413 -0.0170
  392loPI   C2A 6264  18.167  10.904   8.386  0.1058  0.1919 -0.0631
  392loPI   C3A 6265  18.097  10.699   7.989 -0.0638 -0.2255 -0.1103
  392loPI   C4A 6266  18.240  10.694   7.539  0.0933 -0.2287  0.2581
  392loPI   C5A 6267  17.987  10.824   7.086  0.1399 -0.0972  0.3942
  392loPI   C6A 6268  17.641  10.990   6.750 -0.0859  0.0360  0.3260
  392loPI   C1B 6269  17.816  10.348   8.830 -0.3019 -0.1732  0.0168
  392loPI   C2B 6270  17.930  10.320   8.507 -0.0605 -0.2154  0.1967
  392loPI   C3B 6271  17.932  10.085   8.091 -0.0698  0.0886  0.2043
  392loPI   C4B 6272  17.962  10.189   7.730 -0.1258 -0.1682 -0.1619
  393loPI    C1 6273   5.703  10.228  10.059 -0.2226  0.1416 -0.1864
  393loPI    C2 6274   5.496  10.496  10.272  0.1322  0.2068  0.0844
  393loPI    C3 6275   5.705  10.210  10.459  0.0347 -0.0512 -0.1940
  393loPI   PO4 6276   5.476  10.153   9.804  0.2454  0.3385 -0.0267
  393loPI   GL1 6277   5.554  10.077   9.411 -0.1772  0.0597 -0.1749
  393loPI   GL2 6278   5.505  10.289   9.154  0.1934  0.0844 -0.0234
  393loPI   C1A 6279   5.678   9.845   9.052  0.0485 -0.2386  0.1564
  393loPI   C2A 6280   5.686   9.738   8.631  0.3206 -0.1083 -0.0709
  393loPI   C3A 6281   5.683   9.830   8.232 -0.1677 -0.1440  0.1636
  393loPI   C4A 6282   5.544   9.551   7.941 -0.0114 -0.1843 -0.1516
  393loPI   C5A 6283   5.690   9.367   7.529  0.0404 -0.0834 -0.1189
  393loPI   C6A 6284   5.835   8.939   7.407  0.1205 -0.2862  0.0142
  393loPI   C1B 6285   5.479  10.317   8.676  0.3199 -0.0150 -0.0834
  393loPI   C2B 6286   5.302  10.452   8.306  0.0508  0.2995 -0.2324
  393loPI   C3B 6287   5.272  10.620   7.866  0.4047 -0.0730  0.1917
  393loPI   C4B 6288   5.209  10.839   7.523 -0.1260 -0.0719  0.0780
  394loPI    C1 6289  11.620   1.826   9.761 -0.0511  0.1800 -0.0413
  394loPI    C2 6290  11.336   1.952  10.014  0.0397 -0.2739  0.2991
  394loPI    C3 6291  11.684   1.814  10.155  0.2902 -0.0712 -0.1003
  394loPI   PO4 6292  11.511   1.710   9.535  0.1780  0.1435  0.1302
  394loPI   GL1 6293  11.681   1.596   9.066  0.1943  0.4348 -0.1446
  394loPI   GL2 6294  11.920   1.852   8.924 -0.2626  0.1579  0.0571
  394loPI   C1A 6295  11.437   1.604   8.743 -0.4850  0.0341 -0.2942
  394loPI   C2A 6296  11.286   1.763   8.459  0.3755 -0.0118 -0.0049
  394loPI   C3A 6297  11.097   1.693   8.244 -0.1105 -0.0193  0.2101
  394loPI   C4A 6298  10.994   1.606   7.776 -0.0196 -0.2092  0.1498
  394loPI   C5A 6299  10.649   1.634   7.630  0.1395  0.1365 -0.1203
  394loPI   C6A 6300  10.287   1.609   7.242 -0.1688  0.0169  0.0835
  394loPI   C1B 6301  12.100   1.973   8.434  0.3719 -0.2813  0.0621
  394loPI   C2B 6302  12.026   2.055   7.901  0.0585  0.1944 -0.0374
  394loPI   C3B 6303  12.279   1.873   7.543  0.0980 -0.0277  0.0268
  394loPI   C4B 6304  12.658   2.026   7.412 -0.0086 -0.0124 -0.3120
  395loPI    C1 6305  15.240  17.680   9.729 -0.1654 -0.0094  0.0660
  395loPI    C2 6306  14.840  17.670   9.735 -0.1664  0.0537  0.1114
  395loPI    C3 6307  15.046  17.670  10.078 -0.1199 -0.2479  0.0862
  395loPI   PO4 6308  15.266  17.841   9.562 -0.1115  0.0661  0.2707
  395loPI   GL1 6309  15.557  17.884   9.185 -0.1118  0.0523  0.0956
  395loPI   GL2 6310  15.459  17.569   9.163 -0.1129  0.2555 -0.1409
  395loPI   C1A 6311  15.478  17.999   8.849  0.0082  0.0531 -0.1143
  395loPI   C2A 6312  15.416  17.842   8.418  0.1439  0.2507  0.0913
  395loPI   C3A 6313  15.454  17.879   7.927 -0.1928 -0.0790 -0.0250
  395loPI   C4A 6314  15.676  17.963   7.594  0.1120  0.1154 -0.2598
  395loPI   C5A 6315  15.675  18.294   7.188  0.0516 -0.0930 -0.1813
  395loPI   C6A 6316  16.056  18.399   7.099 -0.2467 -0.3738  0.1392
  395loPI   C1B 6317  15.427  17.438   8.804  0.1146 -0.2909 -0.0716
  395loPI   C2B 6318  15.408  17.250   8.348 -0.2239  0.0677  0.4096
  395loPI   C3B 6319  15.255  17.322   7.954  0.0551  0.0771 -0.0241
  395loPI   C4B 6320  15.266  17.542   7.404 -0.1651  0.2984  0.0475
  396loPI    C1 6321   4.976   0.781  10.041  0.1738 -0.0517 -0.0933
  396loPI    C2 6322   4.946   0.448  10.260 -0.1574  0.0858  0.0790
  396loPI    C3 6323   4.894   0.805  10.432 -0.0085  0.2179 -0.1451
  396loPI   PO4 6324   5.077   0.762   9.847  0.3736  0.3535 -0.0300
  396loPI   GL1 6325   5.232   0.961   9.431  0.2804  0.3876  0.0765
  396loPI   GL2 6326   5.336   0.703   9.235  0.1337  0.1214  0.0328
  396loPI   C1A 6327   5.134   1.286   9.225 -0.0263  0.0022  0.0017
  396loPI   C2A 6328   5.236   1.497   8.928  0.0837 -0.2667 -0.1435
  396loPI   C3A 6329   5.207   1.612   8.457  0.3178 -0.2568  0.1615
  396loPI   C4A 6330   5.510   1.678   8.161 -0.0419 -0.2486 -0.2640
  396loPI   C5A 6331   5.862   1.389   7.986  0.2349 -0.2397 -0.2330
  396loPI   C6A 6332   5.821   1.062   7.705 -0.0375 -0.2016  0.1909
  396loPI   C1B 6333   5.550   0.969   8.948 -0.0968 -0.0125  0.2090
  396loPI   C2B 6334   5.466   1.187   8.554 -0.0488  0.0848  0.1782
  396loPI   C3B 6335   5.284   1.209   8.141  0.2031  0.2162  0.0605
  396loPI   C4B 6336   5.427   1.310   7.723 -0.3415  0.0468 -0.0328
  397loPI    C1 6337  12.235  17.849   9.760  0.0173 -0.0474  0.1431
  397loPI    C2 6338  12.312  17.554  10.019  0.0373 -0.1002  0.0775
  397loPI    C3 6339  12.443  17.925  10.093  0.1460 -0.1396  0.0849
  397loPI   PO4 6340  12.324  17.700   9.525 -0.0158 -0.0088  0.0045
  397loPI   GL1 6341  12.188  17.690   9.107 -0.0881  0.1852 -0.2876
  397loPI   GL2 6342  12.506  17.747   8.887  0.0720  0.0944  0.3761
  397loPI   C1A 6343  12.107  17.632   8.636 -0.2553 -0.1633  0.2437
  397loPI   C2A 6344  11.989  17.711   8.301 -0.1905  0.3740 -0.1006
  397loPI   C3A 6345  11.768  17.674   7.891  0.1040  0.1294 -0.1702
  397loPI   C4A 6346  11.786  17.678   7.336 -0.3792 -0.0921 -0.0594
  397loPI   C5A 6347  11.715  17.912   6.950  0.0301 -0.0772 -0.0583
  397loPI   C6A 6348  11.948  18.267   6.850 -0.1996  0.0388 -0.2478
  397loPI   C1B 6349  12.645  17.724   8.532  0.0709 -0.2645 -0.2101
  397loPI   C2B 6350  12.753  17.695   8.121  0.1445 -0.2001  0.0244
  397loPI   C3B 6351  12.871  17.820   7.652  0.2123  0.1107  0.1595
  397loPI   C4B 6352  12.933  17.945   7.267 -0.1509 -0.2762 -0.2876
  398loPI    C1 6353  11.915   2.170   9.480 -0.0375  0.0530  0.1078
  398loPI    C2 6354  11.789   2.337   9.821 -0.0067 -0.1089  0.1996
  398loPI    C3 6355  12.061   2.044   9.831  0.1287  0.0086  0.0234
  398loPI   PO4 6356  11.666   2.132   9.286  0.0088  0.0003 -0.1686
  398loPI   GL1 6357  11.362   2.050   8.901 -0.2260  0.2306  0.2602
  398loPI   GL2 6358  11.176   1.937   9.171  0.2809 -0.1207  0.0559
  398loPI   C1A 6359  11.598   2.119   8.505  0.0586 -0.0426 -0.1158
  398loPI   C2A 6360  11.584   2.462   8.326  0.1080 -0.2159 -0.0585
  398loPI   C3A 6361  11.768   2.625   7.908 -0.0702 -0.0711 -0.1917
  398loPI   C4A 6362  11.742   2.468   7.468 -0.1700  0.1749 -0.4459
  398loPI   C5A 6363  11.916   2.145   7.274  0.1432 -0.3038  0.1299
  398loPI   C6A 6364  12.312   2.181   7.014  0.1049  0.0482 -0.5113
  398loPI   C1B 6365  10.933   1.650   8.971  0.2907 -0.3754  0.2602
  398loPI   C2B 6366  10.970   1.373   8.700 -0.1172  0.3524 -0.0730
  398loPI   C3B 6367  10.694   1.285   8.361 -0.2331 -0.3467  0.0792
  398loPI   C4B 6368  10.572   1.378   7.980  0.1851  0.1536 -0.0638
  399loPI    C1 6369  13.044   4.889   9.729  0.0513 -0.1134 -0.1614
  399loPI    C2 6370  12.947   5.032  10.090 -0.1347  0.0217 -0.2629
  399loPI    C3 6371  13.331   5.018   9.976 -0.0969  0.2453 -0.1696
  399loPI   PO4 6372  12.810   5.059   9.562 -0.0511  0.0474  0.0881
  399loPI   GL1 6373  12.830   5.048   9.172 -0.2381 -0.0171  0.0847
  399loPI   GL2 6374  12.594   5.253   9.075  0.0202 -0.0166 -0.0134
  399loPI   C1A 6375  12.996   4.928   8.775 -0.1708  0.0201 -0.0675
  399loPI   C2A 6376  13.145   4.721   8.437 -0.3797 -0.2684  0.0476
  399loPI   C3A 6377  13.224   4.688   7.982 -0.4684 -0.1757  0.4670
  399loPI   C4A 6378  13.372   4.825   7.588 -0.0236  0.3192 -0.2019
  399loPI   C5A 6379  13.586   5.180   7.450 -0.2262  0.2451 -0.0267
  399loPI   C6A 6380  13.637   5.423   7.828 -0.1898 -0.0490  0.2771
  399loPI   C1B 6381  12.610   5.308   8.571  0.1616 -0.1690  0.2655
  399loPI   C2B 6382  12.675   5.477   8.194  0.1007  0.1316 -0.1562
  399loPI   C3B 6383  12.634   5.488   7.745 -0.1656 -0.1545  0.0975
  399loPI   C4B 6384  12.882   5.669   7.386  0.1013 -0.0777 -0.0698
  400loPI    C1 6385  13.698  18.514   9.689  0.0938  0.1035  0.1040
  400loPI    C2 6386  13.408  18.732   9.520 -0.0012 -0.1309 -0.0414
  400loPI    C3 6387  13.334  18.527   9.856  0.0085 -0.1562 -0.0547
  400loPI   PO4 6388  13.767  18.404   9.482 -0.1055  0.1367  0.2871
  400loPI   GL1 6389  14.023  18.442   9.174 -0.1945 -0.0396 -0.0904
  400loPI   GL2 6390  14.242  18.338   9.334  0.0834  0.0121 -0.0193
  400loPI   C1A 6391  14.171  18.367   8.697 -0.0141  0.0862  0.1775
  400loPI   C2A 6392  14.097  18.214   8.258 -0.1195  0.2159  0.0079
  400loPI   C3A 6393  13.880  18.215   7.815  0.0548 -0.0440 -0.1769
  400loPI   C4A 6394  13.770  18.570   7.505  0.0595  0.0248 -0.0981
  400loPI   C5A 6395  13.658  18.682   7.161 -0.1620  0.3631  0.1426
  400loPI   C6A 6396  13.779  18.576   6.761 -0.1249 -0.5341  0.2536
  400loPI   C1B 6397  14.190  17.972   9.006 -0.1922  0.1191 -0.4164
  400loPI   C2B 6398  14.179  17.792   8.505  0.0958 -0.0904  0.0150
  400loPI   C3B 6399  14.234  17.653   8.111  0.1447 -0.0586 -0.0812
  400loPI   C4B 6400  14.181  17.474   7.855  0.0629 -0.1506 -0.0535
  401loPI    C1 6401  12.311  11.901   9.999 -0.2682  0.0666  0.0314
  401loPI    C2 6402  12.136  12.248  10.095  0.1202  0.1857  0.3371
  401loPI    C3 6403  12.363  12.057  10.364  0.0514 -0.2218  0.1145
  401loPI   PO4 6404  12.446  11.946   9.723  0.0760  0.0171  0.1789
  401loPI   GL1 6405  12.545  11.734   9.463 -0.2980 -0.0536 -0.1804
  401loPI   GL2 6406  12.840  11.848   9.207  0.1781  0.0432  0.1593
  401loPI   C1A 6407  12.417  11.570   9.073 -0.3140 -0.0707  0.1112
  401loPI   C2A 6408  12.480  11.721   8.634  0.3722 -0.2220  0.0220
  401loPI   C3A 6409  12.722  11.581   8.300 -0.2391  0.0236  0.3360
  401loPI   C4A 6410  12.601  11.399   7.847 -0.0286  0.2102 -0.2024
  401loPI   C5A 6411  12.509  11.050   7.458  0.0492  0.5479 -0.3719
  401loPI   C6A 6412  12.195  10.749   7.544 -0.0131  0.0359 -0.0811
  401loPI   C1B 6413  12.753  12.045   8.823  0.2933  0.1550  0.2007
  401loPI   C2B 6414  12.854  12.091   8.342  0.2325 -0.1407  0.3981
  401loPI   C3B 6415  12.862  12.296   8.048 -0.1729  0.1957  0.3396
  401loPI   C4B 6416  12.987  12.603   7.769 -0.0264  0.4136  0.1744
  402loPI    C1 6417   4.903   4.728  10.430  0.2978 -0.0041 -0.0918
  402loPI    C2 6418   5.068   4.928  10.735  0.1507  0.0830 -0.0686
  402loPI    C3 6419   4.859   5.125  10.456 -0.1639 -0.0593  0.0611
  402loPI   PO4 6420   5.163   4.561  10.343 -0.1507  0.0760  0.0718
  402loPI   GL1 6421   5.056   4.477   9.976  0.1000  0.2457  0.0893
  402loPI   GL2 6422   4.793   4.426   9.987  0.0377 -0.1885  0.2625
  402loPI   C1A 6423   5.345   4.442   9.594 -0.0497  0.1833  0.4595
  402loPI   C2A 6424   5.433   4.488   9.175  0.0505 -0.0306 -0.1245
  402loPI   C3A 6425   5.281   4.559   8.780 -0.5560  0.3478 -0.0093
  402loPI   C4A 6426   5.451   4.712   8.426  0.2523  0.0676 -0.0682
  402loPI   C5A 6427   5.416   4.641   8.032 -0.2229 -0.1686 -0.0386
  402loPI   C6A 6428   5.648   4.681   7.682 -0.0693 -0.0524 -0.2636
  402loPI   C1B 6429   4.887   4.585   9.521 -0.1861  0.2866  0.1526
  402loPI   C2B 6430   4.813   4.755   9.156 -0.0681  0.0029 -0.0200
  402loPI   C3B 6431   4.870   4.862   8.727 -0.0742 -0.0568  0.2575
  402loPI   C4B 6432   4.992   4.595   8.347 -0.0223  0.2219 -0.4326
  403loPI    C1 6433   9.059  12.022   9.780 -0.0610  0.0549  0.0876
  403loPI    C2 6434   9.208  11.673   9.906 -0.4380 -0.0709  0.1984
  403loPI    C3 6435   9.150  11.971  10.166 -0.3458 -0.0094  0.1488
  403loPI   PO4 6436   9.019  11.941   9.481  0.2541 -0.3571 -0.0061
  403loPI   GL1 6437   8.882  12.251   9.107  0.0252  0.3034 -0.1603
  403loPI   GL2 6438   8.670  11.962   9.130 -0.4055 -0.2626  0.0241
  403loPI   C1A 6439   8.936  12.149   8.703 -0.1865 -0.3324 -0.2277
  403loPI   C2A 6440   8.888  12.071   8.210 -0.4261  0.0913  0.4221
  403loPI   C3A 6441   8.884  12.094   7.772  0.0204 -0.0415  0.2453
  403loPI   C4A 6442   8.936  12.162   7.298 -0.1095  0.1797  0.3479
  403loPI   C5A 6443   8.671  12.363   7.036 -0.1067  0.0390  0.1487
  403loPI   C6A 6444   8.255  12.259   7.079  0.3715 -0.1067 -0.1419
  403loPI   C1B 6445   8.439  11.952   8.735  0.2070  0.2768  0.1857
  403loPI   C2B 6446   8.434  12.003   8.235 -0.0312  0.0770  0.2927
  403loPI   C3B 6447   8.429  11.773   7.873  0.0920 -0.0910  0.3739
  403loPI   C4B 6448   8.314  11.832   7.467  0.1117  0.1495 -0.2334
  404loPI    C1 6449  10.882  17.153   9.772  0.1537 -0.2509  0.1426
  404loPI    C2 6450  10.676  17.197  10.112 -0.0784  0.2353 -0.0511
  404loPI    C3 6451  11.072  17.255  10.109 -0.0541  0.0913  0.1610
  404loPI   PO4 6452  10.792  17.350   9.586 -0.2620  0.1904 -0.1111
  404loPI   GL1 6453  10.477  17.398   9.282 -0.1914 -0.2815 -0.0029
  404loPI   GL2 6454  10.617  17.702   9.168 -0.0214 -0.5449 -0.1461
  404loPI   C1A 6455  10.566  17.263   8.898 -0.0076 -0.2828 -0.0758
  404loPI   C2A 6456  10.657  17.061   8.543 -0.2172 -0.0317  0.2491
  404loPI   C3A 6457  10.893  17.072   8.133 -0.0924  0.0367 -0.0061
  404loPI   C4A 6458  10.952  17.221   7.644  0.1044 -0.1734 -0.0972
  404loPI   C5A 6459  10.770  17.521   7.428  0.2490 -0.1458  0.4483
  404loPI   C6A 6460  10.601  17.399   6.936 -0.4236 -0.3614 -0.2460
  404loPI   C1B 6461  10.638  17.833   8.647 -0.1057 -0.2808  0.1399
  404loPI   C2B 6462  10.755  17.937   8.267  0.0102  0.0698 -0.2229
  404loPI   C3B 6463  10.868  18.040   7.859 -0.1399  0.3623  0.1336
  404loPI   C4B 6464  10.950  18.157   7.498  0.1388 -0.2317  0.2149
  405loPI    C1 6465  15.088  13.537   9.673  0.0594 -0.0693 -0.1093
  405loPI    C2 6466  15.368  13.774   9.513  0.0467  0.1284  0.1540
  405loPI    C3 6467  15.412  13.635   9.885  0.0031 -0.2017  0.0394
  405loPI   PO4 6468  15.070  13.362   9.497 -0.1882  0.2141  0.1546
  405loPI   GL1 6469  15.064  13.215   9.150 -0.0767  0.1954  0.0627
  405loPI   GL2 6470  14.955  12.943   9.004  0.0997 -0.1686 -0.2514
  405loPI   C1A 6471  15.372  13.299   8.887  0.0268 -0.3509  0.1511
  405loPI   C2A 6472  15.411  13.362   8.523  0.1544  0.3309 -0.2173
  405loPI   C3A 6473  15.518  13.475   8.002 -0.0140 -0.3779 -0.0442
  405loPI   C4A 6474  15.553  13.437   7.609 -0.0330 -0.0159 -0.0084
  405loPI   C5A 6475  15.430  13.438   7.294 -0.1057 -0.1621  0.1030
  405loPI   C6A 6476  15.203  13.361   7.025  0.0311  0.4008 -0.2031
  405loPI   C1B 6477  14.984  12.777   8.669  0.0533  0.3310 -0.0756
  405loPI   C2B 6478  14.790  12.719   8.247 -0.3754  0.1137  0.1592
  405loPI   C3B 6479  14.558  12.728   7.862 -0.0386 -0.0666 -0.2654
  405loPI   C4B 6480  14.687  12.512   7.498 -0.0331  0.0097  0.0327
  406loPI    C1 6481  14.822  17.180   9.856  0.0993 -0.0939 -0.1382
  406loPI    C2 6482  14.685  16.814   9.940  0.2163 -0.1026  0.0187
  406loPI    C3 6483  14.618  17.116  10.193 -0.0618  0.0325 -0.2106
  406loPI   PO4 6484  14.726  17.211   9.460  0.0306 -0.1979  0.4708
  406loPI   GL1 6485  14.985  17.503   9.133  0.1544 -0.3082  0.2813
  406loPI   GL2 6486  15.013  17.772   9.132 -0.0972  0.1959  0.2205
  406loPI   C1A 6487  14.900  17.173   8.806  0.1625 -0.0974 -0.0849
  406loPI   C2A 6488  14.937  17.113   8.304 -0.1640 -0.2417 -0.0686
  406loPI   C3A 6489  14.839  16.952   7.878 -0.2910  0.1844 -0.0234
  406loPI   C4A 6490  14.951  17.091   7.534  0.2151  0.1944 -0.3031
  406loPI   C5A 6491  14.701  17.126   7.148  0.1297 -0.1623 -0.0818
  406loPI   C6A 6492  14.676  17.225   6.744 -0.1923  0.0425 -0.1641
  406loPI   C1B 6493  14.970  17.715   8.657  0.2147  0.1422 -0.3358
  406loPI   C2B 6494  14.738  17.668   8.215  0.1562 -0.2567  0.3323
  406loPI   C3B 6495  14.687  17.480   7.863  0.0841 -0.3927 -0.0618
  406loPI   C4B 6496  14.459  17.279   7.530  0.2856  0.0751 -0.0585
  407loPI    C1 6497   6.356   3.649  10.396 -0.0028  0.1050 -0.0112
  407loPI    C2 6498   5.992   3.486  10.429 -0.0331  0.1893  0.0748
  407loPI    C3 6499   6.079   3.824  10.625  0.0613  0.2220 -0.0220
  407loPI   PO4 6500   6.409   3.650  10.181  0.1083 -0.2122  0.3526
  407loPI   GL1 6501   6.153   3.655   9.742 -0.1251 -0.1076  0.1825
  407loPI   GL2 6502   6.310   3.396   9.629  0.1479  0.1233  0.1643
  407loPI   C1A 6503   5.898   3.793   9.499  0.1102  0.0079 -0.1634
  407loPI   C2A 6504   5.871   3.698   9.004 -0.1850  0.1675 -0.3213
  407loPI   C3A 6505   5.838   3.899   8.546 -0.2516 -0.0409  0.1604
  407loPI   C4A 6506   5.855   3.858   8.111 -0.3429 -0.3482  0.1603
  407loPI   C5A 6507   5.774   3.437   7.871  0.2959  0.0698  0.0676
  407loPI   C6A 6508   5.497   3.132   7.703  0.1079  0.3519  0.0075
  407loPI   C1B 6509   6.316   3.538   9.231  0.0502  0.0196 -0.1208
  407loPI   C2B 6510   6.216   3.505   8.623  0.0700 -0.0656  0.1975
  407loPI   C3B 6511   6.064   3.370   8.241  0.1219 -0.1566 -0.0003
  407loPI   C4B 6512   5.842   2.980   8.065  0.0823  0.1774 -0.0653
  408loPI    C1 6513   1.466  14.761   9.431  0.1180 -0.0870 -0.0228
  408loPI    C2 6514   1.674  14.698   9.767  0.0597 -0.2165 -0.0105
  408loPI    C3 6515   1.290  14.588   9.746 -0.0123  0.0320 -0.0293
  408loPI   PO4 6516   1.560  14.636   9.204  0.0404  0.1176  0.3130
  408loPI   GL1 6517   1.804  14.542   8.867  0.0050  0.1061 -0.0053
  408loPI   GL2 6518   2.137  14.524   8.770 -0.1296  0.0396  0.1121
  408loPI   C1A 6519   1.700  14.558   8.383  0.2427 -0.2812  0.4500
  408loPI   C2A 6520   1.708  14.556   8.006  0.3011 -0.2756 -0.0364
  408loPI   C3A 6521   1.801  14.664   7.579  0.2440  0.0668  0.1034
  408loPI   C4A 6522   1.583  14.653   7.219  0.1436  0.1156 -0.1136
  408loPI   C5A 6523   1.565  14.989   7.018 -0.0198 -0.3002  0.3123
  408loPI   C6A 6524   1.272  15.200   6.643  0.3138  0.0541  0.5779
  408loPI   C1B 6525   2.267  14.644   8.428  0.3017  0.0731  0.3356
  408loPI   C2B 6526   2.212  14.557   7.974 -0.0074 -0.1836 -0.1242
  408loPI   C3B 6527   2.173  14.332   7.664 -0.1549 -0.0628  0.2008
  408loPI   C4B 6528   1.920  14.162   7.254  0.0573  0.1103  0.2219
  409loPI    C1 6529   5.568   8.876  10.285  0.0871 -0.2403  0.2080
  409loPI    C2 6530   5.643   8.980  10.664 -0.1440 -0.1082  0.2192
  409loPI    C3 6531   5.279   8.849  10.561 -0.2714  0.4509 -0.0770
  409loPI   PO4 6532   5.609   9.128  10.020 -0.1852 -0.1627  0.2047
  409loPI   GL1 6533   5.681   9.290   9.602 -0.0279  0.3853  0.1771
  409loPI   GL2 6534   5.755   9.628   9.457  0.3943 -0.0838  0.1431
  409loPI   C1A 6535   6.124   9.168   9.344 -0.1118  0.1647 -0.4390
  409loPI   C2A 6536   6.210   8.991   8.951 -0.4044 -0.1651  0.2558
  409loPI   C3A 6537   6.096   8.888   8.567 -0.1310 -0.0122 -0.2149
  409loPI   C4A 6538   5.902   8.817   8.171 -0.0587 -0.0733 -0.3898
  409loPI   C5A 6539   5.908   8.756   7.852  0.1288  0.1680 -0.0027
  409loPI   C6A 6540   6.147   8.374   7.496  0.0454  0.2652  0.4355
  409loPI   C1B 6541   5.695   9.311   9.113 -0.0372  0.0296  0.3222
  409loPI   C2B 6542   5.712   9.211   8.701 -0.0952  0.1694  0.0395
  409loPI   C3B 6543   5.850   9.351   8.304  0.2828 -0.1369  0.0076
  409loPI   C4B 6544   6.046   9.399   7.877  0.0447  0.0599 -0.0221
  410loPI    C1 6545   2.824  17.885  10.167 -0.0123  0.0498  0.0477
  410loPI    C2 6546   3.114  18.154  10.106  0.0311 -0.0353 -0.1280
  410loPI    C3 6547   3.183  17.833  10.336 -0.0571  0.1615  0.1791
  410loPI   PO4 6548   2.756  17.778   9.885  0.0128 -0.0826 -0.2421
  410loPI   GL1 6549   2.702  18.081   9.688  0.1285  0.0448 -0.0615
  410loPI   GL2 6550   3.016  18.025   9.564  0.0379  0.0369  0.1787
  410loPI   C1A 6551   2.481  18.076   9.217  0.2027  0.1525 -0.0319
  410loPI   C2A 6552   2.391  18.221   8.831 -0.0915 -0.3888  0.0832
  410loPI   C3A 6553   2.213  18.328   8.479  0.1282  0.0840  0.1173
  410loPI   C4A 6554   2.246  18.108   8.043  0.1130 -0.0160 -0.0906
  410loPI   C5A 6555   2.185  17.905   7.654 -0.1222 -0.1747  0.0014
  410loPI   C6A 6556   2.418  17.924   7.228 -0.0267 -0.4913 -0.0935
  410loPI   C1B 6557   2.835  17.663   9.088 -0.2754 -0.1159 -0.2958
  410loPI   C2B 6558   2.872  17.505   8.723  0.0779  0.0079 -0.1287
  410loPI   C3B 6559   2.789  17.416   8.285 -0.0648 -0.0959  0.0641
  410loPI   C4B 6560   2.956  17.081   7.934 -0.0212  0.1542 -0.1510
  411loPI    C1 6561  18.084  18.024   9.536 -0.0903 -0.1025  0.1973
  411loPI    C2 6562  17.752  18.119   9.334  0.0628  0.0734  0.0248
  411loPI    C3 6563  17.812  18.268   9.700  0.0093  0.1415  0.0061
  411loPI   PO4 6564  18.241  17.982   9.307  0.0952 -0.2683 -0.2573
  411loPI   GL1 6565  18.184  18.352   9.069 -0.3458  0.0139 -0.2230
  411loPI   GL2 6566  17.890  18.639   9.029 -0.3244  0.0489  0.2375
  411loPI   C1A 6567  18.252  18.446   8.654  0.1780  0.3759 -0.0170
  411loPI   C2A 6568  18.221  18.523   8.192  0.1192 -0.0663 -0.2622
  411loPI   C3A 6569  18.342  18.876   7.817  0.2823  0.1361  0.1919
  411loPI   C4A 6570  18.312  19.116   7.442  0.1915 -0.1428  0.0749
  411loPI   C5A 6571  18.364  19.547   7.367  0.1740 -0.0704  0.0603
  411loPI   C6A 6572  18.750  19.726   7.375 -0.1626 -0.2446  0.0751
  411loPI   C1B 6573  17.807  18.743   8.601  0.0805  0.2142 -0.2560
  411loPI   C2B 6574  17.980  18.936   8.162 -0.0153  0.2110 -0.0097
  411loPI   C3B 6575  18.049  19.265   7.823  0.1244 -0.0387 -0.0767
  411loPI   C4B 6576  18.112  19.682   7.788  0.1749  0.1215  0.0634
  412loPI    C1 6577   5.733   5.294  10.501  0.0910  0.2100 -0.1645
  412loPI    C2 6578   5.994   5.079  10.288  0.0265  0.0749 -0.1085
  412loPI    C3 6579   6.125   5.325  10.575  0.0991  0.0928 -0.1565
  412loPI   PO4 6580   5.527   5.313  10.268  0.2616 -0.2245  0.1099
  412loPI   GL1 6581   5.316   5.251   9.855 -0.2036  0.0488  0.0568
  412loPI   GL2 6582   5.371   4.941   9.681  0.0993 -0.1253 -0.0104
  412loPI   C1A 6583   5.240   5.408   9.418  0.2204  0.1177 -0.1186
  412loPI   C2A 6584   5.350   5.584   9.055  0.2589 -0.3917 -0.1916
  412loPI   C3A 6585   5.417   5.711   8.672 -0.2128 -0.0067 -0.2484
  412loPI   C4A 6586   5.333   5.714   8.250  0.1517  0.2890 -0.1370
  412loPI   C5A 6587   5.434   5.705   7.805 -0.2436  0.0399  0.1355
  412loPI   C6A 6588   5.385   5.744   7.362 -0.2049  0.0231  0.0559
  412loPI   C1B 6589   5.272   4.980   9.222 -0.0846 -0.1150  0.1538
  412loPI   C2B 6590   5.272   5.103   8.845  0.2893 -0.0747  0.0908
  412loPI   C3B 6591   5.415   5.242   8.471 -0.1258 -0.0150 -0.0980
  412loPI   C4B 6592   5.407   5.173   8.065  0.1420  0.2866 -0.0817
  413loPI    C1 6593   0.069  11.033   9.539 -0.2332  0.2569  0.1243
  413loPI    C2 6594   0.085  11.027   9.938 -0.0688  0.0960  0.1164
  413loPI    C3 6595  -0.248  10.911   9.750 -0.0529 -0.0920  0.2016
  413loPI   PO4 6596   0.328  10.897   9.494 -0.1466 -0.0054  0.0777
  413loPI   GL1 6597   0.440  10.797   8.972  0.2802  0.2121  0.0695
  413loPI   GL2 6598   0.130  11.029   8.945 -0.2650 -0.0821 -0.2930
  413loPI   C1A 6599   0.514  10.906   8.534 -0.5174 -0.0788  0.1168
  413loPI   C2A 6600   0.731  10.899   8.162  0.0597  0.1627  0.1114
  413loPI   C3A 6601   0.952  11.031   7.848 -0.3000  0.0210 -0.0002
  413loPI   C4A 6602   1.051  11.164   7.446  0.0347 -0.1301  0.1438
  413loPI   C5A 6603   0.835  10.992   7.099 -0.0301  0.3422 -0.0095
  413loPI   C6A 6604   0.608  10.780   6.706 -0.0369 -0.2395 -0.0068
  413loPI   C1B 6605   0.042  10.765   8.646 -0.2680  0.1260 -0.0164
  413loPI   C2B 6606   0.129  10.693   8.237 -0.2661  0.1458  0.1178
  413loPI   C3B 6607   0.214  10.813   7.847 -0.1255 -0.3648 -0.0417
  413loPI   C4B 6608   0.599  10.873   7.550 -0.1169 -0.1414 -0.3235
  414loPI    C1 6609   9.254   5.018  10.116  0.0571 -0.1514  0.0816
  414loPI    C2 6610   9.310   4.711  10.366 -0.2489 -0.1710  0.1296
  414loPI    C3 6611   9.463   5.070  10.452 -0.0389 -0.2667  0.1599
  414loPI   PO4 6612   9.089   4.945   9.882 -0.1384 -0.0989  0.0633
  414loPI   GL1 6613   8.791   4.783   9.662  0.0796  0.0229 -0.1459
  414loPI   GL2 6614   8.609   4.950   9.731  0.1590  0.2106 -0.5041
  414loPI   C1A 6615   8.765   4.639   9.277  0.2219  0.1244  0.4160
  414loPI   C2A 6616   8.584   4.453   8.885  0.0501  0.0972 -0.0710
  414loPI   C3A 6617   8.569   4.289   8.446  0.0640  0.1388 -0.2368
  414loPI   C4A 6618   8.684   4.490   7.994 -0.1793  0.1645  0.0496
  414loPI   C5A 6619   8.672   4.650   7.471  0.1988  0.2405  0.0135
  414loPI   C6A 6620   8.516   4.686   7.113 -0.0857  0.2847  0.2896
  414loPI   C1B 6621   8.669   5.311   9.388  0.1075 -0.1136  0.1286
  414loPI   C2B 6622   8.853   5.533   8.981  0.0550 -0.1842  0.2918
  414loPI   C3B 6623   9.090   5.669   8.556  0.5469  0.3769  0.1732
  414loPI   C4B 6624   8.981   6.039   8.260  0.2284 -0.0267 -0.0934
  415loPI    C1 6625  17.064   7.533  10.257 -0.1928 -0.1816 -0.1118
  415loPI    C2 6626  17.064   7.929  10.200  0.3929 -0.1087  0.3157
  415loPI    C3 6627  16.967   7.778  10.558 -0.1404 -0.3793  0.0684
  415loPI   PO4 6628  16.896   7.450  10.067  0.0449 -0.0854  0.2170
  415loPI   GL1 6629  16.840   7.507   9.708 -0.0397  0.1013 -0.1462
  415loPI   GL2 6630  16.446   7.698   9.631 -0.3278  0.0612 -0.0029
  415loPI   C1A 6631  16.996   7.552   9.271  0.3247  0.0222 -0.2223
  415loPI   C2A 6632  17.103   7.511   8.910  0.1721 -0.0988  0.4616
  415loPI   C3A 6633  17.327   7.475   8.491  0.1394 -0.0687 -0.2479
  415loPI   C4A 6634  17.361   7.627   8.039  0.0564 -0.1290  0.3978
  415loPI   C5A 6635  17.768   7.603   7.813 -0.2765 -0.0348  0.0422
  415loPI   C6A 6636  18.132   7.852   7.925 -0.1526  0.0867 -0.1034
  415loPI   C1B 6637  16.467   7.702   9.205  0.0385  0.0040 -0.0054
  415loPI   C2B 6638  16.505   7.477   8.792  0.1818  0.1080  0.1075
  415loPI   C3B 6639  16.449   7.303   8.304 -0.2924  0.2015  0.1869
  415loPI   C4B 6640  16.559   7.101   7.923  0.2376 -0.1866 -0.2152
  416loPI    C1 6641   5.783   4.450  10.678 -0.0184 -0.0285 -0.1400
  416loPI    C2 6642   5.977   4.799  10.706 -0.0500 -0.0424  0.3552
  416loPI    C3 6643   5.577   4.793  10.691 -0.0432 -0.0511  0.1506
  416loPI   PO4 6644   5.970   4.282  10.416 -0.0187  0.2355 -0.3023
  416loPI   GL1 6645   6.095   4.085   9.946 -0.2528  0.0111 -0.0557
  416loPI   GL2 6646   5.897   3.844  10.096 -0.0728 -0.4661  0.1459
  416loPI   C1A 6647   5.945   4.388   9.645  0.2174 -0.2322 -0.2378
  416loPI   C2A 6648   5.878   4.380   9.260  0.4848 -0.3838  0.2222
  416loPI   C3A 6649   5.807   4.356   8.809 -0.2589  0.0081  0.1854
  416loPI   C4A 6650   5.828   4.387   8.354 -0.3097 -0.0615  0.1139
  416loPI   C5A 6651   5.901   4.402   7.972  0.1786 -0.1289 -0.0373
  416loPI   C6A 6652   6.139   4.286   7.698  0.2131  0.0052 -0.2514
  416loPI   C1B 6653   5.636   3.505   9.892 -0.0645 -0.1404 -0.0551
  416loPI   C2B 6654   5.739   3.311   9.642 -0.3301 -0.0852  0.0114
  416loPI   C3B 6655   5.568   3.115   9.259 -0.1765 -0.0528 -0.4075
  416loPI   C4B 6656   5.373   2.961   8.932  0.0330 -0.0200 -0.0050
  417loPI    C1 6657   4.538  10.849   9.727  0.0170  0.0574 -0.0955
  417loPI    C2 6658   4.569  10.927  10.118 -0.3966 -0.0517 -0.0367
  417loPI    C3 6659   4.296  10.665   9.987 -0.1702 -0.1184 -0.3880
  417loPI   PO4 6660   4.731  10.826   9.603  0.0016  0.2971 -0.0952
  417loPI   GL1 6661   4.790  10.867   9.186  0.1014 -0.3879  0.2694
  417loPI   GL2 6662   5.021  10.684   9.044  0.0978 -0.0175  0.1255
  417loPI   C1A 6663   4.802  11.043   8.772 -0.0047  0.4003  0.1142
  417loPI   C2A 6664   4.604  11.218   8.483 -0.2894  0.1442 -0.0535
  417loPI   C3A 6665   4.313  11.225   8.211  0.2384 -0.0630  0.1792
  417loPI   C4A 6666   4.257  11.344   7.800 -0.2740 -0.0923 -0.2053
  417loPI   C5A 6667   4.427  11.504   7.530 -0.0689 -0.0764  0.0236
  417loPI   C6A 6668   4.727  11.509   7.163 -0.1883  0.2891 -0.1096
  417loPI   C1B 6669   5.201  10.733   8.686 -0.3299  0.0074 -0.2624
  417loPI   C2B 6670   5.061  10.900   8.331 -0.0715  0.1514 -0.1308
  417loPI   C3B 6671   5.045  11.095   7.924  0.0276  0.2383 -0.3351
  417loPI   C4B 6672   4.972  11.340   7.603 -0.0759  0.0316  0.0307
  418loPI    C1 6673  10.475  14.594   9.675  0.0954  0.2046 -0.1747
  418loPI    C2 6674  10.817  14.659   9.478  0.2067 -0.0222 -0.0605
  418loPI    C3 6675  10.826  14.557   9.864  0.0170 -0.1842 -0.0974
  418loPI   PO4 6676  10.260  14.431   9.449  0.0896  0.2584  0.1577
  418loPI   GL1 6677   9.768  14.451   9.187 -0.2535  0.0069 -0.1243
  418loPI   GL2 6678   9.993  14.527   8.979  0.0048 -0.3068  0.1773
  418loPI   C1A 6679   9.528  14.588   8.892 -0.1170 -0.2169  0.1925
  418loPI   C2A 6680   9.345  14.727   8.468 -0.1429 -0.3402  0.1061
  418loPI   C3A 6681   9.361  14.717   8.062  0.0833 -0.2192  0.0071
  418loPI   C4A 6682   9.227  14.849   7.675 -0.2293 -0.1023 -0.0896
  418loPI   C5A 6683   9.120  15.088   7.274 -0.0512 -0.0080 -0.1708
  418loPI   C6A 6684   8.862  15.307   7.037 -0.2253  0.0458 -0.5034
  418loPI   C1B 6685   9.886  14.630   8.540 -0.0616  0.0423 -0.1633
  418loPI   C2B 6686   9.851  14.596   8.107  0.1193 -0.1897  0.1416
  418loPI   C3B 6687  10.057  14.764   7.739  0.1987  0.0417  0.0312
  418loPI   C4B 6688  10.073  14.635   7.307 -0.0276  0.2875 -0.0109
  419loPI    C1 6689   5.154  14.647   9.862 -0.0531 -0.0622 -0.1934
  419loPI    C2 6690   5.482  14.656  10.091 -0.0477  0.0245 -0.2043
  419loPI    C3 6691   5.135  14.524  10.242 -0.0272  0.0116 -0.1682
  419loPI   PO4 6692   5.273  14.705   9.621  0.2673  0.0843 -0.2213
  419loPI   GL1 6693   5.548  14.512   9.221 -0.2589 -0.2793  0.1164
  419loPI   GL2 6694   5.328  14.513   9.192  0.1381 -0.1038  0.2041
  419loPI   C1A 6695   5.817  14.587   8.901  0.0478 -0.1066 -0.1472
  419loPI   C2A 6696   6.143  14.594   8.542 -0.0069 -0.0676  0.0730
  419loPI   C3A 6697   6.471  14.424   8.375  0.0160 -0.1247  0.4149
  419loPI   C4A 6698   6.488  14.413   7.899  0.0793  0.1365  0.0953
  419loPI   C5A 6699   6.673  14.196   7.622  0.0251 -0.1216 -0.2182
  419loPI   C6A 6700   6.998  14.207   7.393 -0.0584 -0.2154 -0.0875
  419loPI   C1B 6701   5.348  14.499   8.783  0.0042  0.0555 -0.2844
  419loPI   C2B 6702   5.362  14.521   8.265 -0.3948 -0.0982  0.2112
  419loPI   C3B 6703   5.476  14.367   7.899  0.0032 -0.0690  0.2912
  419loPI   C4B 6704   5.604  14.169   7.495 -0.1938 -0.2950  0.1783
  420loPI    C1 6705   5.315  17.312   9.793 -0.4550  0.0546 -0.0821
  420loPI    C2 6706   5.329  16.979  10.015 -0.0860 -0.0245 -0.2164
  420loPI    C3 6707   5.361  17.338  10.190 -0.3703 -0.0606 -0.0838
  420loPI   PO4 6708   5.028  17.175   9.645 -0.0945  0.1845  0.2584
  420loPI   GL1 6709   5.069  17.218   9.233  0.0427  0.4426  0.1584
  420loPI   GL2 6710   5.180  17.495   9.264  0.0807  0.0857  0.5375
  420loPI   C1A 6711   5.039  17.285   8.832  0.0090  0.2079 -0.0542
  420loPI   C2A 6712   5.133  17.168   8.293 -0.2458  0.1995 -0.0041
  420loPI   C3A 6713   5.006  17.208   7.907 -0.0300 -0.0560 -0.0562
  420loPI   C4A 6714   4.899  17.151   7.463 -0.0801  0.1410 -0.2306
  420loPI   C5A 6715   5.152  16.897   7.220 -0.0666 -0.5525 -0.4088
  420loPI   C6A 6716   5.526  16.583   7.084  0.0676 -0.0210 -0.1064
  420loPI   C1B 6717   4.920  17.753   9.054 -0.2453  0.0905  0.0559
  420loPI   C2B 6718   4.833  17.756   8.582  0.1338 -0.1947  0.0512
  420loPI   C3B 6719   4.755  17.682   8.082  0.1539  0.1048 -0.0580
  420loPI   C4B 6720   4.764  17.561   7.675  0.0402 -0.2089  0.0318
  421loPI    C1 6721   8.653   9.031   9.599  0.0920  0.0620 -0.1555
  421loPI    C2 6722   8.442   9.181   9.905  0.0689 -0.1176 -0.0823
  421loPI    C3 6723   8.568   8.801   9.916  0.2555 -0.0601 -0.1993
  421loPI   PO4 6724   8.494   9.014   9.394  0.2716  0.0966  0.3767
  421loPI   GL1 6725   8.452   8.930   8.942  0.1410 -0.1073 -0.2579
  421loPI   GL2 6726   8.324   9.182   8.966  0.3315  0.1561  0.1392
  421loPI   C1A 6727   8.550   8.873   8.472 -0.0263  0.2394  0.1823
  421loPI   C2A 6728   8.589   8.541   8.119 -0.2603 -0.1383 -0.0589
  421loPI   C3A 6729   8.574   8.362   7.736  0.0007  0.0750 -0.0270
  421loPI   C4A 6730   8.679   8.276   7.355 -0.2444  0.1751  0.4508
  421loPI   C5A 6731   8.838   8.454   6.990 -0.0907 -0.0472  0.3485
  421loPI   C6A 6732   8.874   8.836   6.880 -0.3726  0.0370 -0.2039
  421loPI   C1B 6733   8.048   9.251   8.551 -0.1159  0.3048  0.3319
  421loPI   C2B 6734   7.980   9.346   8.146 -0.1027 -0.0115  0.2080
  421loPI   C3B 6735   8.143   9.228   7.793 -0.0359 -0.1677  0.0840
  421loPI   C4B 6736   8.303   9.202   7.387 -0.1629 -0.0481  0.0418
  422loPI    C1 6737  10.133   1.428   9.885 -0.1176 -0.2992 -0.1102
  422loPI    C2 6738  10.021   1.174  10.173 -0.0225 -0.1294  0.0792
  422loPI    C3 6739  10.293   1.457  10.251  0.0054 -0.0828 -0.1794
  422loPI   PO4 6740  10.272   1.249   9.732  0.4800  0.0021  0.4085
  422loPI   GL1 6741  10.267   1.050   9.292  0.2972 -0.2584  0.2149
  422loPI   GL2 6742  10.499   0.786   9.134  0.0823 -0.5367  0.3250
  422loPI   C1A 6743   9.964   1.005   9.116  0.3189 -0.3042  0.1889
  422loPI   C2A 6744   9.674   0.916   8.783  0.2458 -0.1039  0.0447
  422loPI   C3A 6745   9.820   0.898   8.412  0.1795  0.2378 -0.2332
  422loPI   C4A 6746   9.967   0.836   7.890  0.2959  0.0712  0.0781
  422loPI   C5A 6747   9.760   0.810   7.556  0.1638  0.2878 -0.2268
  422loPI   C6A 6748   9.561   0.634   7.246 -0.1581  0.2536  0.1464
  422loPI   C1B 6749  10.487   0.782   8.681  0.2067 -0.0582  0.0525
  422loPI   C2B 6750  10.400   0.861   8.303  0.2565 -0.1752 -0.0835
  422loPI   C3B 6751  10.562   0.911   7.911 -0.0180 -0.1479  0.1062
  422loPI   C4B 6752  10.401   1.166   7.540 -0.0334 -0.2434  0.1054
  423loPI    C1 6753   9.632  13.780   9.491  0.1523  0.0981  0.0085
  423loPI    C2 6754   9.748  13.795   9.873  0.2657  0.3470 -0.0334
  423loPI    C3 6755   9.730  14.130   9.657  0.0087  0.2350 -0.1909
  423loPI   PO4 6756   9.629  13.513   9.453  0.3839  0.4924 -0.1592
  423loPI   GL1 6757   9.830  13.410   9.090  0.2814  0.0934 -0.0056
  423loPI   GL2 6758  10.080  13.496   8.867 -0.0651 -0.1605  0.0312
  423loPI   C1A 6759   9.600  13.468   8.782 -0.1011  0.2192  0.0837
  423loPI   C2A 6760   9.582  13.584   8.416 -0.1352 -0.3447  0.1756
  423loPI   C3A 6761   9.539  13.512   8.100 -0.1574  0.1384 -0.0899
  423loPI   C4A 6762   9.458  13.340   7.663  0.0072 -0.0533  0.0651
  423loPI   C5A 6763   9.562  13.481   7.296 -0.1603 -0.2718 -0.1215
  423loPI   C6A 6764   9.345  13.551   6.881  0.1517 -0.0023 -0.0462
  423loPI   C1B 6765  10.037  13.739   8.448  0.0840 -0.1055 -0.2073
  423loPI   C2B 6766  10.030  13.660   8.084  0.0091 -0.1286  0.1208
  423loPI   C3B 6767   9.861  13.657   7.651 -0.0176  0.1831  0.0732
  423loPI   C4B 6768  10.059  13.673   7.287 -0.0011 -0.1262  0.2487
  424loPI    C1 6769  11.643   9.301  10.327 -0.1373  0.1162  0.1101
  424loPI    C2 6770  11.330   9.540  10.400  0.0682  0.4088  0.0499
  424loPI    C3 6771  11.692   9.698  10.336  0.1972  0.0813 -0.0496
  424loPI   PO4 6772  11.686   9.100  10.192  0.1056  0.0422 -0.0663
  424loPI   GL1 6773  11.570   9.096   9.717 -0.0481 -0.1886 -0.2268
  424loPI   GL2 6774  11.330   9.244   9.401 -0.1811  0.0712  0.0663
  424loPI   C1A 6775  11.733   8.826   9.391  0.1795 -0.2522  0.3312
  424loPI   C2A 6776  11.783   8.558   8.997  0.0713  0.0566 -0.3336
  424loPI   C3A 6777  11.841   8.680   8.503  0.0888  0.2177 -0.3468
  424loPI   C4A 6778  11.985   8.493   8.116  0.0988  0.0177 -0.1349
  424loPI   C5A 6779  12.025   8.497   7.693  0.1166 -0.1953  0.0949
  424loPI   C6A 6780  12.279   8.470   7.214  0.1680 -0.2122  0.0841
  424loPI   C1B 6781  11.532   9.393   9.025  0.1444 -0.0122  0.0041
  424loPI   C2B 6782  11.380   9.377   8.676 -0.0587 -0.0125  0.2231
  424loPI   C3B 6783  11.340   9.090   8.408  0.0052  0.1803 -0.2169
  424loPI   C4B 6784  11.479   9.252   7.989  0.0688 -0.0943 -0.0117
  425loPI    C1 6785   0.003   4.224  10.351  0.0518  0.2211  0.0219
  425loPI    C2 6786  -0.361   4.127  10.487  0.1465 -0.0283  0.1031
  425loPI    C3 6787  -0.099   4.311  10.728  0.1319  0.0021  0.0959
  425loPI   PO4 6788  -0.095   4.300  10.136  0.3181 -0.1648  0.0695
  425loPI   GL1 6789  -0.008   4.493   9.864  0.2792  0.1382  0.1396
  425loPI   GL2 6790   0.019   4.868   9.647 -0.4427 -0.6305 -0.2401
  425loPI   C1A 6791   0.115   4.358   9.444 -0.2177 -0.1839 -0.4165
  425loPI   C2A 6792   0.130   4.191   9.017  0.2516  0.1193  0.1985
  425loPI   C3A 6793   0.136   3.990   8.617 -0.0521  0.3380  0.2971
  425loPI   C4A 6794   0.190   4.096   8.219  0.0083  0.1632  0.0786
  425loPI   C5A 6795   0.309   4.028   7.877  0.1027 -0.4457  0.2032
  425loPI   C6A 6796   0.310   3.811   7.516 -0.2572 -0.0820 -0.0565
  425loPI   C1B 6797   0.210   4.900   9.304 -0.0861 -0.1930 -0.0523
  425loPI   C2B 6798   0.227   4.696   8.847  0.0260  0.1564 -0.4449
  425loPI   C3B 6799   0.089   4.888   8.531  0.0824  0.3614 -0.4087
  425loPI   C4B 6800  -0.269   5.022   8.209  0.0073 -0.0807  0.1657
  426loPI    C1 6801   6.250   6.394  10.624 -0.2283  0.1280 -0.1309
  426loPI    C2 6802   6.400   6.762  10.675 -0.2609  0.1297 -0.0458
  426loPI    C3 6803   6.518   6.463  10.913 -0.1201  0.0512 -0.2120
  426loPI   PO4 6804   6.333   6.399  10.349  0.0710  0.0034  0.0115
  426loPI   GL1 6805   6.155   6.505   9.910 -0.3787 -0.2097  0.1959
  426loPI   GL2 6806   5.934   6.639   9.982 -0.3270 -0.2790  0.2226
  426loPI   C1A 6807   6.417   6.397   9.534 -0.2729 -0.1321  0.2633
  426loPI   C2A 6808   6.372   6.308   9.093 -0.2173  0.0647  0.0578
  426loPI   C3A 6809   6.364   6.319   8.629  0.0144 -0.0343  0.1818
  426loPI   C4A 6810   6.331   6.216   8.211 -0.0414  0.3088 -0.2295
  426loPI   C5A 6811   6.148   6.162   7.702  0.0032 -0.1895  0.1990
  426loPI   C6A 6812   6.206   6.005   7.263 -0.0133  0.1799 -0.1337
  426loPI   C1B 6813   5.997   6.648   9.491 -0.1339 -0.1181  0.2903
  426loPI   C2B 6814   5.922   6.473   9.147  0.0578 -0.0097 -0.1510
  426loPI   C3B 6815   5.877   6.577   8.677 -0.0119 -0.1888  0.0623
  426loPI   C4B 6816   5.780   6.505   8.303 -0.2485  0.1418  0.0376
  427loPI    C1 6817   1.413   2.218  10.457  0.0654  0.0298  0.0282
  427loPI    C2 6818   1.142   2.510  10.489  0.1089  0.0641  0.0854
  427loPI    C3 6819   1.032   2.129  10.542  0.0583  0.0724  0.0410
  427loPI   PO4 6820   1.543   2.297  10.200  0.0538 -0.4152 -0.0093
  427loPI   GL1 6821   1.625   2.084   9.950 -0.3476 -0.0367 -0.1181
  427loPI   GL2 6822   1.305   2.037   9.842  0.0765 -0.1109  0.0495
  427loPI   C1A 6823   1.691   2.119   9.480  0.0016 -0.2504 -0.4123
  427loPI   C2A 6824   1.736   2.155   9.032  0.1163 -0.1036  0.0482
  427loPI   C3A 6825   1.819   2.199   8.668  0.2179 -0.2274  0.1138
  427loPI   C4A 6826   1.853   2.027   8.242 -0.1524 -0.1479  0.2699
  427loPI   C5A 6827   1.920   1.674   7.955  0.2009  0.1607 -0.1857
  427loPI   C6A 6828   1.749   1.438   7.606  0.0635 -0.0833 -0.1367
  427loPI   C1B 6829   1.292   2.382   9.553 -0.2024  0.1774 -0.5856
  427loPI   C2B 6830   1.232   2.469   9.142 -0.0254 -0.0538  0.0465
  427loPI   C3B 6831   1.012   2.629   8.758 -0.0580 -0.2848  0.0348
  427loPI   C4B 6832   0.627   2.428   8.608 -0.1722  0.2054 -0.0143
  428loPI    C1 6833  13.285  12.603   9.355 -0.0410  0.2696  0.0296
  428loPI    C2 6834  13.425  12.608   9.730 -0.2101  0.2957  0.0932
  428loPI    C3 6835  13.566  12.867   9.460 -0.0266  0.2205  0.1154
  428loPI   PO4 6836  12.987  12.581   9.341  0.0312 -0.2813 -0.1873
  428loPI   GL1 6837  13.002  12.349   9.064  0.2749  0.0079  0.3764
  428loPI   GL2 6838  13.281  12.079   9.021  0.1138 -0.0208  0.2106
  428loPI   C1A 6839  12.925  12.473   8.645  0.0849  0.0116 -0.0696
  428loPI   C2A 6840  13.164  12.595   8.323  0.1241  0.3239 -0.3102
  428loPI   C3A 6841  13.436  12.724   8.031  0.0569 -0.0170  0.1555
  428loPI   C4A 6842  13.522  12.801   7.688 -0.3239 -0.0813  0.0887
  428loPI   C5A 6843  13.775  12.628   7.325 -0.2450 -0.0398 -0.3701
  428loPI   C6A 6844  14.280  12.722   7.293  0.0733  0.2666  0.0697
  428loPI   C1B 6845  13.315  12.117   8.582 -0.0189 -0.2155  0.1592
  428loPI   C2B 6846  13.333  12.157   8.196 -0.1465 -0.2022  0.0194
  428loPI   C3B 6847  13.348  12.243   7.800  0.1296 -0.0215 -0.3596
  428loPI   C4B 6848  13.274  12.389   7.399  0.0512  0.2166  0.0631
  429loPI    C1 6849   0.701   5.274  10.527 -0.0472  0.1451 -0.4630
  429loPI    C2 6850   0.725   4.888  10.424 -0.1619 -0.0016  0.0336
  429loPI    C3 6851   0.788   4.999  10.804 -0.0564  0.4809 -0.1170
  429loPI   PO4 6852   0.594   5.381  10.341  0.2496 -0.1039 -0.2007
  429loPI   GL1 6853   0.753   5.313   9.942 -0.0544 -0.0241 -0.2209
  429loPI   GL2 6854   0.451   5.601   9.810 -0.0997  0.0426 -0.1128
  429loPI   C1A 6855   0.705   4.978   9.479 -0.1111  0.4352 -0.0532
  429loPI   C2A 6856   0.637   4.898   9.072  0.0612  0.1929  0.3189
  429loPI   C3A 6857   0.568   4.959   8.668  0.1517  0.0749 -0.1677
  429loPI   C4A 6858   0.587   5.205   8.324 -0.1082 -0.0466 -0.0825
  429loPI   C5A 6859   0.866   5.315   7.993  0.3345  0.0290 -0.2318
  429loPI   C6A 6860   1.225   5.639   7.968 -0.3358 -0.2581 -0.1171
  429loPI   C1B 6861   0.341   5.341   9.488  0.2695  0.0325 -0.1226
  429loPI   C2B 6862   0.316   5.374   8.993  0.2840  0.0825 -0.1883
  429loPI   C3B 6863   0.520   5.531   8.653 -0.1089  0.1249  0.0398
  429loPI   C4B 6864   0.335   5.821   8.270 -0.0691 -0.0645 -0.2068
  430loPI    C1 6865  18.381  13.412   9.431 -0.1022 -0.0229  0.0312
  430loPI    C2 6866  18.099  13.503   9.699 -0.1414  0.0064 -0.0200
  430loPI    C3 6867  18.254  13.790   9.467  0.0563  0.0225  0.1288
  430loPI   PO4 6868  18.285  13.219   9.302 -0.1944 -0.2299  0.2104
  430loPI   GL1 6869  18.305  13.086   8.893  0.1412 -0.2027  0.0716
  430loPI   GL2 6870  18.389  13.180   8.671 -0.0214  0.2195 -0.1277
  430loPI   C1A 6871  18.300  12.687   8.667 -0.2047 -0.0092  0.2210
  430loPI   C2A 6872  18.451  12.376   8.464 -0.2527  0.2971  0.2181
  430loPI   C3A 6873  18.403  12.212   8.042  0.1084  0.0356  0.0005
  430loPI   C4A 6874  18.467  12.171   7.562  0.2609 -0.4263  0.0235
  430loPI   C5A 6875  18.672  12.241   7.137 -0.0004 -0.1023 -0.0617
  430loPI   C6A 6876  18.799  12.597   6.978  0.3255  0.2993  0.2182
  430loPI   C1B 6877  18.325  13.142   8.255 -0.1254 -0.3478  0.2141
  430loPI   C2B 6878  18.041  13.110   7.846 -0.0801 -0.3152  0.2086
  430loPI   C3B 6879  17.827  12.827   7.759 -0.1361  0.2524 -0.3166
  430loPI   C4B 6880  17.765  12.694   7.291 -0.0930 -0.2120 -0.2046
  431loPI    C1 6881  15.004   0.767  10.068  0.5160 -0.2703 -0.1118
  431loPI    C2 6882  15.030   0.941  10.427 -0.0925  0.0898 -0.2276
  431loPI    C3 6883  14.751   0.662  10.360  0.0353  0.0049 -0.4148
  431loPI   PO4 6884  15.119   0.931   9.830  0.2008  0.0432 -0.1934
  431loPI   GL1 6885  15.120   0.800   9.343 -0.0478  0.0761 -0.2220
  431loPI   GL2 6886  15.455   0.879   9.425 -0.0515 -0.2064  0.1268
  431loPI   C1A 6887  15.109   0.660   8.962 -0.1311  0.1419 -0.1403
  431loPI   C2A 6888  15.375   0.438   8.781 -0.1936  0.0191  0.1580
  431loPI   C3A 6889  15.543   0.248   8.309  0.0418 -0.0660 -0.2915
  431loPI   C4A 6890  15.835  -0.011   8.114  0.1202 -0.0191 -0.0695
  431loPI   C5A 6891  16.011  -0.178   7.664  0.1475  0.1884 -0.3584
  431loPI   C6A 6892  16.186  -0.331   7.289 -0.2856 -0.0893 -0.1421
  431loPI   C1B 6893  15.630   0.756   9.127  0.0350  0.0668  0.0269
  431loPI   C2B 6894  15.767   0.721   8.618 -0.3331  0.2884  0.2152
  431loPI   C3B 6895  15.714   0.816   8.170 -0.0093  0.1597  0.4237
  431loPI   C4B 6896  15.600   0.882   7.697 -0.2086  0.0112 -0.0135
  432loPI    C1 6897   7.331   0.082   9.950  0.0611  0.2909  0.0592
  432loPI    C2 6898   7.417  -0.256  10.145  0.3037  0.4169  0.1755
  432loPI    C3 6899   7.094  -0.042  10.248 -0.0608  0.0365 -0.1400
  432loPI   PO4 6900   7.261   0.075   9.695  0.1032  0.0479 -0.2971
  432loPI   GL1 6901   7.170  -0.149   9.328 -0.0031  0.3801  0.0754
  432loPI   GL2 6902   6.899  -0.090   9.378  0.1866 -0.2428  0.0201
  432loPI   C1A 6903   7.099  -0.144   8.887 -0.1033  0.2116 -0.1076
  432loPI   C2A 6904   6.944  -0.210   8.475 -0.1837 -0.1737 -0.1558
  432loPI   C3A 6905   6.998  -0.228   8.071 -0.1284  0.0233 -0.0095
  432loPI   C4A 6906   6.715  -0.017   7.744  0.0988  0.2749 -0.3281
  432loPI   C5A 6907   6.427  -0.300   7.365  0.2571 -0.2353 -0.0661
  432loPI   C6A 6908   6.206  -0.702   7.083 -0.1284 -0.0770 -0.0604
  432loPI   C1B 6909   6.709   0.076   9.058 -0.1366  0.2152 -0.4083
  432loPI   C2B 6910   6.648   0.207   8.678  0.0790 -0.2681 -0.1849
  432loPI   C3B 6911   6.577   0.156   8.255 -0.1018 -0.1191  0.2806
  432loPI   C4B 6912   6.566   0.428   7.930  0.1431  0.0898  0.1520
  433loPI    C1 6913  13.673  15.988   9.560 -0.0675  0.1185 -0.0619
  433loPI    C2 6914  13.434  16.306   9.602 -0.2098  0.0269 -0.1708
  433loPI    C3 6915  13.331  15.955   9.765 -0.1234  0.0003 -0.1730
  433loPI   PO4 6916  13.878  16.019   9.364  0.1594 -0.0968 -0.0678
  433loPI   GL1 6917  13.879  16.213   8.948 -0.0824  0.3894  0.0371
  433loPI   GL2 6918  13.597  16.358   9.050 -0.0813 -0.1944 -0.2212
  433loPI   C1A 6919  13.991  16.236   8.528  0.1880  0.0811  0.3086
  433loPI   C2A 6920  14.131  16.368   8.160  0.1574 -0.0333  0.2779
  433loPI   C3A 6921  14.031  16.427   7.664  0.0989 -0.4567  0.0148
  433loPI   C4A 6922  13.589  16.369   7.394 -0.5812  0.0951 -0.2025
  433loPI   C5A 6923  13.322  16.121   7.094  0.2676  0.2815  0.2994
  433loPI   C6A 6924  13.287  15.799   6.793  0.2201  0.2586 -0.0029
  433loPI   C1B 6925  13.520  16.411   8.538 -0.2182  0.1005 -0.2168
  433loPI   C2B 6926  13.280  16.558   8.248 -0.0325  0.0393  0.0529
  433loPI   C3B 6927  13.290  16.717   7.764 -0.1773  0.0095  0.0234
  433loPI   C4B 6928  13.634  16.820   7.576  0.2774  0.1018 -0.0050
  434loPI    C1 6929  11.824   5.291  10.078 -0.0649  0.0048  0.0030
  434loPI    C2 6930  11.675   4.932  10.172  0.2870 -0.0666  0.3129
  434loPI    C3 6931  11.493   5.264  10.301  0.0937 -0.1378  0.2265
  434loPI   PO4 6932  11.990   5.239   9.833  0.1929 -0.1708 -0.0983
  434loPI   GL1 6933  11.947   5.161   9.371 -0.0493  0.2504  0.0971
  434loPI   GL2 6934  12.297   5.209   9.452  0.4412 -0.0834 -0.2728
  434loPI   C1A 6935  11.961   5.447   9.005 -0.1096  0.4099  0.1604
  434loPI   C2A 6936  11.749   5.642   8.642 -0.2333  0.1570 -0.0365
  434loPI   C3A 6937  11.730   5.643   8.153 -0.1196 -0.0124  0.1275
  434loPI   C4A 6938  11.968   5.612   7.702 -0.1845  0.2295  0.1408
  434loPI   C5A 6939  12.336   5.666   7.345  0.2926  0.0148  0.1004
  434loPI   C6A 6940  12.611   5.376   7.063 -0.0333  0.3188  0.1888
  434loPI   C1B 6941  12.186   4.945   9.009 -0.1081  0.0389 -0.3509
  434loPI   C2B 6942  12.113   5.015   8.552 -0.4383  0.2621  0.4738
  434loPI   C3B 6943  11.945   4.887   8.128  0.1058  0.4122  0.1989
  434loPI   C4B 6944  12.257   4.638   7.901 -0.4056  0.0020 -0.2750
  435loPI    C1 6945   7.456  17.561   9.455 -0.1522  0.5386 -0.2946
  435loPI    C2 6946   7.063  17.629   9.474 -0.2178  0.0830  0.2361
  435loPI    C3 6947   7.282  17.630   9.808  0.1660 -0.0450 -0.0093
  435loPI   PO4 6948   7.521  17.711   9.234  0.1731 -0.1908 -0.0633
  435loPI   GL1 6949   7.274  17.911   8.935 -0.1236 -0.0041 -0.0666
  435loPI   GL2 6950   7.142  18.213   8.917  0.2644 -0.0109 -0.3874
  435loPI   C1A 6951   7.573  17.860   8.589  0.0429  0.2198 -0.3270
  435loPI   C2A 6952   7.666  17.934   8.173 -0.0097  0.1239  0.0181
  435loPI   C3A 6953   7.776  17.863   7.728 -0.2632 -0.4321 -0.4031
  435loPI   C4A 6954   7.454  17.959   7.386 -0.1178  0.0721  0.1556
  435loPI   C5A 6955   7.106  18.032   7.019  0.2758 -0.3800 -0.2066
  435loPI   C6A 6956   6.944  17.940   6.711  0.1835  0.2117 -0.1984
  435loPI   C1B 6957   7.008  18.535   8.587  0.1423 -0.1445 -0.1271
  435loPI   C2B 6958   7.041  18.496   8.117  0.1560 -0.0791 -0.0301
  435loPI   C3B 6959   7.240  18.704   7.694  0.1471  0.2594 -0.0556
  435loPI   C4B 6960   7.540  18.869   7.422 -0.4895 -0.0266  0.0459
  436loPI    C1 6961   2.847   6.940  10.370  0.0658  0.1184  0.0194
  436loPI    C2 6962   2.516   7.098  10.531  0.2173  0.3053  0.1519
  436loPI    C3 6963   2.645   6.738  10.650  0.1509  0.3028  0.2168
  436loPI   PO4 6964   2.724   6.956  10.058  0.0903 -0.0479  0.3006
  436loPI   GL1 6965   2.798   7.128   9.595  0.6817 -0.1264  0.1262
  436loPI   GL2 6966   2.836   7.405   9.361 -0.0770 -0.0887  0.2004
  436loPI   C1A 6967   2.587   6.879   9.203  0.0098 -0.1059  0.1826
  436loPI   C2A 6968   2.384   6.920   8.845  0.0569 -0.3542  0.1960
  436loPI   C3A 6969   2.144   7.097   8.453  0.4267 -0.1800 -0.0305
  436loPI   C4A 6970   1.888   7.065   8.041 -0.3803 -0.3294  0.0672
  436loPI   C5A 6971   1.880   6.746   7.663 -0.3578 -0.1895  0.0986
  436loPI   C6A 6972   2.172   6.397   7.572  0.0519 -0.2563  0.0591
  436loPI   C1B 6973   2.701   7.335   8.968  0.1005 -0.0516  0.1894
  436loPI   C2B 6974   2.553   7.482   8.568  0.0359  0.0919 -0.0888
  436loPI   C3B 6975   2.632   7.473   8.155 -0.0356  0.0980  0.2377
  436loPI   C4B 6976   2.578   7.540   7.793 -0.0464 -0.0180  0.2412
  437loPI    C1 6977   4.380  10.168   9.983  0.3733  0.1191 -0.0095
  437loPI    C2 6978   4.526   9.798   9.941  0.1256  0.0160  0.0198
  437loPI    C3 6979   4.641  10.024  10.250  0.2025 -0.0723  0.0564
  437loPI   PO4 6980   4.403  10.327   9.668 -0.1785  0.1455 -0.1010
  437loPI   GL1 6981   4.368  10.400   9.191 -0.1915 -0.3932  0.1220
  437loPI   GL2 6982   4.629  10.413   9.249  0.1240 -0.2992  0.1956
  437loPI   C1A 6983   4.413  10.220   8.675 -0.2632 -0.3976  0.2642
  437loPI   C2A 6984   4.394  10.274   8.218  0.2877  0.0018  0.1953
  437loPI   C3A 6985   4.475  10.423   7.828  0.0726  0.0108 -0.2755
  437loPI   C4A 6986   4.785  10.483   7.491  0.2381 -0.3497 -0.1526
  437loPI   C5A 6987   4.772  10.683   7.102  0.2764 -0.1381 -0.1620
  437loPI   C6A 6988   4.998  10.820   6.755  0.3786  0.0581  0.1578
  437loPI   C1B 6989   4.871  10.272   8.854 -0.0212 -0.3650 -0.2863
  437loPI   C2B 6990   4.859  10.353   8.468 -0.0715  0.2509  0.3028
  437loPI   C3B 6991   4.874  10.246   8.027 -0.0256  0.0144 -0.3810
  437loPI   C4B 6992   4.788   9.994   7.648 -0.0002 -0.0196  0.2022
  438loPI    C1 6993   1.628   1.317  10.268 -0.0736  0.1393  0.0213
  438loPI    C2 6994   1.687   1.461  10.636 -0.1766  0.2236  0.0050
  438loPI    C3 6995   1.492   1.116  10.586  0.2206 -0.0137  0.0541
  438loPI   PO4 6996   1.830   1.478  10.163 -0.1731 -0.1742  0.4105
  438loPI   GL1 6997   2.019   1.365   9.829 -0.4115 -0.1594  0.0458
  438loPI   GL2 6998   2.018   1.675   9.640  0.1566 -0.0011 -0.0994
  438loPI   C1A 6999   1.919   1.283   9.363  0.0090 -0.0987 -0.1271
  438loPI   C2A 7000   1.934   1.105   8.937 -0.0572 -0.1110 -0.0640
  438loPI   C3A 7001   2.204   1.202   8.551  0.1403 -0.0939 -0.0999
  438loPI   C4A 7002   2.204   1.278   8.052  0.0591 -0.1742  0.0449
  438loPI   C5A 7003   2.252   1.359   7.568 -0.2221 -0.1839 -0.0036
  438loPI   C6A 7004   2.319   1.432   7.150  0.1280  0.0049  0.0097
  438loPI   C1B 7005   2.005   1.812   9.214 -0.3734  0.0914 -0.1426
  438loPI   C2B 7006   1.746   1.674   8.823  0.3003  0.1334 -0.3324
  438loPI   C3B 7007   1.716   1.384   8.445 -0.0715 -0.0171  0.0954
  438loPI   C4B 7008   1.548   1.392   8.028  0.1142  0.2716 -0.3099
  439loPI    C1 7009  18.374   3.887  10.528  0.0425 -0.0121 -0.1644
  439loPI    C2 7010  18.480   3.503  10.489 -0.0320 -0.0506  0.0005
  439loPI    C3 7011  18.675   3.739  10.746 -0.2106 -0.0687  0.1543
  439loPI   PO4 7012  18.399   3.994  10.164 -0.2171  0.1504  0.0844
  439loPI   GL1 7013  18.584   3.721   9.731  0.2690 -0.1207  0.0959
  439loPI   GL2 7014  18.145   3.737   9.708  0.0926  0.0561 -0.0539
  439loPI   C1A 7015  18.377   3.402   9.416 -0.0616  0.0462  0.2411
  439loPI   C2A 7016  18.399   3.139   9.009 -0.0380  0.2930 -0.3055
  439loPI   C3A 7017  18.353   3.045   8.652  0.0901  0.1662  0.1206
  439loPI   C4A 7018  18.220   3.256   8.315 -0.2941 -0.0135  0.1692
  439loPI   C5A 7019  18.058   3.594   8.078 -0.2001  0.1952 -0.4731
  439loPI   C6A 7020  18.008   3.910   7.740 -0.0788 -0.3112 -0.0686
  439loPI   C1B 7021  17.978   3.951   9.314  0.0070  0.4325  0.2623
  439loPI   C2B 7022  17.745   3.866   8.816 -0.4239 -0.1127 -0.5840
  439loPI   C3B 7023  17.914   3.802   8.492 -0.0137  0.2701 -0.1106
  439loPI   C4B 7024  17.779   4.085   8.161  0.0917  0.0188  0.0463
  440loPI    C1 7025  14.341  10.393   9.729  0.0401 -0.4707 -0.1693
  440loPI    C2 7026  14.157  10.447  10.080 -0.0569 -0.2223 -0.2559
  440loPI    C3 7027  14.344  10.102  10.003  0.0121 -0.2587  0.0601
  440loPI   PO4 7028  14.208  10.426   9.512 -0.2427 -0.0061 -0.3853
  440loPI   GL1 7029  14.217   9.990   9.142 -0.2564 -0.2467  0.2160
  440loPI   GL2 7030  13.943  10.099   9.263 -0.1972  0.1552  0.0308
  440loPI   C1A 7031  14.464  10.055   8.903  0.0337  0.1780  0.3970
  440loPI   C2A 7032  14.477   9.963   8.403  0.0673 -0.0502 -0.1397
  440loPI   C3A 7033  14.357   9.718   8.050  0.2039 -0.2864 -0.0049
  440loPI   C4A 7034  14.188   9.458   7.756 -0.2153  0.0358  0.0850
  440loPI   C5A 7035  13.981   9.131   7.397 -0.2537  0.3133 -0.0705
  440loPI   C6A 7036  13.741   9.207   7.129  0.1248 -0.0328  0.0056
  440loPI   C1B 7037  13.739   9.934   8.959 -0.0691 -0.0621  0.0036
  440loPI   C2B 7038  13.523  10.125   8.640  0.1634  0.2801  0.0810
  440loPI   C3B 7039  13.583  10.179   8.170  0.1487  0.0017  0.0519
  440loPI   C4B 7040  13.670  10.290   7.642 -0.1825  0.0180  0.3134
  441loPI    C1 7041   6.247  11.206   9.601 -0.2300  0.2644 -0.0393
  441loPI    C2 7042   6.136  10.838   9.715  0.3609  0.0777 -0.0330
  441loPI    C3 7043   6.269  11.100   9.986  0.3451  0.1507 -0.0952
  441loPI   PO4 7044   6.448  11.171   9.379  0.0295 -0.0494 -0.1067
  441loPI   GL1 7045   6.625  11.176   9.029  0.1057 -0.2837 -0.2792
  441loPI   GL2 7046   6.815  11.405   9.067  0.0351 -0.1544  0.1371
  441loPI   C1A 7047   6.747  11.012   8.652  0.1205 -0.2315  0.2834
  441loPI   C2A 7048   6.637  11.071   8.230  0.0833 -0.2409  0.1773
  441loPI   C3A 7049   6.428  10.861   7.765 -0.1090 -0.3860  0.0381
  441loPI   C4A 7050   6.147  10.626   7.327 -0.0085 -0.1494  0.1617
  441loPI   C5A 7051   5.893  11.049   7.076  0.1275 -0.0098 -0.1160
  441loPI   C6A 7052   5.860  11.511   6.807  0.1673  0.3545 -0.0941
  441loPI   C1B 7053   6.675  11.546   8.630 -0.0150 -0.2577 -0.1974
  441loPI   C2B 7054   6.686  11.752   8.239  0.0499  0.2094  0.1562
  441loPI   C3B 7055   6.511  11.414   7.878  0.0054  0.0671 -0.4560
  441loPI   C4B 7056   6.542  11.331   7.494 -0.3498  0.2107 -0.1481
  442loPI    C1 7057   0.454   6.361  10.914 -0.0319 -0.0717 -0.0758
  442loPI    C2 7058   0.146   6.576  11.052  0.0935  0.0169  0.0693
  442loPI    C3 7059   0.437   6.459  11.301  0.1249 -0.1558 -0.0467
  442loPI   PO4 7060   0.448   6.405  10.641 -0.1413  0.1165  0.2345
  442loPI   GL1 7061   0.441   6.306  10.180 -0.1618 -0.0885  0.4110
  442loPI   GL2 7062   0.407   6.069   9.893  0.1533  0.3553  0.1688
  442loPI   C1A 7063   0.510   6.526   9.721 -0.1309 -0.1972  0.0300
  442loPI   C2A 7064   0.616   6.518   9.233  0.0943  0.5488 -0.1875
  442loPI   C3A 7065   0.510   6.433   8.655 -0.1614  0.0401 -0.0462
  442loPI   C4A 7066   0.469   6.258   8.232 -0.0241  0.0139 -0.0087
  442loPI   C5A 7067   0.196   6.082   7.877  0.0524 -0.0850 -0.1461
  442loPI   C6A 7068  -0.111   5.762   7.744 -0.1495 -0.3089 -0.1010
  442loPI   C1B 7069   0.496   6.010   9.445 -0.2119 -0.0073  0.0082
  442loPI   C2B 7070   0.892   5.970   9.223 -0.0392 -0.2267 -0.1304
  442loPI   C3B 7071   1.365   6.016   9.148 -0.1297 -0.2086  0.1921
  442loPI   C4B 7072   1.750   5.890   8.936  0.2196 -0.0430  0.2757
  443loPI    C1 7073   7.619  12.013   9.559  0.0030 -0.1104 -0.0568
  443loPI    C2 7074   8.009  11.925   9.557 -0.0027 -0.1530  0.2059
  443loPI    C3 7075   7.888  12.302   9.497  0.0872 -0.1131  0.2731
  443loPI   PO4 7076   7.561  11.813   9.312 -0.0688  0.1655 -0.1306
  443loPI   GL1 7077   7.707  11.982   8.937 -0.1938 -0.2190 -0.0001
  443loPI   GL2 7078   7.418  12.168   8.827 -0.0909  0.0237  0.1288
  443loPI   C1A 7079   7.961  11.835   8.622  0.4067  0.0985  0.0156
  443loPI   C2A 7080   7.992  11.664   8.197 -0.1911 -0.1797  0.1554
  443loPI   C3A 7081   7.962  11.520   7.730  0.3257  0.2052  0.4148
  443loPI   C4A 7082   7.941  11.235   7.348 -0.0590 -0.2986 -0.1789
  443loPI   C5A 7083   7.619  10.905   7.197 -0.0614 -0.1002  0.1675
  443loPI   C6A 7084   7.406  10.578   7.322  0.3395 -0.2369  0.1505
  443loPI   C1B 7085   7.515  12.071   8.432 -0.0228 -0.1805  0.0227
  443loPI   C2B 7086   7.588  11.885   7.983  0.1234 -0.2593  0.2745
  443loPI   C3B 7087   7.473  11.699   7.559 -0.0296 -0.1681 -0.0811
  443loPI   C4B 7088   7.011  11.459   7.384  0.0104  0.0426 -0.1204
  444loPI    C1 7089   8.585  14.342   9.829 -0.0336  0.0819  0.0793
  444loPI    C2 7090   8.729  13.970   9.794 -0.1013  0.0708 -0.0899
  444loPI    C3 7091   8.688  14.136  10.155 -0.1744 -0.1275 -0.0060
  444loPI   PO4 7092   8.740  14.452   9.614  0.3711 -0.1474 -0.3810
  444loPI   GL1 7093   8.757  14.393   9.208  0.2407  0.0214  0.0546
  444loPI   GL2 7094   8.457  14.546   9.070 -0.0008 -0.0885  0.2474
  444loPI   C1A 7095   8.919  14.218   8.764  0.5177  0.1985  0.1680
  444loPI   C2A 7096   8.988  14.308   8.406  0.0039  0.1902 -0.2035
  444loPI   C3A 7097   9.017  14.371   7.958  0.3271  0.1777 -0.2582
  444loPI   C4A 7098   9.160  14.355   7.553  0.2060  0.2022 -0.1243
  444loPI   C5A 7099   9.300  14.418   7.215  0.2705 -0.1502 -0.3239
  444loPI   C6A 7100   9.398  14.795   6.951  0.0325 -0.0345  0.0402
  444loPI   C1B 7101   8.443  14.575   8.643  0.0774  0.2880 -0.0741
  444loPI   C2B 7102   8.557  14.418   8.185 -0.2741 -0.3473  0.0149
  444loPI   C3B 7103   8.441  14.405   7.773  0.2732 -0.1304 -0.1324
  444loPI   C4B 7104   8.270  14.357   7.400 -0.0943  0.1676 -0.0040
  445loPI    C1 7105   7.473  11.159   9.644 -0.2064  0.0871 -0.2526
  445loPI    C2 7106   7.239  10.860   9.769  0.0557  0.1027  0.3054
  445loPI    C3 7107   7.637  10.823   9.786  0.0961  0.2957 -0.0968
  445loPI   PO4 7108   7.432  11.296   9.312  0.1728 -0.2701  0.0071
  445loPI   GL1 7109   7.571  11.474   8.922 -0.0130  0.0230  0.1099
  445loPI   GL2 7110   7.912  11.472   8.944 -0.0770  0.1438 -0.0513
  445loPI   C1A 7111   7.575  11.547   8.452 -0.0285 -0.0627 -0.0924
  445loPI   C2A 7112   7.521  11.388   7.983  0.1241  0.0081 -0.1131
  445loPI   C3A 7113   7.401  11.246   7.519  0.3872  0.2060 -0.0226
  445loPI   C4A 7114   7.524  11.389   7.110 -0.2241 -0.2475  0.0629
  445loPI   C5A 7115   7.547  11.165   6.761 -0.1275  0.1860  0.1124
  445loPI   C6A 7116   7.409  11.241   6.369  0.1570  0.0259 -0.1767
  445loPI   C1B 7117   8.040  11.317   8.579 -0.2895 -0.2500 -0.1435
  445loPI   C2B 7118   8.155  11.198   8.253 -0.1414  0.3518  0.2711
  445loPI   C3B 7119   8.300  11.180   7.887 -0.1197  0.0434 -0.0081
  445loPI   C4B 7120   8.442  11.323   7.495 -0.2148 -0.1698  0.1706
  446loPI    C1 7121   8.605   7.815   9.665 -0.0565  0.0762 -0.0137
  446loPI    C2 7122   8.825   8.098   9.843  0.0245 -0.0335  0.0624
  446loPI    C3 7123   8.481   7.978  10.009 -0.1011  0.1479 -0.0637
  446loPI   PO4 7124   8.636   7.927   9.403  0.1371  0.1030 -0.0388
  446loPI   GL1 7125   8.625   7.895   8.934  0.2256 -0.2447 -0.2867
  446loPI   GL2 7126   8.808   8.242   9.052 -0.1490  0.1536 -0.1430
  446loPI   C1A 7127   8.641   8.056   8.515 -0.2229 -0.0863 -0.0599
  446loPI   C2A 7128   8.573   8.022   8.062 -0.3635  0.1106 -0.1688
  446loPI   C3A 7129   8.434   7.900   7.570 -0.5456  0.0237  0.0914
  446loPI   C4A 7130   8.225   7.943   7.111  0.1574 -0.0184 -0.0086
  446loPI   C5A 7131   7.984   7.850   6.816 -0.2698  0.0454 -0.4565
  446loPI   C6A 7132   7.522   7.675   6.738 -0.2042 -0.3137 -0.3340
  446loPI   C1B 7133   8.422   8.392   8.813  0.1484 -0.1226  0.0502
  446loPI   C2B 7134   8.230   8.373   8.365  0.0739  0.1730 -0.0471
  446loPI   C3B 7135   8.134   8.264   7.867  0.2179 -0.1233  0.1039
  446loPI   C4B 7136   8.154   8.317   7.447  0.0740  0.4251  0.1256
  447loPI    C1 7137   6.997  13.934   9.239  0.0597  0.0558  0.0347
  447loPI    C2 7138   7.001  14.258   9.474 -0.1599  0.0459  0.0542
  447loPI    C3 7139   6.661  14.144   9.296 -0.0189 -0.0070 -0.1857
  447loPI   PO4 7140   7.290  13.875   9.244 -0.2444 -0.5370  0.1759
  447loPI   GL1 7141   7.611  13.872   8.999  0.1006  0.0718 -0.0421
  447loPI   GL2 7142   7.761  13.601   8.894  0.1858  0.1502  0.1547
  447loPI   C1A 7143   7.581  14.067   8.660  0.1350  0.1550  0.0287
  447loPI   C2A 7144   7.381  14.106   8.304  0.0212  0.0943 -0.2542
  447loPI   C3A 7145   7.195  13.998   7.889 -0.2283 -0.1514 -0.0182
  447loPI   C4A 7146   7.427  13.884   7.505  0.0403 -0.1743  0.1569
  447loPI   C5A 7147   7.655  13.656   7.257  0.0311 -0.0705 -0.1568
  447loPI   C6A 7148   7.794  13.641   6.817 -0.1116 -0.0114  0.2394
  447loPI   C1B 7149   7.617  13.608   8.515  0.1916  0.1957 -0.0562
  447loPI   C2B 7150   7.599  13.734   8.128 -0.2926  0.3040 -0.1490
  447loPI   C3B 7151   7.749  14.037   7.856 -0.0478 -0.1742  0.0618
  447loPI   C4B 7152   7.809  14.212   7.424 -0.1360  0.0709 -0.2856
  448loPI    C1 7153   0.699  19.024   9.796 -0.2815  0.1099 -0.3299
  448loPI    C2 7154   0.484  19.331   9.934 -0.2179 -0.0165  0.0641
  448loPI    C3 7155   0.449  18.971  10.103 -0.1636 -0.1890 -0.2820
  448loPI   PO4 7156   0.625  18.984   9.553 -0.0862  0.1900 -0.1180
  448loPI   GL1 7157   0.967  18.787   9.255 -0.2824  0.0948 -0.1993
  448loPI   GL2 7158   0.754  18.623   9.232  0.2431  0.1122 -0.1009
  448loPI   C1A 7159   1.014  18.744   8.887  0.2164  0.1635  0.0596
  448loPI   C2A 7160   1.145  18.782   8.463  0.1364 -0.3471 -0.3102
  448loPI   C3A 7161   1.119  18.912   8.073  0.0043  0.1243 -0.1227
  448loPI   C4A 7162   1.085  18.649   7.793 -0.0506  0.3733  0.0724
  448loPI   C5A 7163   1.345  18.658   7.499  0.1376  0.1298  0.0109
  448loPI   C6A 7164   1.544  18.388   7.157 -0.2593 -0.1755 -0.2977
  448loPI   C1B 7165   0.533  18.555   8.853 -0.0927  0.1484  0.0757
  448loPI   C2B 7166   0.610  18.585   8.499 -0.4430 -0.2043  0.3095
  448loPI   C3B 7167   0.757  18.397   8.070  0.1806 -0.0515  0.4177
  448loPI   C4B 7168   0.773  18.349   7.583 -0.1683  0.0039  0.0687
  449loPI    C1 7169  16.728   3.301  10.300  0.2482  0.0446  0.0289
  449loPI    C2 7170  16.571   3.649  10.417  0.1288 -0.0556  0.1697
  449loPI    C3 7171  16.601   3.346  10.676 -0.1347 -0.2797 -0.0547
  449loPI   PO4 7172  16.525   3.202  10.154 -0.4963 -0.0056  0.0701
  449loPI   GL1 7173  16.671   3.150   9.659  0.1226 -0.0267 -0.3331
  449loPI   GL2 7174  16.431   3.309   9.608  0.1176 -0.0589  0.1263
  449loPI   C1A 7175  17.051   3.153   9.279 -0.2284  0.1316  0.2343
  449loPI   C2A 7176  17.339   3.317   9.141  0.0817 -0.0379  0.1240
  449loPI   C3A 7177  17.599   3.396   8.840  0.2887  0.1546  0.0857
  449loPI   C4A 7178  17.761   3.304   8.487 -0.1301  0.2860 -0.0456
  449loPI   C5A 7179  17.802   3.094   8.094 -0.1772 -0.0924 -0.1124
  449loPI   C6A 7180  17.663   2.961   7.715  0.1195 -0.2156 -0.0426
  449loPI   C1B 7181  16.652   3.406   9.164  0.1529 -0.0890 -0.1925
  449loPI   C2B 7182  16.900   3.408   8.885  0.0623  0.4513 -0.2298
  449loPI   C3B 7183  16.790   3.489   8.446  0.2416  0.5644  0.0515
  449loPI   C4B 7184  16.790   3.400   8.011  0.1355 -0.1541  0.1447
  450loPI    C1 7185   7.064   1.648  10.242  0.0680 -0.0773 -0.1467
  450loPI    C2 7186   7.151   2.003  10.405 -0.3367  0.0383 -0.1699
  450loPI    C3 7187   7.106   1.681  10.638 -0.0198  0.0095 -0.1441
  450loPI   PO4 7188   7.171   1.598  10.041  0.0447 -0.1842  0.0317
  450loPI   GL1 7189   7.225   1.884   9.679  0.2067  0.0361 -0.3818
  450loPI   GL2 7190   7.335   2.182   9.524 -0.1695  0.0423 -0.0557
  450loPI   C1A 7191   7.461   1.765   9.216  0.1576 -0.1547  0.4726
  450loPI   C2A 7192   7.487   1.627   8.768 -0.0118  0.3299 -0.0448
  450loPI   C3A 7193   7.472   1.346   8.409 -0.2439  0.1165  0.0941
  450loPI   C4A 7194   7.168   1.135   8.014 -0.3200  0.0034 -0.1666
  450loPI   C5A 7195   6.914   0.846   7.635 -0.0819  0.3382  0.1694
  450loPI   C6A 7196   6.613   0.827   7.315  0.3255  0.1170 -0.1729
  450loPI   C1B 7197   7.250   2.207   9.045  0.1840 -0.0066 -0.3220
  450loPI   C2B 7198   7.267   2.074   8.635 -0.1751  0.1956 -0.0128
  450loPI   C3B 7199   7.349   2.182   8.131 -0.1640 -0.1296 -0.2753
  450loPI   C4B 7200   7.459   2.326   7.729 -0.2085 -0.3519  0.1022
  451loPI    C1 7201  10.874   2.127  10.231  0.0833  0.0586  0.1806
  451loPI    C2 7202  10.609   1.869  10.382  0.1623 -0.0032  0.2142
  451loPI    C3 7203  10.623   2.244  10.520  0.0689  0.0106  0.1876
  451loPI   PO4 7204  10.790   2.111   9.961 -0.2077  0.0989 -0.2518
  451loPI   GL1 7205  10.550   2.141   9.605 -0.1210 -0.1464 -0.2726
  451loPI   GL2 7206  10.838   2.319   9.470 -0.0775 -0.2106 -0.1425
  451loPI   C1A 7207  10.400   2.269   9.242  0.2570 -0.1391 -0.2537
  451loPI   C2A 7208  10.243   2.651   8.973 -0.0708  0.2333 -0.0876
  451loPI   C3A 7209  10.219   2.711   8.556 -0.2344  0.3172 -0.2816
  451loPI   C4A 7210  10.208   2.729   8.179 -0.1741 -0.0566  0.2932
  451loPI   C5A 7211  10.239   2.784   7.688 -0.0383  0.1419 -0.2230
  451loPI   C6A 7212  10.477   2.850   7.286 -0.0806  0.0235 -0.5753
  451loPI   C1B 7213  10.798   2.112   8.980  0.0083  0.1038 -0.2004
  451loPI   C2B 7214  11.004   2.155   8.599  0.0603 -0.2367  0.4215
  451loPI   C3B 7215  11.095   2.147   8.209  0.2599 -0.0584 -0.0304
  451loPI   C4B 7216  11.458   1.988   7.914  0.2679 -0.0639  0.1877
  452loPI    C1 7217  16.512  15.214   9.849  0.1445 -0.0019 -0.1901
  452loPI    C2 7218  16.898  15.231   9.952  0.0534 -0.0355  0.1698
  452loPI    C3 7219  16.664  14.942  10.099 -0.1550  0.1019  0.1129
  452loPI   PO4 7220  16.519  15.263   9.596  0.0931  0.1246 -0.2403
  452loPI   GL1 7221  16.694  15.085   9.203  0.1533 -0.0845 -0.3775
  452loPI   GL2 7222  16.933  15.008   8.973 -0.1758  0.3508  0.0855
  452loPI   C1A 7223  16.551  15.337   8.833  0.2308 -0.1378  0.0629
  452loPI   C2A 7224  16.313  15.708   8.612 -0.4317  0.0471 -0.0941
  452loPI   C3A 7225  16.219  15.863   8.209  0.1651  0.0775  0.0436
  452loPI   C4A 7226  16.376  15.841   7.779 -0.1471  0.1213  0.1387
  452loPI   C5A 7227  16.465  15.630   7.356  0.0939  0.2586 -0.3033
  452loPI   C6A 7228  16.391  15.678   6.877  0.0025 -0.0543  0.1181
  452loPI   C1B 7229  17.140  15.104   8.524 -0.0855 -0.0359 -0.0569
  452loPI   C2B 7230  17.128  15.259   8.042  0.0501  0.1118  0.1750
  452loPI   C3B 7231  17.483  15.295   7.753 -0.1105  0.3372 -0.3200
  452loPI   C4B 7232  17.777  15.429   7.518 -0.0587 -0.0839 -0.2028
  453loPI    C1 7233   8.889  16.440   9.669  0.0666  0.1202  0.0678
  453loPI    C2 7234   8.731  16.164   9.912 -0.0838  0.0037 -0.1587
  453loPI    C3 7235   8.895  16.495  10.066  0.0245 -0.1712  0.1111
  453loPI   PO4 7236   9.081  16.239   9.473  0.2315 -0.1830  0.0093
  453loPI   GL1 7237   8.998  16.158   9.072  0.1948  0.1396 -0.4003
  453loPI   GL2 7238   8.718  16.056   9.145  0.2812  0.2906 -0.0910
  453loPI   C1A 7239   8.908  16.252   8.654 -0.1648  0.1751 -0.0492
  453loPI   C2A 7240   8.853  16.326   8.194 -0.5115  0.0978  0.0893
  453loPI   C3A 7241   9.017  16.399   7.805  0.2892  0.0141  0.0149
  453loPI   C4A 7242   9.259  16.473   7.395  0.1118  0.1419  0.2672
  453loPI   C5A 7243   9.442  16.567   7.090 -0.3129 -0.1007 -0.0519
  453loPI   C6A 7244   9.237  16.419   6.830 -0.2208 -0.2734  0.0626
  453loPI   C1B 7245   8.483  16.078   8.801 -0.0684 -0.0596  0.2442
  453loPI   C2B 7246   8.383  16.161   8.390 -0.1185  0.0576 -0.0797
  453loPI   C3B 7247   8.450  16.243   7.893 -0.0675 -0.2491 -0.0239
  453loPI   C4B 7248   8.496  16.195   7.449 -0.1470 -0.3774 -0.2197
  454loPI    C1 7249  13.809  13.726   9.631  0.0004 -0.0783 -0.0904
  454loPI    C2 7250  13.598  13.386   9.616  0.1228 -0.1590 -0.0050
  454loPI    C3 7251  13.722  13.529   9.968 -0.1359  0.1052 -0.0163
  454loPI   PO4 7252  14.061  13.719   9.518 -0.1596 -0.0238 -0.1214
  454loPI   GL1 7253  14.237  13.833   9.140 -0.0673 -0.2665 -0.5218
  454loPI   GL2 7254  14.202  13.465   9.020  0.2751  0.1357  0.0191
  454loPI   C1A 7255  13.920  13.800   8.816 -0.0427  0.0384  0.0935
  454loPI   C2A 7256  13.623  13.963   8.453 -0.1234 -0.1945  0.0971
  454loPI   C3A 7257  13.705  13.942   8.008  0.0588  0.1878 -0.0450
  454loPI   C4A 7258  13.698  13.783   7.775 -0.1685  0.1606 -0.0172
  454loPI   C5A 7259  13.482  13.671   7.301  0.0158 -0.0675  0.1806
  454loPI   C6A 7260  13.290  13.546   6.974 -0.0866 -0.3103  0.4637
  454loPI   C1B 7261  14.384  13.708   8.624  0.1942  0.0976 -0.2546
  454loPI   C2B 7262  14.611  13.831   8.391 -0.1701 -0.0525 -0.2316
  454loPI   C3B 7263  14.518  13.735   8.054  0.0009  0.0280 -0.0493
  454loPI   C4B 7264  14.616  13.703   7.717 -0.2440  0.2389  0.1235
  455loPI    C1 7265   6.583  17.744   9.674 -0.1028 -0.0977  0.0190
  455loPI    C2 7266   6.576  18.142   9.712  0.0521 -0.1089  0.1782
  455loPI    C3 7267   6.894  17.935   9.837  0.0534 -0.2663 -0.0775
  455loPI   PO4 7268   6.537  17.718   9.457  0.1582 -0.1472  0.0327
  455loPI   GL1 7269   6.707  17.701   9.010 -0.0097  0.3448  0.1441
  455loPI   GL2 7270   7.028  17.460   9.006 -0.0148 -0.1608  0.0963
  455loPI   C1A 7271   6.382  17.655   8.709 -0.0355  0.2819 -0.0990
  455loPI   C2A 7272   6.106  17.682   8.340 -0.2782 -0.1475  0.0052
  455loPI   C3A 7273   5.988  17.916   7.983 -0.0181  0.1505  0.3427
  455loPI   C4A 7274   5.640  17.901   7.691 -0.0694 -0.3464 -0.0553
  455loPI   C5A 7275   5.544  17.844   7.266 -0.1662  0.0729 -0.2827
  455loPI   C6A 7276   5.325  18.022   6.863  0.0779 -0.0899  0.1837
  455loPI   C1B 7277   7.096  17.577   8.606  0.0409  0.2740 -0.0328
  455loPI   C2B 7278   7.188  17.685   8.161 -0.1026 -0.2913  0.1518
  455loPI   C3B 7279   7.212  18.119   7.898  0.0469  0.0141  0.4759
  455loPI   C4B 7280   7.051  18.313   7.483 -0.1971  0.3104  0.1868
  456loPI    C1 7281  15.760  17.330   9.701 -0.2546  0.1222 -0.2510
  456loPI    C2 7282  15.404  17.227   9.852 -0.0952  0.0909  0.1141
  456loPI    C3 7283  15.600  17.543   9.999  0.0731  0.0490 -0.0165
  456loPI   PO4 7284  15.766  17.357   9.492  0.0854  0.1754 -0.0390
  456loPI   GL1 7285  15.737  17.080   9.190 -0.1937 -0.1099  0.0027
  456loPI   GL2 7286  15.950  16.855   9.035 -0.2223  0.4510 -0.1729
  456loPI   C1A 7287  15.810  17.161   8.682  0.2191 -0.3467 -0.0997
  456loPI   C2A 7288  15.790  16.947   8.371  0.3075  0.1068  0.5407
  456loPI   C3A 7289  15.827  17.001   7.926  0.1558 -0.1541  0.1242
  456loPI   C4A 7290  15.934  16.741   7.680  0.1191  0.2178  0.2333
  456loPI   C5A 7291  15.881  16.710   7.257 -0.1274  0.4726 -0.0347
  456loPI   C6A 7292  15.904  16.426   7.009 -0.2070 -0.1997 -0.0236
  456loPI   C1B 7293  16.085  16.619   8.648  0.0877  0.0445 -0.0240
  456loPI   C2B 7294  16.124  16.608   8.234 -0.1161  0.0831  0.1179
  456loPI   C3B 7295  16.078  16.315   7.923  0.1073 -0.2479  0.0314
  456loPI   C4B 7296  15.937  16.246   7.436 -0.1613 -0.0671 -0.3183
  457loPI    C1 7297  18.238  14.263   9.540 -0.0160  0.0799 -0.0190
  457loPI    C2 7298  18.490  14.086   9.796 -0.1117  0.2353  0.1855
  457loPI    C3 7299  18.097  14.087   9.871 -0.1560  0.1529 -0.0397
  457loPI   PO4 7300  18.348  14.257   9.307  0.0428 -0.0684 -0.2291
  457loPI   GL1 7301  18.232  14.003   8.993  0.0777 -0.2176  0.0176
  457loPI   GL2 7302  18.326  13.714   8.839  0.3096 -0.1266  0.1797
  457loPI   C1A 7303  17.891  14.100   8.712 -0.0067  0.0242 -0.0073
  457loPI   C2A 7304  17.790  14.327   8.471  0.0503 -0.0552  0.2721
  457loPI   C3A 7305  17.886  14.363   8.061  0.2229 -0.3195 -0.1272
  457loPI   C4A 7306  18.057  14.083   7.650 -0.2444  0.0147  0.1010
  457loPI   C5A 7307  18.048  13.956   7.243  0.0264  0.0275 -0.2538
  457loPI   C6A 7308  17.921  14.074   6.814 -0.1212 -0.0823  0.1369
  457loPI   C1B 7309  18.236  13.743   8.504  0.0177 -0.2459 -0.0297
  457loPI   C2B 7310  18.521  13.731   8.113 -0.1114 -0.2673 -0.1797
  457loPI   C3B 7311  18.580  13.628   7.725 -0.0308 -0.3031 -0.1715
  457loPI   C4B 7312  18.419  13.591   7.302 -0.1053  0.3487 -0.0907
  458loPI    C1 7313  18.689  12.357   9.466  0.1716 -0.0081 -0.0717
  458loPI    C2 7314  18.711  12.751   9.403 -0.2640  0.0304 -0.0081
  458loPI    C3 7315  18.713  12.608   9.776 -0.2476 -0.0173 -0.0265
  458loPI   PO4 7316  18.462  12.227   9.354  0.2492 -0.0098 -0.3358
  458loPI   GL1 7317  18.256  12.224   8.981 -0.0995  0.1203 -0.0905
  458loPI   GL2 7318  18.512  12.055   8.895 -0.2949  0.4119 -0.1134
  458loPI   C1A 7319  18.154  11.982   8.577  0.2273  0.3781 -0.0326
  458loPI   C2A 7320  18.152  11.682   8.299 -0.2683 -0.0372 -0.2613
  458loPI   C3A 7321  17.975  11.812   7.986  0.2384  0.0231  0.0543
  458loPI   C4A 7322  17.796  11.867   7.528  0.1206  0.0123 -0.2445
  458loPI   C5A 7323  17.369  11.708   7.406  0.2829 -0.0963  0.0225
  458loPI   C6A 7324  16.976  11.739   7.587  0.2669  0.2892  0.0998
  458loPI   C1B 7325  18.637  11.863   8.405  0.0449  0.1016 -0.0374
  458loPI   C2B 7326  18.649  11.683   7.940  0.1958 -0.2238  0.2111
  458loPI   C3B 7327  18.340  11.554   7.647 -0.0251 -0.0044 -0.2193
  458loPI   C4B 7328  18.328  11.783   7.292  0.2794 -0.0395 -0.0012
  459loPI    C1 7329   3.693  13.434  10.098 -0.2450 -0.0989 -0.1084
  459loPI    C2 7330   4.026  13.271  10.248 -0.2144 -0.1556 -0.2365
  459loPI    C3 7331   3.668  13.140  10.369 -0.1938  0.0813  0.0946
  459loPI   PO4 7332   3.847  13.477   9.729 -0.0556 -0.2974 -0.1553
  459loPI   GL1 7333   3.814  13.532   9.351  0.0699 -0.1809 -0.1591
  459loPI   GL2 7334   3.425  13.516   9.198  0.0167  0.0428 -0.1505
  459loPI   C1A 7335   3.716  13.293   8.892 -0.0833 -0.2283  0.1165
  459loPI   C2A 7336   3.575  12.932   8.724 -0.0938  0.2647  0.1592
  459loPI   C3A 7337   3.845  12.826   8.366 -0.1402  0.2650  0.1016
  459loPI   C4A 7338   4.177  12.777   8.092  0.3511  0.0245  0.0187
  459loPI   C5A 7339   4.193  12.795   7.661 -0.1376 -0.0728 -0.2191
  459loPI   C6A 7340   4.425  13.068   7.266  0.1276  0.1673  0.1468
  459loPI   C1B 7341   3.323  13.632   8.747 -0.1363 -0.0960 -0.3239
  459loPI   C2B 7342   3.371  13.750   8.401 -0.2027  0.1396  0.1179
  459loPI   C3B 7343   3.532  13.946   8.004 -0.1324 -0.0920  0.3264
  459loPI   C4B 7344   3.577  14.248   7.597 -0.1110 -0.0836  0.1924
  460loPI    C1 7345  17.537  16.249   9.630 -0.1410 -0.1472  0.0954
  460loPI    C2 7346  17.701  15.945   9.833  0.1159 -0.1325 -0.0848
  460loPI    C3 7347  17.826  16.320   9.898  0.1169 -0.1150 -0.1853
  460loPI   PO4 7348  17.309  16.192   9.542 -0.2771  0.2104 -0.0951
  460loPI   GL1 7349  17.288  15.860   9.200 -0.0183  0.0484 -0.0092
  460loPI   GL2 7350  16.993  15.938   9.135  0.2801  0.0041  0.0787
  460loPI   C1A 7351  17.263  15.962   8.741 -0.0764  0.1489  0.0588
  460loPI   C2A 7352  17.265  15.754   8.383  0.0504 -0.2249 -0.1591
  460loPI   C3A 7353  17.412  15.747   7.962  0.3510 -0.1624  0.0165
  460loPI   C4A 7354  17.288  15.699   7.534 -0.1534  0.2037  0.0025
  460loPI   C5A 7355  17.378  15.770   7.116 -0.4030 -0.2023 -0.2099
  460loPI   C6A 7356  17.655  15.915   6.693  0.0700  0.1297 -0.2243
  460loPI   C1B 7357  16.768  15.949   8.696  0.3172 -0.0839  0.0000
  460loPI   C2B 7358  16.713  15.924   8.242 -0.4578  0.2699 -0.0453
  460loPI   C3B 7359  16.905  15.840   7.898  0.0853 -0.1040 -0.1046
  460loPI   C4B 7360  16.804  15.386   7.712  0.1302 -0.2380  0.2104
  461loPI    C1 7361   0.886  11.169   9.323  0.1253 -0.0009  0.0131
  461loPI    C2 7362   0.895  10.770   9.296  0.1076  0.0026 -0.0472
  461loPI    C3 7363   0.892  10.946   9.655  0.2726 -0.0480 -0.0200
  461loPI   PO4 7364   0.736  11.248   9.165 -0.1919 -0.0261 -0.1141
  461loPI   GL1 7365   0.797  11.277   8.674  0.1074  0.0785 -0.1451
  461loPI   GL2 7366   0.957  10.967   8.852 -0.1154  0.2131 -0.0385
  461loPI   C1A 7367   0.900  11.325   8.282  0.6070 -0.1646 -0.0884
  461loPI   C2A 7368   0.959  11.608   7.991  0.0584  0.0930 -0.1964
  461loPI   C3A 7369   0.999  11.867   7.633  0.0783  0.3142 -0.1484
  461loPI   C4A 7370   1.050  11.968   7.280 -0.2210 -0.3458 -0.1175
  461loPI   C5A 7371   0.841  11.946   6.901  0.2898 -0.0830  0.2300
  461loPI   C6A 7372   0.918  11.668   6.607  0.1529 -0.0072 -0.0316
  461loPI   C1B 7373   1.119  10.913   8.573  0.1338 -0.1779  0.2752
  461loPI   C2B 7374   1.373  11.085   8.177  0.1574 -0.0282 -0.0876
  461loPI   C3B 7375   1.464  11.099   7.646  0.3910  0.2193  0.1048
  461loPI   C4B 7376   1.754  11.164   7.265 -0.1496 -0.0733  0.1538
  462loPI    C1 7377  11.463   4.539   9.738 -0.3135  0.0668  0.0324
  462loPI    C2 7378  11.395   4.464  10.125  0.0099  0.2019  0.1189
  462loPI    C3 7379  11.770   4.476   9.987 -0.1048  0.1049 -0.2109
  462loPI   PO4 7380  11.168   4.457   9.666 -0.0554  0.0841  0.2157
  462loPI   GL1 7381  11.063   4.387   9.212  0.1070  0.2927 -0.1487
  462loPI   GL2 7382  11.378   4.239   9.075 -0.2754  0.2414 -0.2359
  462loPI   C1A 7383  10.993   4.482   8.798 -0.0664 -0.2540  0.3286
  462loPI   C2A 7384  11.000   4.287   8.360 -0.2505  0.1435  0.1562
  462loPI   C3A 7385  11.124   4.198   7.945 -0.1818 -0.2631  0.1432
  462loPI   C4A 7386  11.068   4.121   7.534 -0.1983 -0.1927 -0.0224
  462loPI   C5A 7387  11.414   3.965   7.316  0.3816  0.0018  0.1822
  462loPI   C6A 7388  11.820   3.873   7.164 -0.5765  0.2422  0.2031
  462loPI   C1B 7389  11.422   4.113   8.640 -0.1466 -0.2921 -0.1390
  462loPI   C2B 7390  11.337   3.904   8.329 -0.0117  0.1864 -0.2980
  462loPI   C3B 7391  11.128   3.639   8.249  0.3042  0.1550 -0.1737
  462loPI   C4B 7392  11.026   3.174   8.170  0.3212 -0.2634  0.2843
  463loPI    C1 7393   9.268   6.841   9.592  0.0774  0.1087  0.1846
  463loPI    C2 7394   9.541   6.711   9.854 -0.1190 -0.2738  0.2062
  463loPI    C3 7395   9.200   6.874   9.985 -0.1388 -0.2992  0.1865
  463loPI   PO4 7396   9.336   6.640   9.399 -0.2036  0.3560  0.2325
  463loPI   GL1 7397   9.366   6.446   9.065  0.1172 -0.0799  0.1093
  463loPI   GL2 7398   9.658   6.548   8.970  0.3821 -0.1955  0.0033
  463loPI   C1A 7399   9.029   6.688   8.885  0.2252 -0.3500 -0.3460
  463loPI   C2A 7400   8.780   6.477   8.506  0.0404 -0.1491 -0.0988
  463loPI   C3A 7401   8.749   6.446   8.072 -0.2061  0.1549  0.7721
  463loPI   C4A 7402   8.906   6.349   7.630  0.0701  0.2079 -0.3446
  463loPI   C5A 7403   9.117   6.394   7.257  0.5806 -0.0288  0.2358
  463loPI   C6A 7404   9.394   6.301   6.919  0.2905  0.0893  0.0785
  463loPI   C1B 7405   9.806   6.511   8.574 -0.3567  0.4112  0.0497
  463loPI   C2B 7406   9.716   6.595   8.180 -0.1926  0.2024 -0.2853
  463loPI   C3B 7407   9.672   6.711   7.724 -0.0107 -0.0097 -0.1069
  463loPI   C4B 7408   9.588   6.457   7.334  0.0479  0.3565 -0.0138
  464loPI    C1 7409   6.350   3.136  10.226 -0.3168 -0.2548  0.2738
  464loPI    C2 7410   6.584   2.815  10.275  0.3042  0.1013 -0.2107
  464loPI    C3 7411   6.696   3.170  10.424 -0.2268  0.1684  0.0554
  464loPI   PO4 7412   6.283   3.093   9.995 -0.0159 -0.2953  0.2070
  464loPI   GL1 7413   6.404   2.808   9.651  0.0318 -0.2868  0.0059
  464loPI   GL2 7414   6.672   2.936   9.707 -0.3553  0.1572  0.1108
  464loPI   C1A 7415   6.142   3.029   9.392  0.1248 -0.0835 -0.1151
  464loPI   C2A 7416   6.054   3.185   9.053  0.1041 -0.0587  0.0364
  464loPI   C3A 7417   5.824   3.205   8.709  0.0006  0.1504 -0.0213
  464loPI   C4A 7418   5.562   3.145   8.440 -0.1469 -0.0128 -0.1511
  464loPI   C5A 7419   5.422   2.808   8.196 -0.0289 -0.1875  0.0297
  464loPI   C6A 7420   5.267   2.594   7.954  0.0883  0.0961  0.2203
  464loPI   C1B 7421   6.758   2.731   9.228 -0.0967 -0.1070 -0.2412
  464loPI   C2B 7422   6.813   2.662   8.740  0.2169 -0.0795 -0.0930
  464loPI   C3B 7423   7.023   2.477   8.439  0.1274 -0.1374 -0.2477
  464loPI   C4B 7424   7.138   2.663   7.965  0.1486 -0.0609  0.1762
  465loPI    C1 7425   8.130  11.024   9.729  0.0942  0.3182  0.0167
  465loPI    C2 7426   8.267  11.400   9.731 -0.0371  0.3667  0.0051
  465loPI    C3 7427   7.931  11.309   9.928  0.1542  0.1946  0.2582
  465loPI   PO4 7428   8.067  11.036   9.446  0.0149 -0.1044  0.0073
  465loPI   GL1 7429   7.781  11.012   9.092  0.0637  0.1103 -0.0866
  465loPI   GL2 7430   8.015  10.705   8.999 -0.3206  0.4277  0.1630
  465loPI   C1A 7431   7.519  10.998   8.707 -0.0502 -0.4536  0.1824
  465loPI   C2A 7432   7.599  11.060   8.283 -0.4193  0.0694 -0.1272
  465loPI   C3A 7433   7.842  11.037   7.893  0.2052  0.0618  0.0530
  465loPI   C4A 7434   7.926  10.764   7.590 -0.2913 -0.0030  0.0211
  465loPI   C5A 7435   8.155  10.801   7.169  0.0927 -0.4352 -0.0575
  465loPI   C6A 7436   8.149  10.632   6.830  0.1933 -0.1605 -0.2804
  465loPI   C1B 7437   8.027  10.813   8.503  0.1027 -0.0417  0.1287
  465loPI   C2B 7438   8.155  10.707   8.082  0.2140 -0.0492  0.3791
  465loPI   C3B 7439   8.429  10.616   7.645  0.3015  0.1541 -0.0783
  465loPI   C4B 7440   8.798  10.696   7.381  0.1519  0.0039  0.1380
  466loPI    C1 7441   6.364   8.694  10.283 -0.1285 -0.2328 -0.1396
  466loPI    C2 7442   6.077   8.882  10.490  0.1300 -0.0854  0.0918
  466loPI    C3 7443   6.204   8.521  10.606  0.0224 -0.1614 -0.0249
  466loPI   PO4 7444   6.311   8.691   9.999  0.1730 -0.0852 -0.0919
  466loPI   GL1 7445   5.927   8.795   9.792 -0.1713 -0.0863  0.1466
  466loPI   GL2 7446   6.030   8.463   9.692  0.1316  0.1029 -0.2271
  466loPI   C1A 7447   5.720   8.880   9.405  0.1168  0.1986 -0.0445
  466loPI   C2A 7448   5.776   8.738   8.926  0.2320  0.0426 -0.2652
  466loPI   C3A 7449   5.684   8.573   8.571 -0.1267 -0.0677 -0.0930
  466loPI   C4A 7450   5.671   8.375   8.153 -0.1010 -0.0177 -0.0562
  466loPI   C5A 7451   5.761   8.063   7.855 -0.2408 -0.1911 -0.1702
  466loPI   C6A 7452   5.718   7.660   7.841 -0.1112 -0.0650  0.0443
  466loPI   C1B 7453   5.776   8.414   9.314  0.0042  0.3519 -0.0847
  466loPI   C2B 7454   5.838   8.256   8.915  0.0142 -0.2881  0.1971
  466loPI   C3B 7455   5.759   7.984   8.462  0.3830 -0.0252  0.0021
  466loPI   C4B 7456   6.078   7.798   8.238 -0.2066 -0.0275 -0.2309
  467loPI    C1 7457   1.597  11.229   9.937  0.1151 -0.2161 -0.0391
  467loPI    C2 7458   1.798  11.463  10.191  0.0030 -0.3030  0.1317
  467loPI    C3 7459   1.556  11.177  10.331 -0.0803 -0.3350 -0.0735
  467loPI   PO4 7460   1.666  11.384   9.645  0.2794 -0.2407  0.1380
  467loPI   GL1 7461   1.671  11.417   9.309  0.0587 -0.0648  0.0401
  467loPI   GL2 7462   1.400  11.267   9.051  0.0805 -0.1853 -0.1180
  467loPI   C1A 7463   1.911  11.452   9.001  0.2195  0.1816  0.3321
  467loPI   C2A 7464   1.970  11.338   8.599  0.2875  0.1657 -0.0917
  467loPI   C3A 7465   1.943  10.976   8.276  0.0127 -0.0280  0.2568
  467loPI   C4A 7466   1.727  10.762   7.997 -0.1365 -0.0980  0.0146
  467loPI   C5A 7467   1.881  10.705   7.623  0.0069  0.0341 -0.2067
  467loPI   C6A 7468   2.238  10.465   7.335  0.2660  0.1861  0.0928
  467loPI   C1B 7469   1.617  11.012   8.803  0.0204 -0.5209 -0.2835
  467loPI   C2B 7470   1.906  10.672   8.703  0.5046 -0.1485 -0.1388
  467loPI   C3B 7471   2.082  10.520   8.245  0.0578 -0.3656 -0.3523
  467loPI   C4B 7472   2.170  10.494   7.911 -0.0416  0.3578  0.3107
  468loPI    C1 7473   6.986   6.193  10.356 -0.0058  0.1952 -0.0982
  468loPI    C2 7474   6.786   6.516  10.481 -0.2255  0.0052  0.0508
  468loPI    C3 7475   6.965   6.276  10.747  0.2924  0.2253 -0.0865
  468loPI   PO4 7476   6.719   6.046  10.044 -0.2859 -0.2412  0.3747
  468loPI   GL1 7477   6.547   5.654   9.771 -0.2159 -0.1211 -0.0419
  468loPI   GL2 7478   6.788   5.557   9.867  0.1667  0.0876  0.1126
  468loPI   C1A 7479   6.446   5.811   9.403 -0.1133 -0.4322 -0.0009
  468loPI   C2A 7480   6.360   5.729   9.081  0.0524 -0.1919 -0.0629
  468loPI   C3A 7481   6.376   5.579   8.658  0.1955 -0.0629 -0.3492
  468loPI   C4A 7482   6.312   5.714   8.213 -0.2572 -0.1637  0.0103
  468loPI   C5A 7483   6.200   5.600   7.826  0.1042  0.0986  0.1878
  468loPI   C6A 7484   5.880   5.772   7.569 -0.0281 -0.3869 -0.1446
  468loPI   C1B 7485   6.803   5.480   9.386 -0.0388  0.1769 -0.1807
  468loPI   C2B 7486   6.733   5.388   9.053 -0.0878  0.0818 -0.1464
  468loPI   C3B 7487   6.783   5.342   8.697 -0.1034 -0.0520  0.3943
  468loPI   C4B 7488   6.734   5.415   8.209  0.2940 -0.1578  0.0030
  469loPI    C1 7489  17.444  14.416   9.457 -0.0209  0.1429 -0.3093
  469loPI    C2 7490  17.791  14.614   9.439  0.1725 -0.1666 -0.0920
  469loPI    C3 7491  17.782  14.220   9.371 -0.1460 -0.1537 -0.1400
  469loPI   PO4 7492  17.217  14.631   9.305 -0.1529  0.3267  0.1902
  469loPI   GL1 7493  17.089  14.517   8.929  0.3182  0.2226 -0.2226
  469loPI   GL2 7494  17.055  14.148   8.945  0.4354 -0.2781 -0.1772
  469loPI   C1A 7495  17.332  14.488   8.484  0.0462 -0.1743  0.2493
  469loPI   C2A 7496  17.288  14.165   8.097 -0.0211 -0.0087  0.0793
  469loPI   C3A 7497  17.083  13.836   7.819  0.0369 -0.2717  0.0304
  469loPI   C4A 7498  16.761  13.904   7.488 -0.2765 -0.1968  0.1027
  469loPI   C5A 7499  16.390  13.757   7.247 -0.0475 -0.0387  0.0329
  469loPI   C6A 7500  16.289  13.580   6.851 -0.1086 -0.4701 -0.0428
  469loPI   C1B 7501  16.959  13.984   8.481  0.2341  0.2257 -0.1303
  469loPI   C2B 7502  17.201  13.643   8.251 -0.4055 -0.2482 -0.0785
  469loPI   C3B 7503  17.330  13.269   8.462  0.0799  0.0723  0.0114
  469loPI   C4B 7504  17.448  12.967   8.639  0.0486 -0.2555 -0.1634
  470loPI    C1 7505   5.123   3.420  10.439 -0.0093 -0.1105 -0.0095
  470loPI    C2 7506   5.450   3.216  10.546  0.0646  0.1730  0.3221
  470loPI    C3 7507   5.485   3.552  10.332 -0.0191  0.1405  0.2567
  470loPI   PO4 7508   4.942   3.324  10.501  0.0363  0.1975  0.0027
  470loPI   GL1 7509   4.806   3.125  10.118 -0.0662 -0.1010 -0.1326
  470loPI   GL2 7510   4.642   3.374   9.914  0.1490  0.1277  0.1810
  470loPI   C1A 7511   5.087   3.119   9.645 -0.0353 -0.0567 -0.0542
  470loPI   C2A 7512   5.003   3.162   9.245 -0.0779  0.0812  0.2948
  470loPI   C3A 7513   4.912   3.131   8.781 -0.0607 -0.1386  0.0245
  470loPI   C4A 7514   5.005   3.194   8.388 -0.0862  0.0786  0.0807
  470loPI   C5A 7515   5.141   3.241   8.060 -0.3837 -0.1180  0.3516
  470loPI   C6A 7516   4.770   3.071   7.797  0.1291  0.1089  0.1865
  470loPI   C1B 7517   4.781   3.556   9.433  0.0031 -0.0445  0.1799
  470loPI   C2B 7518   4.923   3.605   9.039 -0.0499 -0.3637 -0.1489
  470loPI   C3B 7519   4.859   3.702   8.662 -0.0897 -0.1549 -0.2389
  470loPI   C4B 7520   4.843   3.601   8.232  0.0030 -0.0377 -0.1716
  471loPI    C1 7521  14.016  16.993   9.171  0.0331 -0.0133  0.1148
  471loPI    C2 7522  13.760  16.752   9.361  0.2058 -0.2716  0.0249
  471loPI    C3 7523  14.081  16.599   9.179  0.1645 -0.0038 -0.2816
  471loPI   PO4 7524  14.049  17.187   9.358  0.2678 -0.0476  0.0867
  471loPI   GL1 7525  14.141  17.544   9.246  0.1100  0.2274 -0.0552
  471loPI   GL2 7526  13.832  17.526   9.087 -0.1554  0.0118  0.2239
  471loPI   C1A 7527  14.449  17.518   8.888 -0.1151  0.1827 -0.3986
  471loPI   C2A 7528  14.413  17.325   8.479 -0.0001  0.4468 -0.0035
  471loPI   C3A 7529  14.494  17.188   8.156 -0.0219  0.0755  0.1613
  471loPI   C4A 7530  14.288  16.920   7.913 -0.0419  0.2267  0.0792
  471loPI   C5A 7531  14.106  16.901   7.548 -0.2648  0.2371 -0.2252
  471loPI   C6A 7532  14.033  17.090   7.209 -0.2463  0.4219  0.3206
  471loPI   C1B 7533  14.002  17.280   8.724  0.0024  0.2433 -0.2896
  471loPI   C2B 7534  13.974  17.216   8.305 -0.1454  0.0066 -0.2834
  471loPI   C3B 7535  13.674  17.509   8.097  0.0059 -0.2209 -0.1946
  471loPI   C4B 7536  13.743  17.849   8.152  0.0366 -0.2034 -0.3956
  472loPI    C1 7537   3.609  17.963  10.162  0.3623  0.1044 -0.0671
  472loPI    C2 7538   3.956  17.809  10.286  0.1068 -0.2684  0.2063
  472loPI    C3 7539   3.629  17.773  10.513 -0.1513 -0.0723 -0.1252
  472loPI   PO4 7540   3.713  17.976   9.852  0.1130 -0.1643  0.1763
  472loPI   GL1 7541   3.684  17.869   9.507 -0.1338  0.0320  0.2928
  472loPI   GL2 7542   3.844  17.515   9.370  0.0302 -0.0327 -0.1382
  472loPI   C1A 7543   3.368  18.059   9.181  0.1866 -0.0395  0.1469
  472loPI   C2A 7544   3.174  17.950   8.741  0.2970  0.0125  0.1401
  472loPI   C3A 7545   3.218  17.881   8.240 -0.0647  0.1313 -0.0415
  472loPI   C4A 7546   3.024  17.775   7.842 -0.2907 -0.2993 -0.1046
  472loPI   C5A 7547   3.069  18.091   7.599 -0.0596 -0.1530  0.2594
  472loPI   C6A 7548   3.197  18.451   7.551  0.0409 -0.0338 -0.1871
  472loPI   C1B 7549   3.604  17.504   8.955  0.0509  0.1574  0.0082
  472loPI   C2B 7550   3.379  17.466   8.597  0.2753  0.0377  0.0007
  472loPI   C3B 7551   3.326  17.374   8.170  0.3644 -0.2794  0.3276
  472loPI   C4B 7552   3.527  17.681   7.882  0.4181 -0.3259 -0.3518
  473loPI    C1 7553   2.501   8.256  10.195  0.1378 -0.0892 -0.0075
  473loPI    C2 7554   2.850   8.383  10.345  0.2495 -0.3728 -0.0228
  473loPI    C3 7555   2.558   8.263  10.591  0.0707  0.0898  0.0002
  473loPI   PO4 7556   2.543   8.122  10.004 -0.1798  0.2600 -0.0434
  473loPI   GL1 7557   2.677   8.131   9.625 -0.0346  0.4130  0.3136
  473loPI   GL2 7558   2.486   7.848   9.558 -0.0679  0.3203 -0.3166
  473loPI   C1A 7559   2.500   8.266   9.191  0.1951 -0.2441 -0.0838
  473loPI   C2A 7560   2.548   8.350   8.706 -0.3048  0.1225  0.0038
  473loPI   C3A 7561   2.520   8.456   8.266 -0.1345 -0.3115 -0.0098
  473loPI   C4A 7562   2.440   8.530   7.961 -0.0263  0.0976  0.0803
  473loPI   C5A 7563   2.342   8.578   7.618  0.0251 -0.1391  0.3857
  473loPI   C6A 7564   1.977   8.814   7.342 -0.2006 -0.1967 -0.5739
  473loPI   C1B 7565   2.368   7.743   9.181  0.0597 -0.2758 -0.0169
  473loPI   C2B 7566   2.376   7.876   8.817 -0.0429  0.1560  0.0157
  473loPI   C3B 7567   2.541   7.910   8.426  0.1193  0.2827  0.0415
  473loPI   C4B 7568   2.661   8.044   7.972  0.0529  0.1252 -0.1845
  474loPI    C1 7569  16.916   9.010  10.114 -0.1833  0.3149 -0.1491
  474loPI    C2 7570  16.682   9.297  10.263 -0.2251  0.2500 -0.0888
  474loPI    C3 7571  17.070   9.286  10.359 -0.2691  0.1600  0.0831
  474loPI   PO4 7572  16.680   9.007   9.817 -0.0055  0.0118  0.3220
  474loPI   GL1 7573  16.865   9.051   9.367  0.0340  0.1311 -0.0919
  474loPI   GL2 7574  16.692   9.265   9.297  0.2971  0.0234  0.0278
  474loPI   C1A 7575  16.855   8.904   8.879  0.0832  0.2570  0.1445
  474loPI   C2A 7576  16.847   9.088   8.557 -0.0055 -0.1066  0.3089
  474loPI   C3A 7577  16.542   9.117   8.297  0.2810 -0.2032  0.3058
  474loPI   C4A 7578  16.404   9.332   7.947  0.1963 -0.2480 -0.0860
  474loPI   C5A 7579  16.412   9.215   7.531 -0.3485  0.3118 -0.2939
  474loPI   C6A 7580  16.461   9.036   7.156 -0.2489  0.2315  0.4403
  474loPI   C1B 7581  16.481   9.286   8.855 -0.0588 -0.3350 -0.1820
  474loPI   C2B 7582  16.191   9.452   8.524 -0.0081  0.1825  0.1598
  474loPI   C3B 7583  15.888   9.478   8.108  0.0598  0.0938 -0.1748
  474loPI   C4B 7584  15.424   9.496   8.086  0.0584  0.0872  0.1279
  475loPI    C1 7585   3.057   0.983  10.102  0.0196 -0.1897  0.0976
  475loPI    C2 7586   2.978   0.592  10.077  0.0991 -0.2054  0.0918
  475loPI    C3 7587   2.842   0.803  10.388 -0.2428 -0.1653 -0.0812
  475loPI   PO4 7588   2.914   1.110   9.839 -0.1824  0.0495 -0.0120
  475loPI   GL1 7589   2.921   1.319   9.529  0.1800 -0.0248 -0.0895
  475loPI   GL2 7590   3.071   1.589   9.678 -0.0262 -0.3794 -0.0565
  475loPI   C1A 7591   3.185   1.292   9.146 -0.1156 -0.1868  0.0197
  475loPI   C2A 7592   3.372   1.276   8.768  0.0932 -0.2092  0.0710
  475loPI   C3A 7593   3.616   1.310   8.331  0.1610 -0.2191 -0.2368
  475loPI   C4A 7594   3.918   1.383   8.038  0.0598 -0.1174  0.0267
  475loPI   C5A 7595   4.339   1.510   8.023  0.4155 -0.0940  0.5225
  475loPI   C6A 7596   4.536   1.620   7.669  0.0088  0.2514  0.2225
  475loPI   C1B 7597   3.247   1.773   9.488  0.2348  0.1465  0.1465
  475loPI   C2B 7598   3.267   1.783   9.038  0.0513 -0.0307 -0.1126
  475loPI   C3B 7599   3.023   1.794   8.670 -0.1680 -0.1124 -0.1086
  475loPI   C4B 7600   3.127   1.427   8.338  0.0959  0.0849  0.0384
  476loPI    C1 7601   6.280  16.103   9.544 -0.0866 -0.1882  0.1124
  476loPI    C2 7602   6.494  16.436   9.488 -0.4206  0.0090 -0.0213
  476loPI    C3 7603   6.378  16.332   9.856 -0.1256 -0.0832  0.0482
  476loPI   PO4 7604   6.132  16.084   9.354  0.0090 -0.0171 -0.0134
  476loPI   GL1 7605   6.077  15.980   8.952 -0.1792  0.0042 -0.2167
  476loPI   GL2 7606   6.388  16.034   8.804 -0.0736 -0.0491 -0.0940
  476loPI   C1A 7607   6.014  15.850   8.535  0.1874  0.0234  0.1119
  476loPI   C2A 7608   5.965  15.763   8.129 -0.0411 -0.0367  0.0020
  476loPI   C3A 7609   5.957  15.909   7.737  0.3639 -0.3001 -0.3579
  476loPI   C4A 7610   6.033  16.225   7.379 -0.2486  0.2289  0.0331
  476loPI   C5A 7611   6.229  16.321   6.970  0.4109  0.3456  0.2977
  476loPI   C6A 7612   6.052  16.618   6.689 -0.0756  0.1023  0.1845
  476loPI   C1B 7613   6.478  16.021   8.323 -0.3292 -0.1225  0.0540
  476loPI   C2B 7614   6.397  16.009   7.862 -0.1544  0.1902  0.2919
  476loPI   C3B 7615   6.476  15.964   7.464  0.1290 -0.2830 -0.1492
  476loPI   C4B 7616   6.368  15.869   7.141  0.2246 -0.0917  0.0811
  477loPI    C1 7617  17.236   6.866   9.893 -0.1596  0.1429 -0.0208
  477loPI    C2 7618  17.186   7.009  10.263 -0.0615 -0.2564  0.1521
  477loPI    C3 7619  17.412   6.685  10.203 -0.0398 -0.1692 -0.2659
  477loPI   PO4 7620  17.232   7.171   9.787  0.2314  0.4355 -0.1557
  477loPI   GL1 7621  17.419   7.325   9.472 -0.0694  0.2563 -0.0891
  477loPI   GL2 7622  17.655   7.588   9.438  0.0642 -0.0298 -0.1959
  477loPI   C1A 7623  17.503   7.106   9.145 -0.3191 -0.0398  0.1648
  477loPI   C2A 7624  17.634   7.075   8.702  0.2873 -0.2584 -0.1112
  477loPI   C3A 7625  17.645   7.193   8.244 -0.2932  0.2581  0.3170
  477loPI   C4A 7626  17.373   7.216   7.808 -0.1048  0.0156  0.3823
  477loPI   C5A 7627  17.132   7.218   7.416 -0.0264  0.2505 -0.3318
  477loPI   C6A 7628  16.686   7.299   7.331 -0.1415 -0.0740 -0.1013
  477loPI   C1B 7629  17.728   7.516   8.974 -0.0253 -0.1464  0.2330
  477loPI   C2B 7630  17.819   7.625   8.602 -0.1622 -0.1851  0.3053
  477loPI   C3B 7631  18.025   7.493   8.226  0.3121 -0.1182  0.0404
  477loPI   C4B 7632  18.021   7.204   7.914 -0.0206  0.3761 -0.2768
  478loPI    C1 7633   8.255  16.203   9.172  0.0049 -0.0343  0.2230
  478loPI    C2 7634   8.271  15.837   9.334  0.1806 -0.0619  0.1469
  478loPI    C3 7635   8.419  16.151   9.533 -0.2894  0.0283  0.3680
  478loPI   PO4 7636   7.941  16.188   9.105 -0.1147 -0.1941 -0.3524
  478loPI   GL1 7637   7.635  16.502   8.917 -0.1632 -0.1846  0.0918
  478loPI   GL2 7638   7.648  16.777   8.817 -0.3217  0.1785 -0.2178
  478loPI   C1A 7639   7.568  16.322   8.505  0.0855 -0.4269 -0.1970
  478loPI   C2A 7640   7.577  16.392   8.091 -0.3365  0.2465  0.0179
  478loPI   C3A 7641   7.523  16.588   7.828  0.2066 -0.2505  0.1176
  478loPI   C4A 7642   7.276  16.892   7.610 -0.0337  0.0122 -0.0317
  478loPI   C5A 7643   6.979  17.185   7.600 -0.2926  0.0451  0.1509
  478loPI   C6A 7644   6.644  17.142   7.290 -0.0081  0.0218 -0.0910
  478loPI   C1B 7645   7.560  16.826   8.276  0.2039 -0.2050 -0.1500
  478loPI   C2B 7646   7.613  17.083   7.992 -0.1138  0.1187  0.1751
  478loPI   C3B 7647   7.441  17.367   7.810 -0.1226  0.0994  0.0716
  478loPI   C4B 7648   7.505  17.422   7.394  0.0738  0.0176 -0.0617
  479loPI    C1 7649   8.308   0.546  10.000 -0.1856  0.1147  0.1305
  479loPI    C2 7650   8.287   0.158  10.092 -0.0054  0.0750  0.0081
  479loPI    C3 7651   8.388   0.424  10.372  0.3548 -0.0239 -0.0223
  479loPI   PO4 7652   8.504   0.531   9.763 -0.1056 -0.1912  0.0444
  479loPI   GL1 7653   8.721   0.144   9.482 -0.0455  0.2602 -0.2221
  479loPI   GL2 7654   8.538   0.297   9.248 -0.2000 -0.2044  0.1359
  479loPI   C1A 7655   8.872  -0.079   9.158  0.3051  0.2583 -0.5747
  479loPI   C2A 7656   8.892  -0.077   8.682 -0.0746  0.1107 -0.1771
  479loPI   C3A 7657   8.826  -0.083   8.239  0.3609 -0.3646  0.1134
  479loPI   C4A 7658   8.893   0.244   7.886  0.0574 -0.0408 -0.2113
  479loPI   C5A 7659   9.131   0.331   7.685 -0.1419 -0.2976 -0.1950
  479loPI   C6A 7660   9.198   0.829   7.569 -0.2754  0.0747  0.1905
  479loPI   C1B 7661   8.875   0.633   9.202  0.1976  0.2876 -0.4207
  479loPI   C2B 7662   9.214   0.765   8.839 -0.0054  0.4855  0.1782
  479loPI   C3B 7663   9.304   1.076   8.559  0.2838 -0.2654 -0.3937
  479loPI   C4B 7664   9.316   1.013   8.110  0.1094 -0.2590 -0.0552
  480loPI    C1 7665  15.799  15.096   9.447 -0.0003 -0.0133 -0.0234
  480loPI    C2 7666  16.061  15.394   9.493 -0.2573  0.2260 -0.0866
  480loPI    C3 7667  16.033  15.108   9.771  0.1487  0.1336 -0.1351
  480loPI   PO4 7668  15.550  15.213   9.448  0.1266  0.1158 -0.0644
  480loPI   GL1 7669  15.298  15.145   9.089  0.1344 -0.0266 -0.2216
  480loPI   GL2 7670  14.960  15.061   8.931 -0.1815  0.0444 -0.0101
  480loPI   C1A 7671  15.384  15.348   8.746  0.1089  0.3689  0.0009
  480loPI   C2A 7672  15.274  15.464   8.188 -0.1961  0.2155  0.0164
  480loPI   C3A 7673  15.133  15.493   7.796  0.4081  0.1377 -0.1082
  480loPI   C4A 7674  14.727  15.632   7.663 -0.0354 -0.2364 -0.0634
  480loPI   C5A 7675  14.474  15.751   7.246  0.2033  0.0612  0.2890
  480loPI   C6A 7676  14.025  15.538   7.078  0.1760  0.3049 -0.0661
  480loPI   C1B 7677  15.028  15.136   8.480  0.2133  0.2426  0.3440
  480loPI   C2B 7678  14.841  15.343   8.139  0.0781 -0.1240  0.2263
  480loPI   C3B 7679  14.621  15.195   7.882  0.2921 -0.0635  0.0888
  480loPI   C4B 7680  14.204  15.086   7.951  0.1154 -0.0131 -0.0160
  481loPI    C1 7681  19.141   9.097   9.947 -0.0681 -0.1583  0.0360
  481loPI    C2 7682  19.032   9.280   9.608  0.3285 -0.0815 -0.0551
  481loPI    C3 7683  18.978   9.463   9.960  0.0483 -0.1010 -0.0859
  481loPI   PO4 7684  19.291   8.947   9.832  0.2610 -0.4262  0.3663
  481loPI   GL1 7685  19.185   8.858   9.399 -0.0552  0.2061  0.1384
  481loPI   GL2 7686  18.918   8.924   9.221  0.1088 -0.1990  0.2901
  481loPI   C1A 7687  19.451   8.807   9.137 -0.0669  0.2235  0.0258
  481loPI   C2A 7688  19.761   8.742   9.124  0.1054  0.0689 -0.0613
  481loPI   C3A 7689  19.989   8.849   8.939  0.0095 -0.0361 -0.2456
  481loPI   C4A 7690  20.144   9.170   8.893 -0.1155 -0.0289  0.2789
  481loPI   C5A 7691  20.146   9.475   8.500  0.0559 -0.1070 -0.1417
  481loPI   C6A 7692  20.181   9.348   8.078  0.0332  0.0097 -0.1807
  481loPI   C1B 7693  19.096   9.171   8.985  0.0111  0.2712 -0.2723
  481loPI   C2B 7694  19.104   9.108   8.579  0.1543 -0.1634  0.0437
  481loPI   C3B 7695  19.301   9.095   8.207 -0.2187  0.1736  0.2773
  481loPI   C4B 7696  19.381   8.968   7.702 -0.1952  0.0467  0.1872
  482loPI    C1 7697   6.657  19.110  10.015 -0.2296 -0.0513 -0.1244
  482loPI    C2 7698   6.629  19.297  10.368  0.1690 -0.1481 -0.0362
  482loPI    C3 7699   6.619  18.898  10.352 -0.1168 -0.1379 -0.1654
  482loPI   PO4 7700   6.669  19.348   9.754 -0.0945 -0.1882  0.0711
  482loPI   GL1 7701   6.463  19.680   9.485 -0.0227  0.2440 -0.1848
  482loPI   GL2 7702   6.146  19.593   9.529  0.2479 -0.0415  0.0068
  482loPI   C1A 7703   6.368  19.598   9.045 -0.0719  0.1324  0.2296
  482loPI   C2A 7704   6.194  19.582   8.601 -0.2806  0.0811 -0.0385
  482loPI   C3A 7705   6.061  19.754   8.289 -0.0606  0.1353  0.1170
  482loPI   C4A 7706   6.129  19.903   7.965 -0.1675 -0.0192 -0.1797
  482loPI   C5A 7707   6.132  19.926   7.519  0.0502 -0.1803  0.1076
  482loPI   C6A 7708   6.174  20.238   7.151  0.2020 -0.3137  0.2454
  482loPI   C1B 7709   5.886  19.355   9.162 -0.0376 -0.0116 -0.2770
  482loPI   C2B 7710   5.705  19.354   8.732  0.1226 -0.0820 -0.0338
  482loPI   C3B 7711   5.623  19.442   8.315 -0.0471 -0.0033 -0.1109
  482loPI   C4B 7712   5.492  19.168   7.864 -0.1108 -0.3293  0.1941
  483loPI    C1 7713   2.995  14.706   9.896 -0.1867  0.0245 -0.0570
  483loPI    C2 7714   2.642  14.601  10.053  0.0211 -0.2068  0.2684
  483loPI    C3 7715   2.918  14.777  10.282  0.0689  0.1031 -0.0190
  483loPI   PO4 7716   3.020  14.824   9.606 -0.0206 -0.4067 -0.2149
  483loPI   GL1 7717   3.065  14.848   9.180  0.3429 -0.0664 -0.0666
  483loPI   GL2 7718   2.867  15.038   9.074 -0.2473 -0.0480 -0.0735
  483loPI   C1A 7719   3.340  14.744   8.860 -0.1075 -0.3075 -0.1788
  483loPI   C2A 7720   3.608  14.747   8.629 -0.0439  0.3505 -0.1528
  483loPI   C3A 7721   3.685  14.955   8.230 -0.2059  0.3015 -0.0673
  483loPI   C4A 7722   3.900  15.087   7.928 -0.1806  0.2533  0.0162
  483loPI   C5A 7723   4.006  15.263   7.616 -0.0771  0.1047  0.0211
  483loPI   C6A 7724   4.098  15.726   7.380  0.1989 -0.1371  0.1458
  483loPI   C1B 7725   2.712  14.705   8.705  0.1019 -0.2251 -0.1551
  483loPI   C2B 7726   2.749  14.658   8.286 -0.1058  0.0329  0.1300
  483loPI   C3B 7727   2.799  14.671   7.867  0.3144  0.1819  0.0658
  483loPI   C4B 7728   3.008  14.988   7.703  0.1046 -0.1171 -0.1722
  484loPI    C1 7729   8.760   2.752  10.197 -0.0462 -0.2568  0.2465
  484loPI    C2 7730   8.802   3.137  10.297  0.2588 -0.1975 -0.0919
  484loPI    C3 7731   8.874   2.851  10.567  0.1178 -0.0215  0.1353
  484loPI   PO4 7732   8.759   2.823   9.917  0.0876  0.1503 -0.2031
  484loPI   GL1 7733   8.803   2.789   9.530 -0.1054  0.0518  0.0168
  484loPI   GL2 7734   8.535   2.752   9.393  0.3318  0.0769  0.0454
  484loPI   C1A 7735   8.783   2.967   9.077 -0.2167  0.2411 -0.2572
  484loPI   C2A 7736   8.831   2.991   8.621 -0.1040 -0.0943  0.1361
  484loPI   C3A 7737   8.961   3.036   8.198 -0.1711 -0.0942 -0.0932
  484loPI   C4A 7738   9.068   3.060   7.682  0.0031 -0.0379 -0.1274
  484loPI   C5A 7739   8.975   2.903   7.332 -0.1644  0.0417  0.0051
  484loPI   C6A 7740   9.088   2.582   7.110 -0.0259  0.1495  0.0869
  484loPI   C1B 7741   8.416   2.621   8.992 -0.0019  0.0116  0.1718
  484loPI   C2B 7742   8.439   2.558   8.473  0.1949 -0.1255 -0.1291
  484loPI   C3B 7743   8.356   2.243   8.173  0.0872  0.5298  0.3691
  484loPI   C4B 7744   8.134   1.852   7.940  0.1710 -0.3581 -0.1006
  485loPI    C1 7745   0.421   9.831   9.809 -0.0520 -0.0236  0.1041
  485loPI    C2 7746   0.178   9.613   9.578  0.1729 -0.1407 -0.0263
  485loPI    C3 7747   0.217   9.526   9.967 -0.2179  0.0660  0.0647
  485loPI   PO4 7748   0.357  10.085   9.709 -0.0065 -0.0565 -0.1897
  485loPI   GL1 7749   0.365  10.002   9.290  0.0773  0.1498  0.2262
  485loPI   GL2 7750   0.024  10.081   9.336 -0.0120  0.0399  0.1313
  485loPI   C1A 7751   0.305   9.962   8.792  0.0326 -0.3527  0.0380
  485loPI   C2A 7752   0.256   9.949   8.343  0.0820  0.0751  0.2611
  485loPI   C3A 7753   0.241   9.957   7.901  0.0814 -0.6699 -0.1717
  485loPI   C4A 7754   0.312   9.976   7.510 -0.1040 -0.0095  0.2635
  485loPI   C5A 7755   0.455   9.892   7.069  0.1547  0.3815  0.1602
  485loPI   C6A 7756   0.581   9.420   6.931 -0.5838  0.1024 -0.0406
  485loPI   C1B 7757   0.156  10.414   9.027  0.1678  0.0419  0.4127
  485loPI   C2B 7758   0.397  10.415   8.576  0.0781  0.0005  0.0610
  485loPI   C3B 7759   0.482  10.342   8.187  0.0957  0.0275 -0.2889
  485loPI   C4B 7760   0.516  10.430   7.801  0.0646 -0.1841 -0.1555
  486loPI    C1 7761   3.133   3.174  10.153 -0.1466  0.0721  0.2213
  486loPI    C2 7762   2.935   3.386   9.877  0.0631  0.1205  0.1063
  486loPI    C3 7763   2.916   3.492  10.262  0.0024  0.2266  0.0744
  486loPI   PO4 7764   3.335   2.959   9.927 -0.1032 -0.1863  0.1001
  486loPI   GL1 7765   3.379   2.810   9.509  0.0579  0.1486  0.1735
  486loPI   GL2 7766   3.659   2.988   9.556  0.1478 -0.1313 -0.1063
  486loPI   C1A 7767   3.201   2.885   9.118  0.2049 -0.1871 -0.1571
  486loPI   C2A 7768   3.259   2.802   8.658 -0.1707  0.1550 -0.0725
  486loPI   C3A 7769   3.471   2.917   8.304  0.3350  0.1101 -0.1225
  486loPI   C4A 7770   3.603   2.783   7.892 -0.0255 -0.0885  0.1232
  486loPI   C5A 7771   3.859   3.014   7.643 -0.0019 -0.0560  0.1285
  486loPI   C6A 7772   4.271   3.094   7.798  0.0376  0.0148 -0.0925
  486loPI   C1B 7773   3.938   3.083   9.175  0.1942  0.3150  0.0079
  486loPI   C2B 7774   4.027   3.243   8.721  0.1397 -0.0993 -0.0314
  486loPI   C3B 7775   3.932   3.293   8.305 -0.2280  0.0476  0.1722
  486loPI   C4B 7776   3.884   3.438   7.881  0.1851 -0.0207  0.1166
  487loPI    C1 7777  14.462  18.626   9.941  0.1644  0.0338  0.0545
  487loPI    C2 7778  14.171  18.733   9.688  0.1563 -0.1519 -0.0159
  487loPI    C3 7779  14.086  18.666  10.073  0.1441 -0.0028  0.0080
  487loPI   PO4 7780  14.622  18.468   9.735  0.0543 -0.1696  0.3095
  487loPI   GL1 7781  14.746  18.214   9.304 -0.0032 -0.2676  0.0738
  487loPI   GL2 7782  15.054  18.428   9.289  0.0574 -0.3586  0.3179
  487loPI   C1A 7783  14.707  18.108   8.902  0.1715  0.0501  0.0509
  487loPI   C2A 7784  14.541  18.117   8.468  0.2399 -0.1842  0.3191
  487loPI   C3A 7785  14.532  18.134   8.054 -0.1143  0.3611  0.0068
  487loPI   C4A 7786  14.444  17.909   7.550 -0.2595  0.0020 -0.2003
  487loPI   C5A 7787  14.099  18.141   7.311  0.0073 -0.0300 -0.0105
  487loPI   C6A 7788  13.568  18.143   7.320 -0.2386 -0.2655  0.1680
  487loPI   C1B 7789  15.047  18.482   8.832  0.0695  0.4490  0.0545
  487loPI   C2B 7790  15.011  18.306   8.423 -0.0154  0.2037 -0.0996
  487loPI   C3B 7791  15.006  18.119   8.101 -0.2661 -0.4503 -0.0807
  487loPI   C4B 7792  14.980  17.912   7.682 -0.0870 -0.1383  0.3269
  488loPI    C1 7793   2.850  15.667   9.976 -0.0984 -0.5992  0.0478
  488loPI    C2 7794   2.502  15.660   9.779 -0.1172  0.4010 -0.0024
  488loPI    C3 7795   2.509  15.613  10.176 -0.2764  0.1397 -0.0285
  488loPI   PO4 7796   3.018  15.743   9.736 -0.3169  0.2364  0.0787
  488loPI   GL1 7797   3.208  15.608   9.359 -0.0916  0.2724 -0.0245
  488loPI   GL2 7798   3.580  15.728   9.329  0.2847  0.0369  0.0516
  488loPI   C1A 7799   3.414  15.226   8.993 -0.0094  0.0868  0.2223
  488loPI   C2A 7800   3.514  15.244   8.595  0.2534 -0.1902 -0.0102
  488loPI   C3A 7801   3.639  15.516   8.164 -0.1313 -0.3571  0.0427
  488loPI   C4A 7802   3.964  15.659   7.915 -0.0048 -0.1410 -0.0597
  488loPI   C5A 7803   4.255  15.678   7.872  0.2409  0.2557 -0.1870
  488loPI   C6A 7804   4.545  15.480   7.688 -0.0911  0.0059  0.2940
  488loPI   C1B 7805   3.406  15.698   8.846 -0.0358  0.1914  0.1138
  488loPI   C2B 7806   3.422  15.884   8.353 -0.1879  0.2544 -0.3316
  488loPI   C3B 7807   3.279  15.813   8.032  0.1049 -0.0021 -0.2606
  488loPI   C4B 7808   3.279  16.066   7.587 -0.0221  0.2751 -0.1367
  489loPI    C1 7809   7.489   3.921  10.407  0.2265  0.2571 -0.1106
  489loPI    C2 7810   7.839   3.870  10.594  0.1982 -0.0714 -0.1427
  489loPI    C3 7811   7.556   3.587  10.617 -0.1338  0.2660  0.0262
  489loPI   PO4 7812   7.617   3.978  10.136  0.3840 -0.2333  0.1109
  489loPI   GL1 7813   7.607   3.858   9.686  0.1607 -0.0531  0.1901
  489loPI   GL2 7814   7.253   4.057   9.718  0.0320 -0.2151 -0.0717
  489loPI   C1A 7815   7.708   3.936   9.213  0.6085  0.0486  0.0262
  489loPI   C2A 7816   7.777   3.888   8.821 -0.0670  0.0932 -0.1102
  489loPI   C3A 7817   7.666   3.711   8.550  0.1564  0.0628 -0.0994
  489loPI   C4A 7818   7.611   3.675   8.063  0.5670  0.0106  0.2683
  489loPI   C5A 7819   7.256   3.761   7.670  0.0285  0.1112  0.1334
  489loPI   C6A 7820   6.890   3.969   7.638  0.1226  0.0139  0.2859
  489loPI   C1B 7821   7.258   4.141   9.322 -0.2820 -0.0030  0.0807
  489loPI   C2B 7822   7.274   4.115   8.942  0.1979 -0.0417  0.1139
  489loPI   C3B 7823   7.156   3.994   8.514 -0.0552 -0.2026 -0.3265
  489loPI   C4B 7824   7.205   4.088   8.057  0.1903  0.2459  0.0033
  490loPI    C1 7825  13.015  15.077   9.605 -0.0444 -0.0890 -0.0099
  490loPI    C2 7826  13.305  14.833   9.732 -0.1578 -0.1406  0.1541
  490loPI    C3 7827  12.937  14.690   9.668 -0.1314 -0.0901 -0.1226
  490loPI   PO4 7828  13.135  15.155   9.359  0.2836  0.5051 -0.2883
  490loPI   GL1 7829  12.975  15.142   8.994  0.1196  0.0562  0.0624
  490loPI   GL2 7830  13.214  15.456   8.993  0.0389  0.0589 -0.0165
  490loPI   C1A 7831  13.183  14.984   8.670  0.3020  0.2423  0.2029
  490loPI   C2A 7832  13.312  14.844   8.279  0.2165  0.0485  0.1033
  490loPI   C3A 7833  13.289  14.672   7.874  0.1158 -0.0448 -0.1017
  490loPI   C4A 7834  13.404  14.631   7.388  0.3170  0.1123 -0.1273
  490loPI   C5A 7835  13.232  14.600   6.978  0.2287 -0.1656  0.0958
  490loPI   C6A 7836  12.919  14.311   6.707 -0.2035  0.0509 -0.1347
  490loPI   C1B 7837  12.986  15.540   8.523 -0.2196  0.0887 -0.0890
  490loPI   C2B 7838  12.965  15.566   8.129  0.2086 -0.0141 -0.1479
  490loPI   C3B 7839  12.998  15.727   7.720  0.3477 -0.2067  0.1217
  490loPI   C4B 7840  13.182  15.710   7.260  0.1072  0.0147 -0.1978
  491loPI    C1 7841   3.370  19.012  10.329  0.0437 -0.2196 -0.2587
  491loPI    C2 7842   3.372  18.710  10.591  0.0342 -0.1577 -0.1867
  491loPI    C3 7843   3.168  19.044  10.672  0.2802 -0.0170 -0.1345
  491loPI   PO4 7844   3.216  18.857  10.078 -0.0809 -0.1694 -0.3406
  491loPI   GL1 7845   3.264  19.035   9.634 -0.2985 -0.2127 -0.0414
  491loPI   GL2 7846   3.222  18.795   9.615 -0.1430  0.2264  0.0759
  491loPI   C1A 7847   3.419  19.257   9.248  0.0176  0.1111 -0.0058
  491loPI   C2A 7848   3.504  19.179   8.762 -0.0245  0.1758 -0.3458
  491loPI   C3A 7849   3.481  19.145   8.196  0.0658 -0.3293 -0.0318
  491loPI   C4A 7850   3.305  18.866   7.887 -0.1086 -0.0071 -0.5252
  491loPI   C5A 7851   3.383  18.870   7.448 -0.1608  0.2503  0.0008
  491loPI   C6A 7852   3.491  19.228   7.138  0.3574 -0.1964 -0.0199
  491loPI   C1B 7853   3.344  18.609   9.198 -0.0263 -0.0486  0.1025
  491loPI   C2B 7854   3.394  18.380   8.714 -0.1831 -0.3689 -0.0504
  491loPI   C3B 7855   3.321  18.440   8.315  0.0360  0.0185  0.0840
  491loPI   C4B 7856   3.393  18.233   7.978  0.2534 -0.0917 -0.1409
  492loPI    C1 7857   5.985   2.066  10.252 -0.0171 -0.1288  0.0750
  492loPI    C2 7858   5.682   1.810  10.195 -0.1240  0.0847 -0.3583
  492loPI    C3 7859   5.611   2.176  10.341 -0.0556  0.0849 -0.3248
  492loPI   PO4 7860   6.099   2.022  10.111 -0.1634 -0.1365 -0.1380
  492loPI   GL1 7861   5.951   1.904   9.706  0.1653 -0.1765 -0.1871
  492loPI   GL2 7862   5.976   1.582   9.650  0.0027 -0.0502  0.6645
  492loPI   C1A 7863   5.750   2.022   9.409 -0.0072 -0.4295  0.0031
  492loPI   C2A 7864   5.951   2.141   9.041 -0.3408  0.3927 -0.1613
  492loPI   C3A 7865   5.905   2.248   8.628 -0.0445  0.1864  0.1073
  492loPI   C4A 7866   5.927   2.463   8.304  0.0602  0.1355 -0.3818
  492loPI   C5A 7867   6.187   2.559   7.954 -0.3734  0.2409  0.2714
  492loPI   C6A 7868   6.696   2.434   7.955 -0.0256 -0.1381  0.0424
  492loPI   C1B 7869   6.089   1.633   9.228 -0.3964  0.1660  0.0720
  492loPI   C2B 7870   6.273   1.722   8.835 -0.0710 -0.0553  0.0966
  492loPI   C3B 7871   6.291   1.977   8.582  0.0042  0.0563 -0.3171
  492loPI   C4B 7872   6.357   2.141   8.145  0.0030  0.1708 -0.0696
  493loPI    C1 7873   9.878   9.283   9.580 -0.1939 -0.1190 -0.0479
  493loPI    C2 7874   9.675   9.354   9.918 -0.1006 -0.2712  0.0414
  493loPI    C3 7875  10.069   9.285   9.932 -0.0033  0.2056 -0.1488
  493loPI   PO4 7876   9.767   9.511   9.370 -0.1777  0.0238  0.0876
  493loPI   GL1 7877   9.867   9.752   9.073 -0.0892 -0.3311  0.1915
  493loPI   GL2 7878   9.587   9.851   8.986  0.0177 -0.4456 -0.0236
  493loPI   C1A 7879  10.064   9.856   8.674 -0.0312 -0.2068 -0.1512
  493loPI   C2A 7880  10.025   9.699   8.176 -0.3176 -0.2311 -0.1858
  493loPI   C3A 7881  10.034   9.769   7.780 -0.2928  0.0557  0.2366
  493loPI   C4A 7882   9.920   9.394   7.452  0.0516 -0.1430 -0.1281
  493loPI   C5A 7883  10.074   9.179   7.076  0.0290  0.2820  0.5493
  493loPI   C6A 7884   9.983   9.088   6.565  0.0498 -0.0748  0.0410
  493loPI   C1B 7885   9.476   9.357   8.818 -0.0947 -0.3605 -0.0875
  493loPI   C2B 7886   9.056   9.215   8.570  0.1565 -0.0207  0.0074
  493loPI   C3B 7887   9.030   9.290   8.098 -0.0384 -0.2061 -0.1389
  493loPI   C4B 7888   8.973   9.325   7.645  0.0421  0.4704  0.3240
  494loPI    C1 7889   1.126   9.037   9.855  0.2880 -0.0149  0.0725
  494loPI    C2 7890   1.258   8.978  10.228  0.0764 -0.1853  0.1225
  494loPI    C3 7891   0.891   9.124  10.166  0.1256 -0.1193 -0.0196
  494loPI   PO4 7892   1.502   8.954   9.772  0.0449 -0.3566  0.1278
  494loPI   GL1 7893   1.717   8.847   9.391 -0.2920  0.0516 -0.1061
  494loPI   GL2 7894   1.506   9.053   9.278 -0.0916 -0.1844 -0.0252
  494loPI   C1A 7895   1.866   8.797   8.985  0.2051  0.1555 -0.2793
  494loPI   C2A 7896   1.720   8.554   8.734 -0.2841 -0.0659 -0.6267
  494loPI   C3A 7897   1.724   8.358   8.349 -0.4773 -0.0482 -0.1604
  494loPI   C4A 7898   1.686   7.984   8.076  0.2054  0.0948 -0.0209
  494loPI   C5A 7899   1.668   7.930   7.736  0.0606 -0.1995 -0.0848
  494loPI   C6A 7900   1.915   7.861   7.316  0.0070  0.0237 -0.0080
  494loPI   C1B 7901   1.352   8.904   8.883  0.0214 -0.0550  0.2209
  494loPI   C2B 7902   1.107   8.874   8.564  0.0545 -0.3217  0.2017
  494loPI   C3B 7903   0.684   8.921   8.403 -0.2600 -0.0348  0.0565
  494loPI   C4B 7904   0.631   8.963   8.009 -0.3907 -0.1468  0.2515
  495loPI    C1 7905  13.779   7.595   9.660  0.0482  0.0421  0.1296
  495loPI    C2 7906  13.595   7.749   9.980 -0.0447  0.0849  0.0558
  495loPI    C3 7907  13.728   7.372   9.988 -0.2269  0.0201  0.0737
  495loPI   PO4 7908  13.634   7.795   9.466  0.1260 -0.1449  0.1233
  495loPI   GL1 7909  13.912   7.738   9.152 -0.0851 -0.2220 -0.1562
  495loPI   GL2 7910  14.249   7.879   9.275 -0.3279 -0.0739  0.2189
  495loPI   C1A 7911  14.021   7.711   8.802 -0.0906  0.0646 -0.2165
  495loPI   C2A 7912  13.954   7.658   8.362  0.1410  0.1557 -0.2536
  495loPI   C3A 7913  14.187   7.770   7.986  0.0484 -0.1721  0.0952
  495loPI   C4A 7914  14.149   7.820   7.656 -0.1695  0.0678 -0.1837
  495loPI   C5A 7915  14.429   7.978   7.313  0.0890  0.0040  0.0545
  495loPI   C6A 7916  14.714   8.099   7.155  0.0429  0.2172  0.4056
  495loPI   C1B 7917  14.491   7.809   8.947 -0.0510 -0.2984  0.1414
  495loPI   C2B 7918  14.581   7.690   8.553  0.2066 -0.2138 -0.2272
  495loPI   C3B 7919  14.635   7.849   8.177  0.2631  0.3062  0.4558
  495loPI   C4B 7920  14.792   8.122   7.775 -0.4392  0.3007 -0.2770
  496loPI    C1 7921  14.500   6.241   9.743  0.3299  0.1282  0.1302
  496loPI    C2 7922  14.776   6.473   9.569  0.2774  0.0797 -0.0193
  496loPI    C3 7923  14.876   6.111   9.708  0.2778  0.0405 -0.1211
  496loPI   PO4 7924  14.264   6.325   9.598  0.1150  0.0720 -0.0198
  496loPI   GL1 7925  14.396   6.435   9.282  0.1091  0.2182  0.0735
  496loPI   GL2 7926  14.519   6.803   9.220  0.1727 -0.0403 -0.1315
  496loPI   C1A 7927  14.501   6.372   8.820  0.0062 -0.0958 -0.0186
  496loPI   C2A 7928  14.822   6.376   8.552  0.0735  0.4024 -0.1619
  496loPI   C3A 7929  15.191   6.139   8.326 -0.0854 -0.1581 -0.1904
  496loPI   C4A 7930  14.891   6.013   8.009 -0.1379  0.0518  0.1797
  496loPI   C5A 7931  14.880   6.030   7.552 -0.0207  0.0406 -0.3244
  496loPI   C6A 7932  14.943   5.813   7.187 -0.2100 -0.1858  0.0083
  496loPI   C1B 7933  14.577   6.859   8.906  0.0095  0.1400 -0.3474
  496loPI   C2B 7934  14.654   6.809   8.392 -0.1562 -0.1413  0.2872
  496loPI   C3B 7935  14.734   6.511   7.980 -0.1082  0.2916 -0.2556
  496loPI   C4B 7936  14.831   6.528   7.519  0.1119 -0.0515 -0.3489
  497loPI    C1 7937  13.521  11.051   9.709  0.1324  0.0954  0.0796
  497loPI    C2 7938  13.365  11.407   9.612  0.2320  0.1591  0.1516
  497loPI    C3 7939  13.268  11.233   9.960 -0.1707 -0.0967 -0.0807
  497loPI   PO4 7940  13.818  11.128   9.599  0.2923 -0.0215 -0.0028
  497loPI   GL1 7941  13.872  10.805   9.343  0.0218  0.0250 -0.0116
  497loPI   GL2 7942  14.215  10.917   9.199 -0.2187 -0.3204 -0.1132
  497loPI   C1A 7943  13.952  10.546   8.956  0.0801  0.0381  0.2658
  497loPI   C2A 7944  14.052  10.244   8.666 -0.1110  0.2210  0.0624
  497loPI   C3A 7945  14.011   9.861   8.492  0.1359  0.2052 -0.1306
  497loPI   C4A 7946  13.891   9.711   8.111  0.0722 -0.2924 -0.1606
  497loPI   C5A 7947  13.624   9.770   7.758 -0.2056  0.2319  0.0339
  497loPI   C6A 7948  13.332   9.687   7.590 -0.0401 -0.1372 -0.0705
  497loPI   C1B 7949  14.335  11.137   8.786  0.2210  0.1173  0.3039
  497loPI   C2B 7950  14.584  11.223   8.455 -0.1459 -0.2563 -0.1535
  497loPI   C3B 7951  14.400  11.286   8.051  0.2992  0.3555  0.2163
  497loPI   C4B 7952  14.319  11.339   7.601  0.2697  0.0549 -0.2255
  498loPI    C1 7953  16.639  12.849   9.405  0.1699 -0.1177 -0.1196
  498loPI    C2 7954  16.296  12.643   9.419  0.1431 -0.0663 -0.0124
  498loPI    C3 7955  16.623  12.499   9.599  0.1290 -0.0241  0.0477
  498loPI   PO4 7956  16.747  12.932   9.243 -0.3474 -0.0686  0.0879
  498loPI   GL1 7957  16.819  12.902   8.837 -0.0271  0.2783 -0.0003
  498loPI   GL2 7958  17.040  13.186   8.908  0.0876 -0.0780 -0.1169
  498loPI   C1A 7959  16.925  12.943   8.401 -0.3683  0.2210 -0.0889
  498loPI   C2A 7960  17.094  13.015   8.066  0.0778 -0.1748  0.3269
  498loPI   C3A 7961  17.319  13.205   7.726 -0.2575  0.3943  0.1606
  498loPI   C4A 7962  17.622  13.477   7.878  0.2572  0.1294 -0.0465
  498loPI   C5A 7963  17.612  13.782   7.585 -0.1878 -0.3017 -0.2527
  498loPI   C6A 7964  17.287  14.031   7.363 -0.2127 -0.2146 -0.2575
  498loPI   C1B 7965  17.490  13.373   8.959  0.1106  0.1252  0.0290
  498loPI   C2B 7966  17.787  13.526   8.682  0.0076 -0.3166 -0.0439
  498loPI   C3B 7967  17.864  13.359   8.294  0.0218 -0.0801 -0.1535
  498loPI   C4B 7968  17.620  12.974   8.174 -0.2221 -0.2369 -0.1598
  499loPI    C1 7969   5.945   2.524  10.363 -0.1420  0.1836  0.2030
  499loPI    C2 7970   6.313   2.434  10.491 -0.1984 -0.0425  0.2097
  499loPI    C3 7971   5.995   2.330  10.709 -0.2715  0.0506  0.1480
  499loPI   PO4 7972   5.984   2.599  10.135 -0.0001 -0.0671 -0.1333
  499loPI   GL1 7973   5.880   2.680   9.740 -0.0653  0.4058 -0.0957
  499loPI   GL2 7974   5.594   2.841   9.703  0.1077 -0.3739  0.2245
  499loPI   C1A 7975   5.723   2.642   9.274 -0.0583  0.0073 -0.0407
  499loPI   C2A 7976   5.861   2.739   8.958 -0.0506  0.1026 -0.0180
  499loPI   C3A 7977   6.126   2.864   8.517  0.2612 -0.0157 -0.0365
  499loPI   C4A 7978   6.484   2.715   8.301 -0.0404 -0.0411 -0.0471
  499loPI   C5A 7979   6.527   2.901   7.980  0.2846  0.1004  0.0581
  499loPI   C6A 7980   6.511   2.825   7.514 -0.2794  0.2355  0.2727
  499loPI   C1B 7981   5.115   2.696   9.378  0.0905  0.1150  0.1896
  499loPI   C2B 7982   5.014   2.572   8.969  0.0671 -0.0627  0.2164
  499loPI   C3B 7983   5.015   2.705   8.572 -0.1325  0.1844  0.1464
  499loPI   C4B 7984   4.824   2.787   8.185  0.1595  0.1437  0.2583
  500loPI    C1 7985  12.451   0.794   9.693  0.0861 -0.0430  0.1907
  500loPI    C2 7986  12.748   0.714   9.948  0.0419 -0.0288  0.2469
  500loPI    C3 7987  12.435   0.466   9.923  0.2232 -0.2330 -0.0660
  500loPI   PO4 7988  12.641   0.865   9.423  0.1031 -0.1510 -0.2756
  500loPI   GL1 7989  12.524   0.858   9.018  0.0062 -0.1280  0.2333
  500loPI   GL2 7990  12.792   0.591   8.917 -0.0137 -0.2614  0.1992
  500loPI   C1A 7991  12.304   1.052   8.595  0.0623  0.0178  0.1558
  500loPI   C2A 7992  11.899   0.950   8.433 -0.1132  0.1489 -0.2489
  500loPI   C3A 7993  11.864   0.664   8.209  0.3077  0.0115  0.3234
  500loPI   C4A 7994  11.818   0.534   7.727 -0.1461  0.4439  0.1227
  500loPI   C5A 7995  11.784   0.161   7.630 -0.1352  0.0096  0.2136
  500loPI   C6A 7996  11.281   0.111   7.456 -0.0204 -0.0098 -0.3145
  500loPI   C1B 7997  12.677   0.696   8.557 -0.3884 -0.0203  0.0851
  500loPI   C2B 7998  12.427   0.726   8.160  0.2837 -0.3568 -0.3570
  500loPI   C3B 7999  12.169   0.867   7.873 -0.1837 -0.0592 -0.0893
  500loPI   C4B 8000  11.912   1.272   7.951 -0.1164  0.0305  0.0145
  501loPI    C1 8001   9.571   3.137  10.015  0.2942 -0.0550  0.0798
  501loPI    C2 8002   9.323   2.988  10.291 -0.2886  0.2329 -0.2693
  501loPI    C3 8003   9.551   3.305  10.377  0.1374 -0.1655  0.1234
  501loPI   PO4 8004   9.393   3.151   9.780 -0.1647 -0.1721  0.1268
  501loPI   GL1 8005   9.312   2.907   9.476  0.0259  0.0399  0.1462
  501loPI   GL2 8006   9.491   2.665   9.446 -0.1963 -0.0209 -0.4159
  501loPI   C1A 8007   9.270   3.020   9.115  0.0242 -0.2827 -0.2063
  501loPI   C2A 8008   9.281   2.775   8.791  0.2609  0.0660 -0.0829
  501loPI   C3A 8009   9.324   2.615   8.367  0.1607  0.0400 -0.2309
  501loPI   C4A 8010   9.343   2.743   8.028  0.0772  0.0746 -0.1567
  501loPI   C5A 8011   9.210   2.528   7.640  0.1530 -0.0194 -0.0601
  501loPI   C6A 8012   8.768   2.462   7.476  0.3578  0.1237  0.0016
  501loPI   C1B 8013   9.078   2.568   9.165 -0.2294  0.0726  0.0143
  501loPI   C2B 8014   8.859   2.459   8.710  0.1162  0.1650 -0.0629
  501loPI   C3B 8015   8.850   2.374   8.319 -0.2753 -0.0181 -0.3727
  501loPI   C4B 8016   8.766   2.602   7.930 -0.1179  0.0126 -0.0998
  502loPI    C1 8017   8.814  16.987   9.623 -0.2085  0.1101 -0.0202
  502loPI    C2 8018   9.148  16.949   9.840 -0.1502  0.0471 -0.1197
  502loPI    C3 8019   8.808  17.067  10.014 -0.1361 -0.1327  0.0324
  502loPI   PO4 8020   8.968  17.099   9.293 -0.2211  0.1863 -0.2645
  502loPI   GL1 8021   9.057  16.867   9.018  0.2550 -0.1003  0.2389
  502loPI   GL2 8022   8.855  16.615   9.199 -0.0581 -0.2309  0.3823
  502loPI   C1A 8023   8.992  16.848   8.582  0.0360 -0.3015 -0.0631
  502loPI   C2A 8024   9.068  16.852   8.113  0.0434 -0.2597 -0.4161
  502loPI   C3A 8025   9.253  16.925   7.811  0.3971 -0.0507 -0.2895
  502loPI   C4A 8026   9.426  16.943   7.435  0.0586  0.0069 -0.1519
  502loPI   C5A 8027   9.677  16.985   7.160 -0.0411  0.1583 -0.0413
  502loPI   C6A 8028   9.510  16.962   6.755  0.0004  0.0187 -0.1279
  502loPI   C1B 8029   8.617  16.607   8.908  0.0199 -0.0930  0.2845
  502loPI   C2B 8030   8.596  16.642   8.471  0.3414 -0.1133 -0.1710
  502loPI   C3B 8031   8.594  16.728   8.048  0.0722  0.0766  0.1370
  502loPI   C4B 8032   8.723  16.744   7.636  0.3481  0.2093  0.1058
  503loPI    C1 8033   9.370   1.511  10.375 -0.1707 -0.1746 -0.1056
  503loPI    C2 8034   9.720   1.483  10.567 -0.1483  0.1468 -0.0945
  503loPI    C3 8035   9.381   1.525  10.775 -0.1565  0.1839 -0.1150
  503loPI   PO4 8036   9.483   1.448  10.130  0.0492  0.1492 -0.1332
  503loPI   GL1 8037   9.644   1.387   9.735 -0.0020  0.0979 -0.2439
  503loPI   GL2 8038   9.650   1.128   9.564  0.3434  0.3135  0.1059
  503loPI   C1A 8039   9.613   1.595   9.258  0.0357 -0.1330 -0.0801
  503loPI   C2A 8040   9.646   1.430   8.791  0.0617  0.0448 -0.3593
  503loPI   C3A 8041   9.732   1.406   8.410  0.0100 -0.0985 -0.3159
  503loPI   C4A 8042   9.619   1.421   8.014 -0.1511  0.2591  0.2799
  503loPI   C5A 8043   9.603   1.720   7.712  0.0981  0.0712  0.4410
  503loPI   C6A 8044   9.666   2.057   7.720 -0.1558 -0.0063 -0.1751
  503loPI   C1B 8045   9.456   1.140   9.145  0.2437 -0.2989 -0.2658
  503loPI   C2B 8046   9.012   1.168   9.112  0.3359  0.3323  0.0948
  503loPI   C3B 8047   8.740   0.893   8.777  0.0355 -0.0979 -0.1726
  503loPI   C4B 8048   8.328   0.692   8.809 -0.2030 -0.2862  0.3533
  504loPI    C1 8049  13.307  12.110   9.612  0.0900  0.1947  0.0892
  504loPI    C2 8050  12.917  12.191   9.572  0.0381 -0.0759  0.0250
  504loPI    C3 8051  13.076  12.145   9.936  0.0161  0.0589  0.0521
  504loPI   PO4 8052  13.382  11.930   9.509  0.1998  0.0224 -0.1624
  504loPI   GL1 8053  13.374  11.605   9.193 -0.1504  0.2139  0.2586
  504loPI   GL2 8054  13.680  11.325   9.170  0.1546 -0.0426  0.1908
  504loPI   C1A 8055  13.278  11.670   8.756 -0.1067  0.0879  0.2042
  504loPI   C2A 8056  13.188  11.547   8.313  0.2946 -0.1194 -0.0657
  504loPI   C3A 8057  13.117  11.706   7.964  0.1682 -0.0887  0.0503
  504loPI   C4A 8058  12.753  11.900   7.740 -0.2404  0.1946  0.1863
  504loPI   C5A 8059  12.402  11.942   7.635 -0.3393 -0.1424 -0.1508
  504loPI   C6A 8060  12.222  12.183   7.334  0.4360 -0.4064  0.2069
  504loPI   C1B 8061  13.859  11.036   8.893  0.2800 -0.0595  0.1838
  504loPI   C2B 8062  14.001  11.020   8.444  0.0297  0.0701 -0.0393
  504loPI   C3B 8063  13.910  11.385   8.034  0.0638 -0.2579  0.2727
  504loPI   C4B 8064  13.842  11.166   7.609  0.1649  0.1925  0.3122
  505loPI    C1 8065   4.647  17.664   9.938  0.1212  0.2456  0.1942
  505loPI    C2 8066   4.967  17.678   9.699  0.0455 -0.0105  0.0744
  505loPI    C3 8067   5.014  17.646  10.095  0.1689 -0.2426  0.0428
  505loPI   PO4 8068   4.484  17.433   9.826 -0.1806 -0.0166 -0.1426
  505loPI   GL1 8069   4.577  17.360   9.351  0.1888 -0.1351  0.1465
  505loPI   GL2 8070   4.235  17.242   9.462  0.0655  0.0100 -0.0120
  505loPI   C1A 8071   4.528  17.470   8.945  0.1725 -0.1943 -0.1041
  505loPI   C2A 8072   4.350  17.615   8.485 -0.1078 -0.1797  0.0930
  505loPI   C3A 8073   4.188  17.745   8.118  0.1263 -0.2377 -0.2350
  505loPI   C4A 8074   4.294  17.584   7.840 -0.0543  0.0339  0.2165
  505loPI   C5A 8075   4.074  17.642   7.492  0.2727 -0.2281 -0.2528
  505loPI   C6A 8076   3.561  17.744   7.354 -0.2230  0.0256 -0.2097
  505loPI   C1B 8077   4.069  17.215   9.042 -0.0875  0.1277 -0.2306
  505loPI   C2B 8078   3.963  17.376   8.640  0.0665 -0.1925  0.1149
  505loPI   C3B 8079   4.030  17.251   8.223  0.0768 -0.4385 -0.3782
  505loPI   C4B 8080   3.841  17.339   7.815 -0.1078 -0.2117  0.3750
  506loPI    C1 8081  12.248   6.218   9.931 -0.0903 -0.0913 -0.1749
  506loPI    C2 8082  12.457   6.278  10.266 -0.1049 -0.2276 -0.1408
  506loPI    C3 8083  12.143   6.031  10.268 -0.0685 -0.2756 -0.2690
  506loPI   PO4 8084  12.379   6.149   9.743 -0.1341 -0.3469  0.1624
  506loPI   GL1 8085  12.304   6.119   9.305  0.2373  0.2944 -0.0043
  506loPI   GL2 8086  12.060   5.846   9.254  0.1929 -0.3802  0.0652
  506loPI   C1A 8087  12.192   6.244   8.953  0.2459  0.5278  0.2445
  506loPI   C2A 8088  12.087   6.206   8.573  0.1335 -0.0325  0.2782
  506loPI   C3A 8089  11.977   6.104   8.136  0.1267  0.2981  0.2027
  506loPI   C4A 8090  11.767   6.137   7.826 -0.1671 -0.2754  0.4332
  506loPI   C5A 8091  11.543   5.856   7.506  0.3387  0.2555 -0.2454
  506loPI   C6A 8092  11.443   5.449   7.406 -0.1067 -0.3076  0.0777
  506loPI   C1B 8093  12.395   5.746   8.884  0.3555  0.0582 -0.0591
  506loPI   C2B 8094  12.270   5.701   8.484 -0.0400 -0.2745  0.0235
  506loPI   C3B 8095  12.160   5.436   8.175 -0.2455 -0.2058  0.2700
  506loPI   C4B 8096  12.274   5.137   7.718  0.2148  0.2947 -0.1534
  507loPI    C1 8097   2.514   8.755  10.221  0.0507 -0.0189 -0.0689
  507loPI    C2 8098   2.188   8.593  10.388  0.1186 -0.1738 -0.0839
  507loPI    C3 8099   2.465   8.767  10.618 -0.0656  0.1325 -0.0868
  507loPI   PO4 8100   2.420   8.926  10.009 -0.2444  0.2407 -0.0609
  507loPI   GL1 8101   2.491   8.935   9.596 -0.0842 -0.1303  0.1477
  507loPI   GL2 8102   2.280   8.761   9.411 -0.2658  0.0929 -0.2982
  507loPI   C1A 8103   2.726   9.026   9.314  0.0377 -0.1591  0.1757
  507loPI   C2A 8104   2.722   9.101   8.947 -0.3050  0.1179 -0.2838
  507loPI   C3A 8105   2.650   8.874   8.584  0.2717 -0.0204  0.0816
  507loPI   C4A 8106   2.526   9.025   8.152 -0.0919  0.0702  0.1913
  507loPI   C5A 8107   2.419   9.068   7.771  0.0985 -0.2017 -0.3302
  507loPI   C6A 8108   2.087   9.249   7.531  0.2570 -0.1373  0.0932
  507loPI   C1B 8109   2.419   8.735   9.064 -0.1372  0.2085  0.0609
  507loPI   C2B 8110   2.176   8.726   8.586 -0.0385  0.1523  0.0206
  507loPI   C3B 8111   2.065   8.903   8.194  0.1345  0.2758  0.0155
  507loPI   C4B 8112   1.977   9.263   8.103 -0.2846  0.1718  0.2402
  508loPI    C1 8113  13.037  13.014   9.656  0.0684  0.0261 -0.0901
  508loPI    C2 8114  12.693  13.196   9.751  0.0166 -0.1311  0.0293
  508loPI    C3 8115  12.696  12.804   9.668  0.2383 -0.2379  0.5083
  508loPI   PO4 8116  13.176  13.112   9.495 -0.2394 -0.0080  0.1457
  508loPI   GL1 8117  13.269  13.082   9.041 -0.0584 -0.2411 -0.0743
  508loPI   GL2 8118  13.075  12.875   8.857 -0.0068  0.1082  0.2300
  508loPI   C1A 8119  13.321  13.150   8.540  0.0393  0.1235  0.0964
  508loPI   C2A 8120  13.225  13.133   8.080  0.0957 -0.4105 -0.1123
  508loPI   C3A 8121  13.087  13.140   7.809 -0.0214  0.2395  0.1291
  508loPI   C4A 8122  13.140  13.065   7.434 -0.1643 -0.1072 -0.3258
  508loPI   C5A 8123  12.910  13.159   7.043 -0.2692 -0.1275  0.1511
  508loPI   C6A 8124  13.104  13.232   6.637  0.2117  0.1319 -0.1749
  508loPI   C1B 8125  12.775  12.938   8.566  0.0559  0.1982 -0.0944
  508loPI   C2B 8126  12.688  12.854   8.190  0.1360  0.1348  0.1482
  508loPI   C3B 8127  12.575  12.897   7.823 -0.0956 -0.1094  0.3664
  508loPI   C4B 8128  12.217  12.916   7.568  0.1150  0.1325 -0.1695
  509loPI    C1 8129  17.330   4.002  10.646  0.0240 -0.2106  0.0543
  509loPI    C2 8130  17.621   4.049  10.915  0.1994 -0.0102 -0.1655
  509loPI    C3 8131  17.321   4.313  10.898  0.0387 -0.1779  0.0146
  509loPI   PO4 8132  17.468   3.904  10.453 -0.1241  0.2057 -0.3500
  509loPI   GL1 8133  17.469   3.920  10.025 -0.0903  0.0899 -0.0503
  509loPI   GL2 8134  17.193   4.115   9.953  0.1932  0.0696  0.0592
  509loPI   C1A 8135  17.498   3.808   9.568  0.1250  0.3034 -0.1123
  509loPI   C2A 8136  17.491   3.897   9.227  0.0859  0.0332  0.3581
  509loPI   C3A 8137  17.257   3.777   8.902  0.0467 -0.1139  0.0326
  509loPI   C4A 8138  17.337   3.683   8.483  0.1423 -0.1606  0.5526
  509loPI   C5A 8139  17.460   3.576   8.097 -0.1893  0.0354  0.1178
  509loPI   C6A 8140  17.233   3.345   7.788 -0.1521  0.0180  0.0919
  509loPI   C1B 8141  16.977   4.044   9.508 -0.1095  0.0244  0.1070
  509loPI   C2B 8142  16.984   4.171   9.237  0.1336 -0.0829  0.3471
  509loPI   C3B 8143  17.266   4.337   9.031 -0.1317  0.0349  0.0782
  509loPI   C4B 8144  17.457   4.193   8.584  0.1195 -0.0296  0.1733
  510loPI    C1 8145  18.753   0.333  10.140  0.2693 -0.1879 -0.0769
  510loPI    C2 8146  18.987   0.572  10.360  0.0812 -0.0962  0.0261
  510loPI    C3 8147  18.626   0.465  10.496 -0.0104 -0.0917 -0.2093
  510loPI   PO4 8148  18.720   0.418   9.852  0.0357 -0.1490  0.1162
  510loPI   GL1 8149  18.821   0.398   9.395  0.2670  0.1720  0.1877
  510loPI   GL2 8150  19.091   0.554   9.303  0.1894  0.0239  0.1931
  510loPI   C1A 8151  18.590   0.268   9.096  0.0212  0.3125 -0.3410
  510loPI   C2A 8152  18.494   0.478   8.645 -0.1691 -0.0804  0.1201
  510loPI   C3A 8153  18.538   0.648   8.212  0.0985  0.0287 -0.0382
  510loPI   C4A 8154  18.797   0.847   7.921 -0.1981  0.0637  0.2018
  510loPI   C5A 8155  18.733   1.005   7.541  0.0948  0.1145 -0.2243
  510loPI   C6A 8156  18.640   1.238   7.186 -0.2707  0.0440 -0.1088
  510loPI   C1B 8157  18.974   0.656   8.939  0.3140 -0.1046 -0.2143
  510loPI   C2B 8158  19.006   0.724   8.431 -0.0242 -0.3146 -0.4739
  510loPI   C3B 8159  19.136   0.522   7.999 -0.0014 -0.0404 -0.0682
  510loPI   C4B 8160  19.214   0.651   7.521  0.1183 -0.2390  0.3145
  511loPI    C1 8161   7.348   8.621   9.876  0.2729  0.1094  0.1491
  511loPI    C2 8162   7.690   8.790   9.755  0.3441 -0.1241  0.0181
  511loPI    C3 8163   7.693   8.525  10.054  0.2452  0.0368  0.1636
  511loPI   PO4 8164   7.227   8.470   9.646 -0.0934  0.1048 -0.1482
  511loPI   GL1 8165   7.235   8.581   9.212 -0.0148  0.0169 -0.1236
  511loPI   GL2 8166   7.545   8.765   9.307  0.2831 -0.2413 -0.0489
  511loPI   C1A 8167   7.135   8.535   8.756 -0.0289 -0.0215 -0.0820
  511loPI   C2A 8168   7.295   8.465   8.349  0.3478  0.0617 -0.1160
  511loPI   C3A 8169   7.240   8.485   7.976 -0.0328 -0.0899  0.1104
  511loPI   C4A 8170   7.366   8.766   7.632 -0.0064  0.1532 -0.0326
  511loPI   C5A 8171   7.673   9.119   7.671 -0.2716  0.0177  0.1702
  511loPI   C6A 8172   7.855   9.320   7.367  0.0146 -0.0120 -0.0578
  511loPI   C1B 8173   7.573   8.811   8.716  0.0001 -0.0133  0.0646
  511loPI   C2B 8174   7.650   8.880   8.380  0.4472 -0.5820 -0.2720
  511loPI   C3B 8175   7.484   8.933   8.077  0.0345 -0.2337 -0.1582
  511loPI   C4B 8176   7.214   9.159   7.872  0.2169 -0.0317 -0.2917
  512loPI    C1 8177   3.616  12.904   9.297  0.1042  0.0893  0.0655
  512loPI    C2 8178   3.442  12.641   9.543  0.2766 -0.1820 -0.0972
  512loPI    C3 8179   3.217  12.887   9.322  0.1085 -0.2956 -0.0551
  512loPI   PO4 8180   3.881  12.697   9.345 -0.0287  0.2188 -0.3165
  512loPI   GL1 8181   4.155  12.631   9.067  0.1321  0.3846  0.2753
  512loPI   GL2 8182   4.014  12.845   8.857  0.0598 -0.0993 -0.1932
  512loPI   C1A 8183   4.494  12.394   8.870  0.0967  0.1664 -0.0144
  512loPI   C2A 8184   4.586  12.229   8.495 -0.1430 -0.0354 -0.1280
  512loPI   C3A 8185   4.725  12.304   8.108 -0.2012 -0.1606  0.0671
  512loPI   C4A 8186   4.667  12.463   7.684 -0.1235  0.3202 -0.1206
  512loPI   C5A 8187   4.447  12.499   7.293  0.0324  0.1368 -0.2428
  512loPI   C6A 8188   4.319  12.244   6.880 -0.0411 -0.1228  0.1525
  512loPI   C1B 8189   4.164  12.551   8.569  0.1810  0.1591 -0.0830
  512loPI   C2B 8190   4.120  12.195   8.281  0.0334 -0.1464  0.2044
  512loPI   C3B 8191   4.237  12.138   7.786  0.1896 -0.0156  0.2015
  512loPI   C4B 8192   4.017  12.204   7.349  0.1757  0.2602 -0.2682
  513loPI    C1 8193   5.394   6.535  10.013  0.3153  0.1030 -0.0526
  513loPI    C2 8194   5.340   6.616  10.401  0.0771 -0.1820 -0.0218
  513loPI    C3 8195   5.461   6.904  10.151 -0.3791  0.1684  0.1476
  513loPI   PO4 8196   5.190   6.207  10.114  0.2779 -0.1154 -0.2450
  513loPI   GL1 8197   4.967   6.207   9.716  0.0870  0.2177 -0.2348
  513loPI   GL2 8198   5.223   6.023   9.629  0.4519 -0.1771  0.0684
  513loPI   C1A 8199   4.780   6.473   9.443 -0.1865  0.2136 -0.0193
  513loPI   C2A 8200   4.508   6.606   9.049 -0.1169  0.4833 -0.2609
  513loPI   C3A 8201   4.406   6.610   8.650 -0.3812  0.0437  0.0280
  513loPI   C4A 8202   4.414   6.685   8.317 -0.0481 -0.2837 -0.0233
  513loPI   C5A 8203   4.674   6.832   7.913  0.1203 -0.0575  0.1594
  513loPI   C6A 8204   4.960   7.074   7.745  0.0717  0.2676 -0.3696
  513loPI   C1B 8205   5.429   6.041   9.226  0.1739 -0.1857  0.2020
  513loPI   C2B 8206   5.554   6.157   8.880 -0.1365 -0.2768 -0.2260
  513loPI   C3B 8207   5.367   6.224   8.495  0.0299 -0.4094  0.2736
  513loPI   C4B 8208   5.328   6.181   8.067 -0.0806  0.1396  0.1362
  514loPI    C1 8209  10.328  18.853   9.822  0.1307 -0.3184  0.0981
  514loPI    C2 8210  10.131  18.902  10.167  0.0076  0.0843 -0.0238
  514loPI    C3 8211  10.528  18.853  10.168 -0.0142 -0.1023  0.1840
  514loPI   PO4 8212  10.181  18.721   9.702  0.0938 -0.2873 -0.4892
  514loPI   GL1 8213   9.887  18.753   9.307 -0.1906 -0.1135 -0.1758
  514loPI   GL2 8214   9.659  18.599   9.297  0.0231  0.5935 -0.0877
  514loPI   C1A 8215  10.146  18.534   9.046  0.0480  0.3795  0.0611
  514loPI   C2A 8216  10.129  18.673   8.520  0.1097 -0.0211  0.1917
  514loPI   C3A 8217  10.216  18.643   8.144  0.2323  0.1778 -0.1534
  514loPI   C4A 8218  10.472  18.799   7.776  0.0757  0.2372  0.0236
  514loPI   C5A 8219  10.134  18.721   7.401 -0.3049  0.1515  0.0178
  514loPI   C6A 8220  10.080  18.326   7.190 -0.4594  0.0037  0.2490
  514loPI   C1B 8221   9.661  18.629   8.848 -0.0367  0.2090 -0.0682
  514loPI   C2B 8222   9.620  18.548   8.349 -0.2592  0.2756  0.2879
  514loPI   C3B 8223   9.394  18.459   7.980 -0.3324 -0.1727  0.4469
  514loPI   C4B 8224   9.163  18.239   7.707  0.0439 -0.3154 -0.1618
  515loPI    C1 8225   9.460   5.839   9.946 -0.1539  0.1758  0.2141
  515loPI    C2 8226   9.360   5.564  10.219  0.0625 -0.0424  0.0770
  515loPI    C3 8227   9.613   5.859  10.315  0.0399 -0.0460  0.1479
  515loPI   PO4 8228   9.288   5.872   9.813 -0.1482 -0.2711  0.1022
  515loPI   GL1 8229   9.005   5.723   9.506 -0.0954  0.0287 -0.1212
  515loPI   GL2 8230   9.170   5.922   9.229  0.2750  0.1051 -0.0922
  515loPI   C1A 8231   8.565   5.879   9.198  0.5951 -0.4591  0.1066
  515loPI   C2A 8232   8.234   6.165   8.932 -0.4963 -0.1787 -0.0143
  515loPI   C3A 8233   8.257   6.376   8.537  0.1914 -0.2226  0.2355
  515loPI   C4A 8234   8.266   6.679   8.276  0.3319 -0.0171  0.0032
  515loPI   C5A 8235   8.235   6.565   7.916  0.1370  0.1712  0.4595
  515loPI   C6A 8236   8.404   6.341   7.588  0.0631  0.2019  0.2778
  515loPI   C1B 8237   9.393   6.012   8.883 -0.2629  0.0964  0.1432
  515loPI   C2B 8238   9.462   6.106   8.471 -0.0102 -0.1936  0.1204
  515loPI   C3B 8239   9.395   6.117   8.062  0.0231 -0.1733  0.2910
  515loPI   C4B 8240   9.519   5.773   7.882  0.3003 -0.0654 -0.1443
  516loPI    C1 8241  18.293  11.098   9.809 -0.1620  0.1269 -0.0648
  516loPI    C2 8242  18.300  11.397  10.074 -0.0012  0.2091 -0.1600
  516loPI    C3 8243  18.642  11.262   9.916 -0.0687 -0.0567 -0.0833
  516loPI   PO4 8244  18.060  11.159   9.653 -0.0987 -0.1798 -0.1574
  516loPI   GL1 8245  17.962  11.283   9.230  0.1747  0.0780  0.2585
  516loPI   GL2 8246  17.589  11.246   9.192 -0.1365 -0.0561 -0.2706
  516loPI   C1A 8247  17.917  11.310   8.792 -0.1825 -0.1467 -0.0914
  516loPI   C2A 8248  17.872  11.320   8.442 -0.2551  0.1499  0.1417
  516loPI   C3A 8249  18.021  11.192   8.024 -0.1199  0.2641 -0.0457
  516loPI   C4A 8250  18.064  11.125   7.661  0.1522  0.2086  0.0787
  516loPI   C5A 8251  18.026  11.333   7.279 -0.0618 -0.0646  0.0509
  516loPI   C6A 8252  17.785  11.641   7.101 -0.0193 -0.0809  0.0353
  516loPI   C1B 8253  17.408  11.317   8.810  0.0145  0.2928  0.2480
  516loPI   C2B 8254  17.369  11.474   8.408 -0.2094  0.3889  0.0242
  516loPI   C3B 8255  17.536  11.477   8.002  0.0847  0.2709  0.0052
  516loPI   C4B 8256  17.660  11.368   7.617 -0.2890 -0.0147  0.0211
  517loPI    C1 8257   9.827   0.625  10.244 -0.0590  0.1043  0.0029
  517loPI    C2 8258   9.540   0.710   9.978 -0.2169 -0.1762  0.0791
  517loPI    C3 8259   9.602   0.953  10.289 -0.1924  0.0256 -0.0811
  517loPI   PO4 8260   9.874   0.357  10.105  0.2308 -0.1856 -0.1921
  517loPI   GL1 8261   9.685   0.297   9.669  0.0325  0.1399 -0.0341
  517loPI   GL2 8262   9.837   0.585   9.442  0.0826 -0.0701  0.1958
  517loPI   C1A 8263   9.912   0.073   9.307 -0.0528 -0.0774 -0.1399
  517loPI   C2A 8264   9.938  -0.082   8.870  0.0562  0.3617  0.1416
  517loPI   C3A 8265   9.779  -0.138   8.448  0.1864  0.0711  0.2405
  517loPI   C4A 8266   9.723  -0.326   7.933 -0.0913 -0.0077  0.1201
  517loPI   C5A 8267   9.782  -0.283   7.545 -0.0913 -0.2409  0.1472
  517loPI   C6A 8268   9.685  -0.289   7.108 -0.1311  0.0117  0.0890
  517loPI   C1B 8269   9.615   0.478   9.123  0.0113 -0.1496  0.3267
  517loPI   C2B 8270   9.592   0.379   8.757 -0.0634 -0.1681  0.1932
  517loPI   C3B 8271   9.532   0.520   8.354  0.3304  0.0348  0.2845
  517loPI   C4B 8272   9.521   0.604   7.952  0.0887 -0.1263 -0.0138
  518loPI    C1 8273  12.367   4.365  10.112 -0.0876  0.1222 -0.0625
  518loPI    C2 8274  12.086   4.367  10.397 -0.0786 -0.2563 -0.0462
  518loPI    C3 8275  12.397   4.117  10.424  0.1189 -0.0324 -0.2026
  518loPI   PO4 8276  12.204   4.347   9.782 -0.2099  0.0628 -0.2858
  518loPI   GL1 8277  12.179   4.125   9.413  0.4058  0.0491  0.0831
  518loPI   GL2 8278  12.453   4.239   9.216 -0.4020  0.1178  0.2411
  518loPI   C1A 8279  11.905   4.284   8.966 -0.0195  0.0893 -0.1600
  518loPI   C2A 8280  12.217   4.403   8.738 -0.3350 -0.3154 -0.4555
  518loPI   C3A 8281  12.318   4.261   8.216 -0.1765 -0.0058 -0.1051
  518loPI   C4A 8282  12.619   4.209   7.782  0.2061 -0.0724  0.1311
  518loPI   C5A 8283  12.730   3.811   7.628  0.0880  0.0439 -0.0333
  518loPI   C6A 8284  13.025   3.727   7.394  0.1305 -0.1615 -0.0320
  518loPI   C1B 8285  12.637   4.154   8.709  0.1717 -0.0995 -0.0906
  518loPI   C2B 8286  12.772   4.356   8.446  0.0811  0.2609  0.0173
  518loPI   C3B 8287  12.721   4.609   8.081  0.0300 -0.0781 -0.0956
  518loPI   C4B 8288  12.839   4.567   7.569  0.0652  0.1463 -0.1206
  519loPI    C1 8289   9.147   0.017  10.201 -0.0414  0.0178 -0.0896
  519loPI    C2 8290   9.366   0.342  10.282 -0.1418  0.0181  0.1929
  519loPI    C3 8291   8.969   0.350  10.332 -0.2310  0.0577 -0.4372
  519loPI   PO4 8292   9.275  -0.014   9.831  0.1742 -0.1245  0.0485
  519loPI   GL1 8293   9.288   0.146   9.393 -0.0007 -0.2324 -0.0367
  519loPI   GL2 8294   9.429  -0.157   9.413 -0.0181  0.0927  0.0763
  519loPI   C1A 8295   9.182   0.261   8.950  0.3773  0.0164  0.1070
  519loPI   C2A 8296   8.828   0.404   8.762 -0.5140 -0.0452  0.1301
  519loPI   C3A 8297   9.040   0.570   8.353 -0.1200  0.1910  0.0922
  519loPI   C4A 8298   8.814   0.773   8.085 -0.1180 -0.1908  0.1555
  519loPI   C5A 8299   8.608   0.911   7.673 -0.1312 -0.1091  0.3028
  519loPI   C6A 8300   8.257   1.025   7.549  0.2142  0.5225 -0.0790
  519loPI   C1B 8301   9.493  -0.156   9.040  0.1498 -0.1259  0.2947
  519loPI   C2B 8302   9.323  -0.203   8.718 -0.3644 -0.0926 -0.3055
  519loPI   C3B 8303   9.274   0.121   8.453  0.1381  0.0264 -0.1022
  519loPI   C4B 8304   9.358   0.139   8.086  0.0312 -0.3084 -0.0482
  520loPI    C1 8305   7.197  14.824   9.616 -0.1267  0.2162 -0.0818
  520loPI    C2 8306   7.325  15.161   9.788 -0.0407  0.0929  0.0990
  520loPI    C3 8307   6.947  15.041   9.841 -0.0850  0.1849 -0.0049
  520loPI   PO4 8308   7.220  14.812   9.358 -0.1749 -0.2939  0.1661
  520loPI   GL1 8309   7.269  14.952   8.972  0.3008 -0.0859  0.0650
  520loPI   GL2 8310   7.022  15.073   8.863  0.1682 -0.0698  0.0856
  520loPI   C1A 8311   7.489  15.347   8.696  0.3287  0.0421  0.2443
  520loPI   C2A 8312   7.447  15.420   8.255  0.0034 -0.4100  0.1024
  520loPI   C3A 8313   7.305  15.483   7.850 -0.0886  0.1712 -0.0011
  520loPI   C4A 8314   7.378  15.455   7.470 -0.1978  0.2356 -0.2534
  520loPI   C5A 8315   7.290  15.248   7.090 -0.3551 -0.0354 -0.1310
  520loPI   C6A 8316   7.476  14.925   6.887 -0.0306  0.0197  0.2006
  520loPI   C1B 8317   7.197  14.932   8.487 -0.4582  0.0313 -0.3658
  520loPI   C2B 8318   7.174  15.028   8.093 -0.1148 -0.2677  0.0525
  520loPI   C3B 8319   7.304  14.959   7.658 -0.0190  0.0782  0.1334
  520loPI   C4B 8320   7.624  15.022   7.385  0.1618  0.1684 -0.0130
  521loPI    C1 8321  16.540  15.770   9.551 -0.4654 -0.0448  0.0447
  521loPI    C2 8322  16.703  16.072   9.758 -0.1672 -0.0653 -0.1553
  521loPI    C3 8323  16.701  15.702   9.911  0.1222 -0.0951 -0.2165
  521loPI   PO4 8324  16.455  15.923   9.289  0.1694  0.0706 -0.2614
  521loPI   GL1 8325  16.268  16.285   9.021  0.0526  0.3170 -0.1493
  521loPI   GL2 8326  16.501  16.276   8.928  0.0558  0.2393 -0.2040
  521loPI   C1A 8327  15.957  16.112   8.724 -0.3858  0.2151 -0.0029
  521loPI   C2A 8328  15.782  16.071   8.313  0.1191  0.0919  0.0571
  521loPI   C3A 8329  15.742  15.928   7.866 -0.0057 -0.1317 -0.1372
  521loPI   C4A 8330  15.513  15.847   7.465  0.0345  0.1796 -0.1720
  521loPI   C5A 8331  15.577  15.914   7.028  0.2381 -0.3425 -0.1573
  521loPI   C6A 8332  15.720  15.969   6.609 -0.1629  0.0342 -0.0123
  521loPI   C1B 8333  16.479  16.311   8.538 -0.2796  0.0675 -0.3725
  521loPI   C2B 8334  16.553  16.278   8.040 -0.1638 -0.0190 -0.2096
  521loPI   C3B 8335  16.645  16.192   7.533  0.2112  0.4078 -0.0938
  521loPI   C4B 8336  16.896  15.826   7.348  0.3243 -0.0119  0.0367
  522loPI    C1 8337   2.629   5.070  10.403  0.3386 -0.2059 -0.0470
  522loPI    C2 8338   2.928   4.843  10.542  0.2635 -0.2591  0.0293
  522loPI    C3 8339   2.552   4.767  10.652  0.1783 -0.4286 -0.3613
  522loPI   PO4 8340   2.576   5.146  10.101  0.0982 -0.0129  0.1222
  522loPI   GL1 8341   2.811   5.042   9.906 -0.2841  0.1976 -0.1089
  522loPI   GL2 8342   3.110   5.199   9.980  0.2461  0.1274  0.2210
  522loPI   C1A 8343   2.618   5.004   9.474 -0.1646  0.1453  0.2986
  522loPI   C2A 8344   2.482   4.922   9.052 -0.1708 -0.1577 -0.0184
  522loPI   C3A 8345   2.550   5.054   8.658  0.2912 -0.3768  0.1019
  522loPI   C4A 8346   2.445   5.171   8.219 -0.0373  0.1886 -0.0106
  522loPI   C5A 8347   2.183   5.315   7.754  0.4307 -0.1653  0.0337
  522loPI   C6A 8348   2.001   5.326   7.392  0.0389  0.3883  0.1607
  522loPI   C1B 8349   3.116   5.332   9.598 -0.4587  0.3016  0.2361
  522loPI   C2B 8350   3.044   5.217   9.198 -0.0535  0.2451  0.2075
  522loPI   C3B 8351   3.091   5.189   8.745  0.2384 -0.2202 -0.1232
  522loPI   C4B 8352   2.887   5.359   8.422 -0.1363  0.1318 -0.2713
  523loPI    C1 8353  17.524   5.350  10.271 -0.0459 -0.2721 -0.2319
  523loPI    C2 8354  17.181   5.447  10.451  0.0579 -0.1262 -0.1101
  523loPI    C3 8355  17.512   5.660  10.524  0.0813 -0.0040 -0.5467
  523loPI   PO4 8356  17.432   5.328  10.028  0.0568 -0.0315 -0.0804
  523loPI   GL1 8357  17.443   5.509   9.602  0.2128 -0.0933  0.1478
  523loPI   GL2 8358  17.214   5.482   9.606 -0.0436  0.1856 -0.1017
  523loPI   C1A 8359  17.622   5.309   9.250 -0.3937 -0.2542  0.0025
  523loPI   C2A 8360  17.532   5.297   8.798 -0.0949  0.2482 -0.2339
  523loPI   C3A 8361  17.532   5.242   8.360 -0.1962 -0.1097  0.3534
  523loPI   C4A 8362  17.307   5.243   7.998  0.1315 -0.1456  0.1973
  523loPI   C5A 8363  17.040   5.404   7.735 -0.2488  0.1347 -0.0529
  523loPI   C6A 8364  16.942   5.456   7.308  0.1770 -0.0749  0.1462
  523loPI   C1B 8365  17.082   5.194   9.199 -0.3816  0.2792  0.1244
  523loPI   C2B 8366  17.064   5.123   8.741  0.0588 -0.2283  0.1105
  523loPI   C3B 8367  17.065   4.928   8.406  0.0389 -0.0706  0.1754
  523loPI   C4B 8368  17.005   4.863   8.062  0.2366  0.0413 -0.2203
  524loPI    C1 8369  14.057   1.823   9.865 -0.0824  0.0416 -0.0416
  524loPI    C2 8370  13.934   1.452   9.778 -0.1499  0.0296  0.1013
  524loPI    C3 8371  13.752   1.660  10.067 -0.0553  0.1416  0.0810
  524loPI   PO4 8372  14.194   1.853   9.614  0.2648 -0.0667 -0.0884
  524loPI   GL1 8373  14.436   1.658   9.200 -0.2283 -0.1285 -0.0549
  524loPI   GL2 8374  14.322   1.907   9.032  0.2074  0.0032  0.0301
  524loPI   C1A 8375  14.270   1.384   8.875  0.1501  0.3859 -0.2063
  524loPI   C2A 8376  14.268   1.372   8.456 -0.2876  0.1844 -0.0056
  524loPI   C3A 8377  14.300   1.350   8.053 -0.3851 -0.0583 -0.0832
  524loPI   C4A 8378  14.220   1.565   7.680  0.0628  0.1485 -0.0924
  524loPI   C5A 8379  14.473   1.889   7.343 -0.0311 -0.2296  0.0224
  524loPI   C6A 8380  14.535   2.063   7.008  0.0496 -0.2877 -0.0701
  524loPI   C1B 8381  14.353   1.800   8.602  0.0085 -0.0044  0.3327
  524loPI   C2B 8382  14.333   1.886   8.114 -0.0719  0.2092 -0.1830
  524loPI   C3B 8383  14.432   2.144   7.864  0.0060  0.1645  0.3117
  524loPI   C4B 8384  14.704   2.446   7.898  0.0896 -0.2459  0.0634
  525loPI    C1 8385  18.241   5.382  10.484  0.0571  0.1442 -0.0569
  525loPI    C2 8386  18.588   5.472  10.661  0.0818 -0.1019  0.0240
  525loPI    C3 8387  18.273   5.363  10.882 -0.0708  0.1913 -0.0442
  525loPI   PO4 8388  18.170   5.674  10.274  0.0312  0.0945  0.0488
  525loPI   GL1 8389  18.236   5.557   9.955 -0.0044  0.2163 -0.0143
  525loPI   GL2 8390  18.359   5.235   9.863  0.1771 -0.3450  0.3527
  525loPI   C1A 8391  18.155   5.796   9.642  0.0085 -0.2358 -0.0230
  525loPI   C2A 8392  17.824   5.784   9.330  0.1512 -0.0301  0.0510
  525loPI   C3A 8393  17.699   5.803   8.902  0.0852  0.0619  0.5350
  525loPI   C4A 8394  17.765   5.802   8.485 -0.2616 -0.0250 -0.3640
  525loPI   C5A 8395  17.647   5.717   8.155  0.1682  0.1026  0.3152
  525loPI   C6A 8396  17.648   5.604   7.768 -0.3338 -0.0406 -0.1953
  525loPI   C1B 8397  18.248   5.322   9.513  0.0148  0.2063  0.1518
  525loPI   C2B 8398  18.267   5.507   9.268  0.1360  0.2289  0.2267
  525loPI   C3B 8399  18.171   5.814   8.987  0.1782 -0.1626 -0.1769
  525loPI   C4B 8400  18.025   6.155   8.919  0.2402  0.0608 -0.1037
  526loPI    C1 8401   1.169  15.533   9.359  0.0624  0.0334 -0.1173
  526loPI    C2 8402   1.548  15.662   9.358  0.1307 -0.1610  0.0488
  526loPI    C3 8403   1.255  15.901   9.227  0.2907  0.0493  0.0699
  526loPI   PO4 8404   1.214  15.149   9.174 -0.3497  0.0157 -0.1079
  526loPI   GL1 8405   1.227  14.829   8.847  0.0808  0.1724 -0.2598
  526loPI   GL2 8406   1.258  14.511   8.791 -0.0188 -0.2259  0.2834
  526loPI   C1A 8407   1.050  15.028   8.498 -0.0420 -0.0871  0.0240
  526loPI   C2A 8408   1.060  15.141   7.986 -0.1523 -0.1186  0.2581
  526loPI   C3A 8409   1.257  15.452   7.828 -0.0698 -0.0234  0.1560
  526loPI   C4A 8410   1.446  15.722   7.881  0.2695 -0.1619  0.1345
  526loPI   C5A 8411   1.677  15.879   8.270 -0.1989 -0.2256 -0.2536
  526loPI   C6A 8412   2.051  16.031   8.515  0.0116 -0.1700  0.0100
  526loPI   C1B 8413   1.121  14.561   8.407 -0.2061 -0.1014  0.0388
  526loPI   C2B 8414   1.194  14.567   7.847 -0.2682  0.3197 -0.0519
  526loPI   C3B 8415   1.140  14.410   7.366  0.3029 -0.1941  0.0620
  526loPI   C4B 8416   0.977  14.058   7.174 -0.2829 -0.1234 -0.0962
  527loPI    C1 8417   8.160   4.450  10.458 -0.0453 -0.1251  0.2185
  527loPI    C2 8418   8.392   4.453  10.784  0.0015  0.0001  0.1849
  527loPI    C3 8419   7.996   4.411  10.820  0.0162 -0.0864  0.2508
  527loPI   PO4 8420   8.145   4.207  10.359  0.2765  0.1261 -0.4362
  527loPI   GL1 8421   8.124   4.247   9.976 -0.2847  0.1041  0.2594
  527loPI   GL2 8422   7.832   4.322   9.895  0.0658 -0.1497 -0.1643
  527loPI   C1A 8423   8.124   4.086   9.470  0.0098 -0.4170 -0.2260
  527loPI   C2A 8424   8.207   4.016   9.064  0.5555 -0.1988  0.2333
  527loPI   C3A 8425   8.149   4.172   8.703  0.2673  0.0084  0.2105
  527loPI   C4A 8426   8.025   4.098   8.326  0.0712  0.0926 -0.2300
  527loPI   C5A 8427   8.055   3.928   7.846  0.1040  0.0412  0.3849
  527loPI   C6A 8428   8.192   3.712   7.449  0.3208  0.0431  0.1416
  527loPI   C1B 8429   7.776   4.425   9.540  0.0626  0.2372  0.0996
  527loPI   C2B 8430   7.716   4.413   9.009 -0.1520  0.0032  0.0394
  527loPI   C3B 8431   7.649   4.374   8.579 -0.1266  0.1801 -0.0965
  527loPI   C4B 8432   7.619   4.422   8.119  0.0486 -0.1026 -0.1340
  528loPI    C1 8433  11.802  18.823   9.693  0.1517  0.1767 -0.2588
  528loPI    C2 8434  11.932  18.599   9.388 -0.0847 -0.2971 -0.0231
  528loPI    C3 8435  12.129  18.597   9.737  0.1827  0.2399 -0.1597
  528loPI   PO4 8436  11.621  19.080   9.502  0.3320 -0.0001  0.4241
  528loPI   GL1 8437  11.877  18.893   8.988  0.1473 -0.0945 -0.1169
  528loPI   GL2 8438  11.715  19.216   9.008  0.0074 -0.0360 -0.1830
  528loPI   C1A 8439  11.638  18.866   8.616  0.0148 -0.0900 -0.0864
  528loPI   C2A 8440  11.515  18.961   8.215  0.0961  0.1682 -0.0021
  528loPI   C3A 8441  11.558  18.963   7.783  0.1582 -0.0469 -0.1728
  528loPI   C4A 8442  11.500  18.908   7.347 -0.2641  0.1082  0.2496
  528loPI   C5A 8443  11.329  18.874   7.014  0.1237  0.0150  0.1272
  528loPI   C6A 8444  11.429  18.951   6.564  0.0914 -0.1937 -0.0707
  528loPI   C1B 8445  11.767  19.327   8.577 -0.0485  0.3667 -0.0676
  528loPI   C2B 8446  11.655  19.420   8.137  0.1696 -0.3785 -0.0501
  528loPI   C3B 8447  11.343  19.526   7.887  0.1442 -0.0680 -0.1783
  528loPI   C4B 8448  10.843  19.766   7.858  0.4221  0.1711 -0.2868
  529loPI    C1 8449  12.243  13.042   9.605 -0.1446 -0.0295  0.0127
  529loPI    C2 8450  12.071  12.740   9.802 -0.1548  0.0856  0.1832
  529loPI    C3 8451  12.353  12.960   9.981 -0.1727  0.1996  0.0728
  529loPI   PO4 8452  12.327  12.923   9.313 -0.1201 -0.1283 -0.0928
  529loPI   GL1 8453  12.304  13.044   8.872  0.2992  0.2067 -0.1453
  529loPI   GL2 8454  11.985  12.845   8.989  0.1197  0.1681  0.3778
  529loPI   C1A 8455  12.395  13.196   8.451 -0.0460  0.2880  0.2008
  529loPI   C2A 8456  12.230  13.135   8.138  0.0190  0.1439  0.3307
  529loPI   C3A 8457  12.097  13.386   7.775 -0.1584  0.0213  0.3652
  529loPI   C4A 8458  12.079  13.459   7.377 -0.4139 -0.0493  0.2292
  529loPI   C5A 8459  12.327  13.486   6.965  0.2495 -0.1108  0.3925
  529loPI   C6A 8460  12.614  13.457   6.651 -0.1938  0.1869 -0.1895
  529loPI   C1B 8461  12.069  12.786   8.511  0.3670 -0.0793 -0.3006
  529loPI   C2B 8462  12.206  12.623   8.081  0.1549  0.1811  0.1713
  529loPI   C3B 8463  12.492  12.433   7.676  0.0193  0.1380  0.1198
  529loPI   C4B 8464  12.794  12.155   7.314  0.1354 -0.0282  0.0692
  530loPI    C1 8465   6.950  10.088   9.656  0.0492  0.0874 -0.0439
  530loPI    C2 8466   6.567   9.971   9.669  0.0943 -0.0688 -0.1004
  530loPI    C3 8467   6.810   9.898   9.979  0.0180  0.2481  0.0386
  530loPI   PO4 8468   6.906  10.447   9.571 -0.2004  0.1914 -0.1803
  530loPI   GL1 8469   6.907  10.739   9.169 -0.0790  0.2330  0.3851
  530loPI   GL2 8470   6.597  10.714   9.311  0.1143  0.1221  0.0392
  530loPI   C1A 8471   7.146  10.691   8.774 -0.1545 -0.2231 -0.0741
  530loPI   C2A 8472   7.116  10.842   8.367 -0.2949  0.0245  0.0698
  530loPI   C3A 8473   6.938  10.654   8.009  0.3737  0.2195  0.0141
  530loPI   C4A 8474   6.724  10.552   7.628 -0.1691  0.0769  0.1104
  530loPI   C5A 8475   6.613  10.416   7.226 -0.0561  0.1369 -0.1015
  530loPI   C6A 8476   6.613  10.245   6.753 -0.2331 -0.0766  0.1678
  530loPI   C1B 8477   6.426  10.671   8.938 -0.3890  0.0523 -0.0060
  530loPI   C2B 8478   6.160  10.517   8.590  0.0231  0.1525  0.2594
  530loPI   C3B 8479   5.874  10.420   8.308 -0.1762 -0.1809  0.2318
  530loPI   C4B 8480   5.697  10.302   7.838 -0.2066  0.0227 -0.3761
  531loPI    C1 8481  17.206   3.180  10.304  0.1572 -0.3000  0.1429
  531loPI    C2 8482  17.542   3.396  10.327 -0.0237 -0.0375  0.3789
  531loPI    C3 8483  17.463   3.119  10.605  0.0325 -0.1521  0.2813
  531loPI   PO4 8484  17.110   3.157   9.997 -0.0305  0.2355 -0.0733
  531loPI   GL1 8485  17.203   2.789   9.723 -0.2681 -0.0511  0.0525
  531loPI   GL2 8486  16.849   2.660   9.493 -0.1307 -0.0763 -0.1889
  531loPI   C1A 8487  17.404   2.897   9.361 -0.0967 -0.1341 -0.1152
  531loPI   C2A 8488  17.382   2.898   8.891  0.2651  0.2596  0.1457
  531loPI   C3A 8489  17.267   3.113   8.616 -0.1373  0.1950  0.0793
  531loPI   C4A 8490  17.394   3.005   8.306  0.1190 -0.4219  0.2825
  531loPI   C5A 8491  17.210   2.888   7.943  0.0519 -0.1408  0.0802
  531loPI   C6A 8492  17.158   2.921   7.547  0.1224  0.0930 -0.0891
  531loPI   C1B 8493  16.978   2.572   9.034 -0.1551  0.2307 -0.0150
  531loPI   C2B 8494  17.121   2.557   8.690 -0.4983 -0.2394  0.0426
  531loPI   C3B 8495  17.445   2.509   8.497  0.1201  0.1159 -0.4797
  531loPI   C4B 8496  17.529   2.576   8.037 -0.0363  0.0898 -0.0308
  532loPI    C1 8497  15.180   1.496   9.747  0.1928 -0.1698  0.0381
  532loPI    C2 8498  15.338   1.383  10.098  0.0096  0.0806  0.2045
  532loPI    C3 8499  14.941   1.382  10.047  0.0390 -0.0522 -0.0386
  532loPI   PO4 8500  15.369   1.328   9.572 -0.0418 -0.0823 -0.0473
  532loPI   GL1 8501  15.285   1.214   9.065 -0.2149 -0.1257 -0.0960
  532loPI   GL2 8502  15.190   1.425   8.856  0.0039 -0.2662  0.1339
  532loPI   C1A 8503  15.317   0.966   8.640  0.0360  0.0280 -0.4199
  532loPI   C2A 8504  15.255   0.655   8.345  0.2309  0.1133 -0.2302
  532loPI   C3A 8505  15.126   0.543   7.987 -0.1997 -0.0782 -0.0136
  532loPI   C4A 8506  14.939   0.170   7.756  0.2242  0.0034 -0.0781
  532loPI   C5A 8507  14.910  -0.034   7.389 -0.0277  0.3410  0.2608
  532loPI   C6A 8508  14.743  -0.306   7.135  0.2878 -0.2654 -0.1190
  532loPI   C1B 8509  15.193   1.345   8.436 -0.1998 -0.0313 -0.0312
  532loPI   C2B 8510  15.328   1.105   8.153  0.2288  0.0093 -0.0906
  532loPI   C3B 8511  15.182   1.283   7.802  0.0112  0.2543  0.0567
  532loPI   C4B 8512  15.288   1.372   7.317 -0.1357  0.3228  0.3238
  533loPI    C1 8513   2.026   8.137  10.147  0.0948  0.1533  0.0061
  533loPI    C2 8514   1.837   7.815  10.291  0.2987 -0.0301 -0.1291
  533loPI    C3 8515   2.131   7.987  10.502  0.1719  0.0854 -0.0449
  533loPI   PO4 8516   2.087   8.058   9.781 -0.0922 -0.0880 -0.0407
  533loPI   GL1 8517   1.749   8.253   9.484  0.0912 -0.0371 -0.2058
  533loPI   GL2 8518   2.015   8.377   9.300  0.0632 -0.1037 -0.0817
  533loPI   C1A 8519   1.568   8.200   9.092 -0.1114  0.0086  0.0302
  533loPI   C2A 8520   1.566   7.912   8.747  0.1602  0.1064  0.0130
  533loPI   C3A 8521   1.349   7.704   8.465  0.0791  0.2252  0.1228
  533loPI   C4A 8522   0.968   7.432   8.314 -0.2200 -0.1713 -0.2222
  533loPI   C5A 8523   0.481   7.437   8.389 -0.1556  0.3595  0.0555
  533loPI   C6A 8524   0.178   7.686   8.137 -0.1873  0.1886 -0.0580
  533loPI   C1B 8525   2.049   8.215   8.985  0.1718 -0.1332 -0.2140
  533loPI   C2B 8526   2.149   8.206   8.527 -0.0379  0.1287 -0.2271
  533loPI   C3B 8527   2.165   8.126   8.096 -0.0839  0.0704  0.1039
  533loPI   C4B 8528   1.924   8.402   7.834 -0.0554  0.0530  0.3145
  534loPI    C1 8529   5.406  13.718   9.965 -0.0660  0.0398 -0.2111
  534loPI    C2 8530   5.780  13.820   9.867 -0.0394 -0.0222 -0.1745
  534loPI    C3 8531   5.684  13.753  10.250 -0.1008  0.0461 -0.1778
  534loPI   PO4 8532   5.371  13.772   9.603  0.0839 -0.0876  0.1521
  534loPI   GL1 8533   5.391  14.041   9.245  0.2116 -0.1297  0.1115
  534loPI   GL2 8534   5.295  13.803   9.094 -0.0955 -0.0783 -0.1374
  534loPI   C1A 8535   5.698  14.121   8.940  0.0567 -0.3616 -0.2395
  534loPI   C2A 8536   5.770  14.269   8.502 -0.1490  0.5566 -0.0222
  534loPI   C3A 8537   6.026  14.293   8.142 -0.1642  0.0588  0.2380
  534loPI   C4A 8538   6.039  14.395   7.704 -0.1502 -0.0797 -0.1919
  534loPI   C5A 8539   6.267  14.513   7.372 -0.1878  0.4393 -0.0750
  534loPI   C6A 8540   6.667  14.510   7.164  0.2353  0.2257  0.2147
  534loPI   C1B 8541   5.283  13.970   8.730  0.1722 -0.0238 -0.2143
  534loPI   C2B 8542   5.396  14.047   8.273  0.2315  0.1856  0.2419
  534loPI   C3B 8543   5.228  13.779   7.998 -0.2609 -0.0597 -0.1289
  534loPI   C4B 8544   5.148  13.795   7.598  0.1550  0.1472 -0.1395
  535loPI    C1 8545   8.806  12.740   9.609  0.3867 -0.3003 -0.2526
  535loPI    C2 8546   8.687  12.360   9.567 -0.1376 -0.1784  0.0412
  535loPI    C3 8547   8.909  12.466   9.882 -0.1702 -0.2016  0.0720
  535loPI   PO4 8548   8.953  12.812   9.388 -0.2091  0.0238 -0.0710
  535loPI   GL1 8549   9.101  12.682   9.002 -0.1419  0.0455 -0.2652
  535loPI   GL2 8550   9.440  12.752   8.921 -0.1162  0.1168 -0.0745
  535loPI   C1A 8551   9.040  12.720   8.633  0.0049  0.1233  0.0973
  535loPI   C2A 8552   9.057  12.700   8.336 -0.2579 -0.2227 -0.1751
  535loPI   C3A 8553   8.985  12.571   7.942  0.1381 -0.1419 -0.3398
  535loPI   C4A 8554   9.283  12.426   7.681 -0.0546  0.2812 -0.2575
  535loPI   C5A 8555   9.663  12.222   7.735 -0.0862  0.1975 -0.0138
  535loPI   C6A 8556   9.985  12.300   7.476  0.1721  0.0324 -0.1970
  535loPI   C1B 8557   9.467  12.989   8.564 -0.4439  0.1373 -0.1685
  535loPI   C2B 8558   9.524  13.022   8.159  0.0115 -0.2661 -0.0821
  535loPI   C3B 8559   9.345  12.866   7.846 -0.1896  0.1208 -0.1817
  535loPI   C4B 8560   9.557  12.832   7.536  0.0930  0.3725  0.1161
  536loPI    C1 8561  15.100  14.683   9.925 -0.1315  0.1059 -0.0390
  536loPI    C2 8562  15.365  14.442  10.103 -0.0200  0.1012 -0.2088
  536loPI    C3 8563  15.237  14.771  10.290 -0.1144 -0.0481 -0.0076
  536loPI   PO4 8564  15.017  14.614   9.726 -0.0085  0.1951 -0.1150
  536loPI   GL1 8565  14.840  14.635   9.380  0.1462  0.0314  0.0282
  536loPI   GL2 8566  14.918  14.378   9.207 -0.0109 -0.0517 -0.1507
  536loPI   C1A 8567  14.645  14.768   9.083  0.2017  0.0710  0.0506
  536loPI   C2A 8568  14.531  14.907   8.718  0.0812 -0.3173  0.1274
  536loPI   C3A 8569  14.718  14.807   8.213  0.0278 -0.3350  0.0545
  536loPI   C4A 8570  14.664  14.704   7.730 -0.2401 -0.0940  0.4717
  536loPI   C5A 8571  15.022  14.568   7.328 -0.1370  0.2513  0.1542
  536loPI   C6A 8572  15.374  14.311   7.386 -0.1721 -0.0038  0.0370
  536loPI   C1B 8573  14.927  14.505   8.748 -0.1090  0.1057 -0.2057
  536loPI   C2B 8574  15.070  14.426   8.232 -0.0617  0.3213  0.4467
  536loPI   C3B 8575  15.204  14.495   7.791 -0.2101  0.2751 -0.0082
  536loPI   C4B 8576  15.513  14.740   7.574  0.2749 -0.0651 -0.0405
  537loPI    C1 8577  10.548  18.421   9.975  0.1335  0.1631 -0.0224
  537loPI    C2 8578  10.528  18.068  10.160  0.2886  0.1589 -0.0129
  537loPI    C3 8579  10.430  18.402  10.356  0.1886  0.1265 -0.0073
  537loPI   PO4 8580  10.527  18.336   9.756 -0.0745  0.1581  0.0755
  537loPI   GL1 8581  10.647  18.339   9.419  0.1992 -0.1167 -0.0230
  537loPI   GL2 8582  10.989  18.529   9.331  0.1561 -0.1446  0.0010
  537loPI   C1A 8583  10.549  18.161   9.081 -0.1977  0.0782 -0.0495
  537loPI   C2A 8584  10.272  18.095   8.863  0.1657  0.0104 -0.1820
  537loPI   C3A 8585  10.324  18.193   8.437 -0.1282  0.4067  0.2232
  537loPI   C4A 8586  10.354  18.225   7.989  0.0459  0.3192 -0.4490
  537loPI   C5A 8587  10.498  18.360   7.507 -0.0354  0.4216  0.1728
  537loPI   C6A 8588  10.493  18.003   7.232  0.1112 -0.0578 -0.0192
  537loPI   C1B 8589  11.198  18.386   8.889 -0.1385 -0.1563 -0.0626
  537loPI   C2B 8590  11.279  18.438   8.460  0.2622 -0.1139 -0.2030
  537loPI   C3B 8591  11.479  18.547   8.076 -0.2504  0.0660  0.1209
  537loPI   C4B 8592  11.317  18.481   7.578 -0.4334  0.1716 -0.1650
  538loPI    C1 8593   6.410  16.809   9.797 -0.0441  0.0049 -0.1961
  538loPI    C2 8594   6.755  17.001   9.861 -0.0523  0.0261 -0.2156
  538loPI    C3 8595   6.746  16.601   9.859 -0.0829  0.0231  0.0872
  538loPI   PO4 8596   6.338  16.914   9.521 -0.1492 -0.0794 -0.1529
  538loPI   GL1 8597   6.374  16.846   9.141 -0.0831  0.1435  0.3904
  538loPI   GL2 8598   6.228  16.564   9.070 -0.0982 -0.1967 -0.1780
  538loPI   C1A 8599   6.317  17.037   8.665 -0.2806  0.1567  0.0604
  538loPI   C2A 8600   6.241  17.231   8.238  0.0354 -0.2488 -0.4230
  538loPI   C3A 8601   6.108  17.387   7.855 -0.6720 -0.1847 -0.1371
  538loPI   C4A 8602   5.798  17.474   7.547 -0.3334 -0.3292 -0.1352
  538loPI   C5A 8603   5.990  17.652   7.175  0.0865  0.0143 -0.0277
  538loPI   C6A 8604   6.314  17.551   6.915 -0.0291 -0.1615  0.2612
  538loPI   C1B 8605   6.091  16.400   8.642  0.1432 -0.1432 -0.0884
  538loPI   C2B 8606   6.041  16.290   8.224  0.2190 -0.1634 -0.1504
  538loPI   C3B 8607   5.708  16.309   8.038 -0.0910 -0.0469 -0.0793
  538loPI   C4B 8608   5.598  16.464   7.622  0.0364  0.0627 -0.0603
  539loPI    C1 8609   8.065   3.276  10.163 -0.3774  0.2553  0.1167
  539loPI    C2 8610   8.299   3.027  10.370 -0.4779 -0.1072 -0.1935
  539loPI    C3 8611   8.395   3.414  10.341 -0.2076 -0.1459  0.1238
  539loPI   PO4 8612   7.923   3.094   9.955 -0.3303 -0.1270  0.2288
  539loPI   GL1 8613   8.113   3.061   9.566  0.2787 -0.4160  0.1554
  539loPI   GL2 8614   7.818   2.821   9.492 -0.2051 -0.1393 -0.2621
  539loPI   C1A 8615   8.262   3.059   9.173 -0.0599 -0.1006 -0.4365
  539loPI   C2A 8616   8.229   3.041   8.703  0.1640 -0.1694  0.1006
  539loPI   C3A 8617   8.004   3.342   8.336 -0.1496 -0.0545  0.2069
  539loPI   C4A 8618   8.067   3.227   7.920  0.0401 -0.1624  0.0871
  539loPI   C5A 8619   8.130   3.206   7.521 -0.0672  0.1336 -0.1550
  539loPI   C6A 8620   8.327   3.213   7.178  0.0129 -0.3234  0.0727
  539loPI   C1B 8621   7.917   2.647   9.144  0.3965  0.2764  0.0478
  539loPI   C2B 8622   7.969   2.595   8.745  0.1277 -0.0665 -0.1987
  539loPI   C3B 8623   7.962   2.830   8.316  0.0316  0.1288 -0.2325
  539loPI   C4B 8624   7.839   2.792   7.907  0.0473  0.1200 -0.3519
  540loPI    C1 8625   8.351  10.091   9.702 -0.1887  0.0293  0.0401
  540loPI    C2 8626   8.230  10.190  10.070 -0.0016  0.0938  0.0856
  540loPI    C3 8627   8.612  10.089  10.006 -0.0679 -0.0669 -0.0632
  540loPI   PO4 8628   8.242   9.972   9.606  0.1355  0.2465 -0.0151
  540loPI   GL1 8629   8.095   9.832   9.103  0.5042 -0.4674 -0.1505
  540loPI   GL2 8630   7.780  10.141   9.294 -0.0722 -0.2339 -0.0502
  540loPI   C1A 8631   8.144   9.705   8.702 -0.1342  0.1959  0.1625
  540loPI   C2A 8632   8.205   9.801   8.286  0.0868 -0.1085 -0.1301
  540loPI   C3A 8633   8.042   9.772   7.888 -0.0590 -0.4388 -0.0630
  540loPI   C4A 8634   7.825   9.830   7.510 -0.1236 -0.0750 -0.0385
  540loPI   C5A 8635   7.492   9.687   7.382  0.1080  0.0402  0.1184
  540loPI   C6A 8636   7.065   9.608   7.632  0.1289  0.2252  0.0894
  540loPI   C1B 8637   7.690   9.935   8.840 -0.2997 -0.2269 -0.0864
  540loPI   C2B 8638   7.568  10.018   8.400  0.2113 -0.1984  0.4279
  540loPI   C3B 8639   7.634  10.038   7.956 -0.2172  0.0758  0.1634
  540loPI   C4B 8640   7.649  10.314   7.629 -0.0431  0.0714 -0.2213
  541loPI    C1 8641   7.417  10.024  10.245 -0.3835  0.1883  0.0614
  541loPI    C2 8642   7.076   9.945  10.439 -0.1724 -0.0387  0.3496
  541loPI    C3 8643   7.296  10.264  10.541 -0.3313  0.1496  0.1146
  541loPI   PO4 8644   7.328   9.783   9.954 -0.0248  0.0012 -0.1061
  541loPI   GL1 8645   7.404   9.734   9.589  0.1481 -0.0492  0.0721
  541loPI   GL2 8646   7.701   9.667   9.487 -0.0443  0.2357 -0.2227
  541loPI   C1A 8647   7.384   9.813   9.157  0.1455 -0.2215  0.0374
  541loPI   C2A 8648   7.238   9.659   8.747  0.2495  0.0854  0.0558
  541loPI   C3A 8649   7.116   9.667   8.354  0.1436  0.0732  0.1756
  541loPI   C4A 8650   6.974   9.864   7.984 -0.0064 -0.0683 -0.1169
  541loPI   C5A 8651   6.738  10.066   7.604  0.2052  0.1742 -0.2760
  541loPI   C6A 8652   6.794   9.964   7.131 -0.2896 -0.1094  0.1129
  541loPI   C1B 8653   7.370   9.322   9.291  0.0323  0.1803  0.1730
  541loPI   C2B 8654   7.275   9.091   8.998  0.0990  0.0757  0.0874
  541loPI   C3B 8655   7.150   9.096   8.617  0.0460 -0.1260 -0.3986
  541loPI   C4B 8656   7.116   8.899   8.389 -0.0081  0.0492  0.0650
  542loPI    C1 8657   0.646  13.289   9.360  0.1772 -0.0439  0.0893
  542loPI    C2 8658   0.631  13.110   9.717 -0.2135 -0.0811  0.0591
  542loPI    C3 8659   0.317  13.321   9.587 -0.0279  0.0326 -0.2124
  542loPI   PO4 8660   0.771  13.151   9.193  0.3407 -0.2349 -0.0522
  542loPI   GL1 8661   0.929  13.306   8.898  0.0509  0.0188  0.0259
  542loPI   GL2 8662   1.240  13.063   8.923 -0.0985  0.0671  0.3595
  542loPI   C1A 8663   0.772  13.644   8.588 -0.0907  0.0411 -0.0240
  542loPI   C2A 8664   0.644  13.768   8.211  0.2249  0.1507 -0.0370
  542loPI   C3A 8665   0.652  13.707   7.785  0.2506  0.1219  0.2686
  542loPI   C4A 8666   0.687  13.615   7.386 -0.3043  0.1070  0.1100
  542loPI   C5A 8667   0.680  13.612   6.845 -0.0637  0.0145  0.3247
  542loPI   C6A 8668   0.765  13.602   6.313 -0.4256  0.1290 -0.2823
  542loPI   C1B 8669   1.608  12.752   9.012 -0.0762 -0.2791  0.1782
  542loPI   C2B 8670   1.719  12.381   8.760  0.0741  0.1009 -0.1312
  542loPI   C3B 8671   1.636  11.888   8.685  0.3302 -0.3245  0.1041
  542loPI   C4B 8672   1.260  11.559   8.582 -0.0173 -0.1125  0.0714
  543loPI    C1 8673   4.370   6.234  10.470  0.0931 -0.1071 -0.0146
  543loPI    C2 8674   4.107   6.290  10.766 -0.0685  0.0456 -0.1846
  543loPI    C3 8675   4.497   6.346  10.833 -0.0576 -0.3406  0.1133
  543loPI   PO4 8676   4.165   6.122  10.254  0.1131 -0.4205  0.0695
  543loPI   GL1 8677   4.031   6.128   9.869  0.1955 -0.2867 -0.0148
  543loPI   GL2 8678   4.348   5.962   9.805  0.0183  0.4240  0.3052
  543loPI   C1A 8679   4.083   6.317   9.512 -0.3509  0.1157  0.2373
  543loPI   C2A 8680   4.034   6.355   9.137 -0.2420  0.2761 -0.0307
  543loPI   C3A 8681   3.987   6.413   8.681  0.3130 -0.1997  0.0093
  543loPI   C4A 8682   4.015   6.315   8.242  0.2119  0.4398  0.3686
  543loPI   C5A 8683   3.983   6.112   7.824  0.2041  0.0019  0.1268
  543loPI   C6A 8684   3.700   5.798   7.743  0.4550 -0.0614 -0.1822
  543loPI   C1B 8685   4.446   6.031   9.295 -0.0829 -0.0047 -0.0919
  543loPI   C2B 8686   4.516   6.114   8.884 -0.0112  0.1816  0.2059
  543loPI   C3B 8687   4.481   6.068   8.555 -0.2465  0.0874 -0.1964
  543loPI   C4B 8688   4.435   6.101   8.094  0.2317 -0.0815  0.0830
  544loPI    C1 8689   5.649  10.729   9.813  0.2098  0.2860  0.0312
  544loPI    C2 8690   5.257  10.666   9.859  0.2126  0.0444 -0.2493
  544loPI    C3 8691   5.414  11.022   9.950 -0.0542  0.1127 -0.0440
  544loPI   PO4 8692   5.632  10.585   9.554 -0.0220 -0.0023  0.0423
  544loPI   GL1 8693   5.573  10.769   9.181 -0.4393  0.3544  0.2842
  544loPI   GL2 8694   5.404  11.075   8.990 -0.0694  0.0480  0.4319
  544loPI   C1A 8695   5.793  10.779   8.839  0.4346  0.0312  0.1942
  544loPI   C2A 8696   5.612  10.821   8.452 -0.1593  0.1251 -0.0770
  544loPI   C3A 8697   5.503  11.027   8.007  0.0216 -0.0361  0.2857
  544loPI   C4A 8698   5.497  11.231   7.626 -0.3508  0.0689 -0.0124
  544loPI   C5A 8699   5.556  11.418   7.324 -0.0283  0.1686 -0.1338
  544loPI   C6A 8700   5.671  11.754   7.306  0.1068 -0.0250 -0.0825
  544loPI   C1B 8701   5.639  11.271   8.747 -0.1861 -0.3336 -0.2965
  544loPI   C2B 8702   5.673  11.388   8.333 -0.0367  0.0461  0.3990
  544loPI   C3B 8703   5.901  11.308   7.909  0.4153 -0.0993  0.0648
  544loPI   C4B 8704   5.997  11.147   7.548 -0.0959 -0.0080 -0.1579
  545loPI    C1 8705   0.831  12.196   9.502 -0.0732  0.2054 -0.1837
  545loPI    C2 8706   0.629  12.519   9.624  0.0162  0.1573  0.0966
  545loPI    C3 8707   0.505  12.154   9.730  0.0567  0.1112 -0.0134
  545loPI   PO4 8708   0.917  12.281   9.298  0.1725 -0.0719  0.2432
  545loPI   GL1 8709   1.343  12.354   9.231 -0.2118 -0.1934  0.1430
  545loPI   GL2 8710   1.427  12.099   9.060  0.2716  0.0761 -0.1059
  545loPI   C1A 8711   1.222  12.503   8.858 -0.4466  0.1204 -0.1793
  545loPI   C2A 8712   1.099  12.460   8.302 -0.0549 -0.3990 -0.0113
  545loPI   C3A 8713   1.256  12.363   7.876  0.1449 -0.0973 -0.0524
  545loPI   C4A 8714   1.199  12.485   7.452 -0.1686  0.0084 -0.4894
  545loPI   C5A 8715   0.938  12.548   7.094  0.3632 -0.2435 -0.0873
  545loPI   C6A 8716   0.788  12.690   6.655 -0.3998  0.2107 -0.1988
  545loPI   C1B 8717   1.120  12.036   8.682  0.1012 -0.0062  0.0341
  545loPI   C2B 8718   1.156  11.939   8.277  0.2602 -0.2546 -0.0229
  545loPI   C3B 8719   1.418  11.786   7.905 -0.0174  0.3035  0.0312
  545loPI   C4B 8720   1.795  11.591   7.732  0.1361  0.3937  0.0716
  546loPI    C1 8721  14.983   1.928   9.920  0.0243  0.1283 -0.0883
  546loPI    C2 8722  15.379   1.899   9.971  0.0032 -0.0801 -0.0343
  546loPI    C3 8723  15.132   1.834  10.279 -0.0852 -0.2960 -0.1477
  546loPI   PO4 8724  15.005   1.997   9.605 -0.1366 -0.2014  0.2910
  546loPI   GL1 8725  15.058   1.947   9.207  0.0325 -0.0817 -0.2533
  546loPI   GL2 8726  14.962   1.651   9.278 -0.1306 -0.2738  0.0217
  546loPI   C1A 8727  15.213   1.883   8.920  0.0071  0.0318 -0.1138
  546loPI   C2A 8728  15.362   1.802   8.509 -0.0888  0.1204 -0.1923
  546loPI   C3A 8729  15.308   1.715   8.083  0.1384  0.0198  0.1216
  546loPI   C4A 8730  15.188   1.773   7.692 -0.4093  0.1585  0.1974
  546loPI   C5A 8731  14.855   2.178   7.534  0.0538 -0.2148  0.0180
  546loPI   C6A 8732  14.442   2.418   7.348 -0.1536 -0.0598  0.0050
  546loPI   C1B 8733  14.753   1.623   8.854 -0.0945 -0.1160  0.0318
  546loPI   C2B 8734  14.675   1.564   8.422  0.1152 -0.0310 -0.0976
  546loPI   C3B 8735  14.835   1.554   8.107 -0.1667 -0.1423  0.1142
  546loPI   C4B 8736  14.728   1.763   7.852  0.1628 -0.1196  0.3009
  547loPI    C1 8737  15.168   7.852  10.138 -0.0441 -0.0345 -0.0032
  547loPI    C2 8738  15.131   8.247  10.088  0.0946 -0.0175  0.0265
  547loPI    C3 8739  15.109   8.090  10.454  0.2568 -0.0129  0.0388
  547loPI   PO4 8740  15.207   7.780   9.842  0.1381 -0.1821 -0.1137
  547loPI   GL1 8741  14.986   7.635   9.527 -0.2080  0.3206 -0.2749
  547loPI   GL2 8742  14.867   7.772   9.281  0.0934 -0.0081 -0.0191
  547loPI   C1A 8743  15.315   7.489   9.134  0.2525  0.2058  0.0812
  547loPI   C2A 8744  15.420   7.472   8.731 -0.2248  0.2045 -0.1645
  547loPI   C3A 8745  15.419   7.489   8.270 -0.1207 -0.3079 -0.1447
  547loPI   C4A 8746  15.337   7.310   7.861  0.2245 -0.0559 -0.0669
  547loPI   C5A 8747  15.539   7.108   7.448 -0.2458  0.0070 -0.4912
  547loPI   C6A 8748  15.913   6.979   7.308  0.2457 -0.0017 -0.2891
  547loPI   C1B 8749  15.036   7.906   8.892 -0.1674 -0.0908  0.0372
  547loPI   C2B 8750  15.067   7.839   8.460 -0.1691  0.0771  0.0919
  547loPI   C3B 8751  15.100   7.747   7.987  0.1669 -0.0093  0.2714
  547loPI   C4B 8752  15.064   7.807   7.515 -0.0441 -0.2292  0.0007
  548loPI    C1 8753  15.973  18.261   9.573  0.1371 -0.1660 -0.0024
  548loPI    C2 8754  16.249  18.426   9.812 -0.0031 -0.1768  0.1694
  548loPI    C3 8755  15.905  18.293   9.966 -0.2255  0.0926 -0.0813
  548loPI   PO4 8756  15.953  18.387   9.374 -0.1467  0.1545  0.3021
  548loPI   GL1 8757  15.954  18.176   8.861 -0.1192  0.2126 -0.0387
  548loPI   GL2 8758  16.281  18.334   8.948  0.1074  0.3926  0.2029
  548loPI   C1A 8759  15.990  18.105   8.498 -0.1378 -0.3889 -0.5417
  548loPI   C2A 8760  16.438  18.252   8.445  0.0964  0.1023  0.2685
  548loPI   C3A 8761  16.549  18.308   8.028  0.5731  0.0419 -0.1118
  548loPI   C4A 8762  16.389  18.097   7.611 -0.0764  0.0816  0.3412
  548loPI   C5A 8763  16.132  17.911   7.297 -0.1430 -0.4645 -0.0470
  548loPI   C6A 8764  15.812  17.804   7.189 -0.1657 -0.2366  0.1049
  548loPI   C1B 8765  16.513  18.634   8.799 -0.0232 -0.0944  0.2421
  548loPI   C2B 8766  16.579  18.808   8.491  0.1003 -0.0449 -0.2096
  548loPI   C3B 8767  16.597  18.825   7.996 -0.2429  0.1576 -0.1262
  548loPI   C4B 8768  16.572  18.649   7.541 -0.2024 -0.2341 -0.1407
  549loPI    C1 8769  10.790   0.306   9.497 -0.0959  0.0576 -0.0908
  549loPI    C2 8770  10.805   0.382   9.890 -0.2253  0.1775 -0.1084
  549loPI    C3 8771  11.128   0.443   9.661 -0.1145 -0.0026 -0.0018
  549loPI   PO4 8772  10.666   0.086   9.494 -0.0945 -0.2822  0.1097
  549loPI   GL1 8773  10.736  -0.120   9.210 -0.2736 -0.0375  0.2711
  549loPI   GL2 8774  10.405  -0.337   9.304 -0.1191  0.3265  0.0509
  549loPI   C1A 8775  10.481  -0.188   8.694 -0.1928 -0.1295 -0.1679
  549loPI   C2A 8776  10.240  -0.052   8.346 -0.0467  0.2023 -0.0196
  549loPI   C3A 8777  10.111  -0.082   7.949  0.1139 -0.1065  0.1629
  549loPI   C4A 8778  10.247  -0.022   7.485  0.1692  0.0427  0.1865
  549loPI   C5A 8779  10.577  -0.174   7.254  0.3870 -0.2331  0.2031
  549loPI   C6A 8780  10.946   0.026   7.110 -0.1826  0.2490  0.1343
  549loPI   C1B 8781  10.633  -0.574   8.966  0.2853 -0.4258 -0.2069
  549loPI   C2B 8782  10.783  -0.855   8.700 -0.1725  0.2409  0.1631
  549loPI   C3B 8783  10.783  -0.770   8.260  0.0410 -0.1082 -0.1665
  549loPI   C4B 8784  10.621  -0.291   8.211 -0.0583 -0.0180 -0.4576
  550loPI    C1 8785   9.363  14.575  10.094  0.1153 -0.0032 -0.0340
  550loPI    C2 8786   9.591  14.271  10.219 -0.0666  0.0179  0.3638
  550loPI    C3 8787   9.564  14.604  10.439  0.2754  0.4049 -0.1547
  550loPI   PO4 8788   9.307  14.465   9.770  0.0875  0.2016  0.3235
  550loPI   GL1 8789   9.247  14.529   9.353 -0.3166 -0.1035  0.0501
  550loPI   GL2 8790   8.993  14.852   9.314 -0.0565 -0.2682 -0.3821
  550loPI   C1A 8791   9.386  14.125   9.150 -0.0208 -0.1892  0.0057
  550loPI   C2A 8792   9.222  13.868   8.677 -0.0648  0.2964  0.2512
  550loPI   C3A 8793   9.159  13.803   8.254 -0.1915 -0.1206 -0.2214
  550loPI   C4A 8794   9.180  13.876   7.794 -0.1400  0.0298  0.2747
  550loPI   C5A 8795   9.403  13.890   7.503 -0.0939  0.0950  0.3115
  550loPI   C6A 8796   9.521  13.951   7.062  0.3236  0.3930 -0.0535
  550loPI   C1B 8797   8.866  14.760   8.840  0.0811 -0.2840  0.2013
  550loPI   C2B 8798   8.789  14.807   8.406 -0.2236 -0.2588 -0.0366
  550loPI   C3B 8799   8.806  14.855   7.956  0.0673  0.0308  0.1839
  550loPI   C4B 8800   8.797  14.687   7.640 -0.0873 -0.0827  0.0999
  551loPI    C1 8801  16.994  10.902   9.878 -0.0246  0.1677 -0.2235
  551loPI    C2 8802  17.298  11.097  10.049  0.0798 -0.1236 -0.0708
  551loPI    C3 8803  16.986  10.980  10.270 -0.0472 -0.0098 -0.1880
  551loPI   PO4 8804  17.120  10.770   9.680 -0.1443 -0.3349 -0.2048
  551loPI   GL1 8805  17.218  10.802   9.251  0.1916 -0.1207 -0.1406
  551loPI   GL2 8806  16.996  10.688   9.049  0.1857 -0.2356  0.0006
  551loPI   C1A 8807  17.611  10.816   8.896  0.1487 -0.1491  0.1205
  551loPI   C2A 8808  17.667  10.755   8.463  0.0132  0.1363 -0.0383
  551loPI   C3A 8809  17.635  10.976   8.114  0.1162 -0.0255 -0.0987
  551loPI   C4A 8810  17.680  10.830   7.667  0.2600  0.0214 -0.0584
  551loPI   C5A 8811  17.471  10.868   7.231 -0.2180  0.0955 -0.1357
  551loPI   C6A 8812  17.440  11.320   7.132  0.0076  0.4963 -0.0090
  551loPI   C1B 8813  17.342  10.411   8.883 -0.1843 -0.0743  0.0352
  551loPI   C2B 8814  17.483  10.279   8.443 -0.3764 -0.0225  0.1931
  551loPI   C3B 8815  17.511  10.416   7.995  0.0759 -0.0443  0.1965
  551loPI   C4B 8816  17.307  10.472   7.495  0.0004 -0.0942  0.3235
  552loPI    C1 8817  15.942   8.225  10.234 -0.2239  0.0791  0.0614
  552loPI    C2 8818  15.969   8.586  10.405  0.0935  0.0801  0.0146
  552loPI    C3 8819  16.144   8.270  10.577  0.0563  0.0016 -0.0909
  552loPI   PO4 8820  16.060   8.311   9.974 -0.1465 -0.0630 -0.3686
  552loPI   GL1 8821  16.033   8.099   9.585 -0.1539 -0.4083  0.1159
  552loPI   GL2 8822  16.295   8.235   9.489  0.1137 -0.0485 -0.1819
  552loPI   C1A 8823  15.920   8.174   9.217  0.2802  0.1534 -0.0151
  552loPI   C2A 8824  16.055   7.927   8.836  0.0485  0.3794  0.2314
  552loPI   C3A 8825  16.210   7.805   8.378  0.1077  0.1696 -0.1394
  552loPI   C4A 8826  16.343   7.645   7.966 -0.1567 -0.3896  0.1324
  552loPI   C5A 8827  16.536   7.791   7.545 -0.0299 -0.1356  0.1275
  552loPI   C6A 8828  16.923   7.729   7.284  0.0386  0.3249  0.5912
  552loPI   C1B 8829  16.408   8.351   9.110 -0.3692 -0.0051  0.1689
  552loPI   C2B 8830  16.511   8.155   8.705  0.0925  0.4576 -0.1873
  552loPI   C3B 8831  16.538   8.154   8.263 -0.3282  0.3509 -0.0869
  552loPI   C4B 8832  16.634   8.187   7.837 -0.1094  0.0702  0.2598
  553loPI    C1 8833  15.298   2.428   9.885 -0.1380 -0.0516 -0.0130
  553loPI    C2 8834  15.426   2.294  10.239 -0.0482  0.2248  0.0613
  553loPI    C3 8835  15.038   2.374  10.185 -0.1007 -0.0490  0.0199
  553loPI   PO4 8836  15.490   2.333   9.679  0.0803  0.0102  0.0416
  553loPI   GL1 8837  15.431   2.301   9.214 -0.0993 -0.2957  0.2539
  553loPI   GL2 8838  15.238   2.388   9.017  0.0200 -0.0943 -0.5264
  553loPI   C1A 8839  15.661   2.355   8.832 -0.0303 -0.3974 -0.3203
  553loPI   C2A 8840  15.685   2.346   8.418 -0.0597 -0.2320  0.0046
  553loPI   C3A 8841  15.760   2.408   8.020 -0.2042  0.0844  0.2546
  553loPI   C4A 8842  15.818   2.364   7.575 -0.0301  0.0374  0.1162
  553loPI   C5A 8843  15.984   2.609   7.278 -0.3113  0.2113 -0.2117
  553loPI   C6A 8844  16.265   2.885   7.382 -0.0338 -0.1437 -0.3466
  553loPI   C1B 8845  15.232   2.556   8.582 -0.4445  0.5255 -0.1280
  553loPI   C2B 8846  15.357   2.644   8.134  0.0450 -0.0065  0.2732
  553loPI   C3B 8847  15.388   2.669   7.742  0.0857  0.0657  0.0022
  553loPI   C4B 8848  15.210   2.568   7.359 -0.2689 -0.2827  0.5678
  554loPI    C1 8849   6.584  15.355   9.769  0.1438 -0.0443  0.0061
  554loPI    C2 8850   6.514  15.652  10.028  0.0268  0.0355 -0.1148
  554loPI    C3 8851   6.677  15.309  10.155  0.0003  0.0855  0.0574
  554loPI   PO4 8852   6.464  15.594   9.515  0.3524  0.1273  0.3192
  554loPI   GL1 8853   6.010  15.613   9.266  0.0099  0.0729 -0.1262
  554loPI   GL2 8854   6.288  15.514   9.036 -0.1259  0.0932 -0.1283
  554loPI   C1A 8855   5.775  15.558   8.895 -0.2698 -0.0279 -0.2527
  554loPI   C2A 8856   5.818  15.425   8.478 -0.0628  0.1911 -0.0018
  554loPI   C3A 8857   5.829  15.273   8.141  0.5226 -0.1702 -0.0528
  554loPI   C4A 8858   5.703  15.244   7.619 -0.1424 -0.1905 -0.0083
  554loPI   C5A 8859   5.994  15.007   7.306  0.1139 -0.2270 -0.1944
  554loPI   C6A 8860   6.171  15.058   6.948 -0.3952 -0.1735 -0.0019
  554loPI   C1B 8861   6.416  15.545   8.663 -0.0741 -0.1796 -0.1603
  554loPI   C2B 8862   6.347  15.390   8.196 -0.1513 -0.0374 -0.0413
  554loPI   C3B 8863   6.271  15.497   7.769  0.3388  0.3082  0.3240
  554loPI   C4B 8864   6.224  15.509   7.372  0.1438  0.1822  0.2746
  555loPI    C1 8865  11.222  16.414   9.530  0.2153 -0.0691 -0.1078
  555loPI    C2 8866  11.590  16.522   9.643  0.0870  0.0751  0.1833
  555loPI    C3 8867  11.274  16.627   9.865 -0.1529  0.1573 -0.1883
  555loPI   PO4 8868  11.255  16.400   9.239  0.1352  0.0442  0.1312
  555loPI   GL1 8869  11.438  16.242   8.848 -0.0477  0.1483  0.0695
  555loPI   GL2 8870  11.183  16.175   8.778 -0.2793  0.3970  0.0615
  555loPI   C1A 8871  11.681  16.171   8.460  0.3078  0.2992  0.1387
  555loPI   C2A 8872  11.638  16.088   7.965  0.1690  0.0103 -0.0138
  555loPI   C3A 8873  11.341  16.096   7.492 -0.2083  0.2534 -0.2850
  555loPI   C4A 8874  11.444  15.821   7.065  0.0044  0.2061 -0.4273
  555loPI   C5A 8875  11.633  15.660   6.738 -0.2270 -0.1222  0.2390
  555loPI   C6A 8876  11.905  15.746   6.325 -0.0001  0.1336 -0.0133
  555loPI   C1B 8877  11.274  15.885   8.387 -0.1022 -0.2658  0.1666
  555loPI   C2B 8878  11.241  15.707   8.066  0.1212  0.0425  0.0868
  555loPI   C3B 8879  11.109  15.752   7.745  0.3508  0.2422  0.2604
  555loPI   C4B 8880  10.964  15.875   7.326 -0.1880 -0.0627 -0.1270
  556loPI    C1 8881  11.730  17.007   9.743 -0.0394 -0.1240 -0.0855
  556loPI    C2 8882  11.856  17.291   9.995 -0.0958 -0.0161 -0.1779
  556loPI    C3 8883  11.599  17.012  10.120  0.1301 -0.1585 -0.0251
  556loPI   PO4 8884  11.740  16.975   9.444 -0.1364 -0.0457  0.2351
  556loPI   GL1 8885  11.601  16.765   9.078 -0.1038  0.1237 -0.0472
  556loPI   GL2 8886  11.834  16.560   9.033 -0.1360  0.0674 -0.1543
  556loPI   C1A 8887  11.403  17.105   8.848  0.1876 -0.3374 -0.0222
  556loPI   C2A 8888  11.278  17.137   8.456 -0.1761 -0.5724 -0.2634
  556loPI   C3A 8889  11.387  17.050   8.002 -0.1936  0.1541 -0.1748
  556loPI   C4A 8890  11.433  17.208   7.613  0.1247  0.2543  0.2976
  556loPI   C5A 8891  11.177  17.148   7.226 -0.1199 -0.0900 -0.2906
  556loPI   C6A 8892  11.258  16.865   6.963  0.3132 -0.0660 -0.2899
  556loPI   C1B 8893  11.677  16.665   8.616 -0.4256 -0.2768  0.3346
  556loPI   C2B 8894  11.674  16.596   8.247 -0.0528  0.1465  0.2583
  556loPI   C3B 8895  11.643  16.644   7.875  0.1870  0.2478  0.2001
  556loPI   C4B 8896  11.677  16.539   7.541 -0.0929 -0.2370 -0.0430
  557loPI    C1 8897  15.108  12.302   9.685  0.2867 -0.2285  0.1303
  557loPI    C2 8898  14.938  12.339  10.045  0.1298 -0.0522  0.0400
  557loPI    C3 8899  15.271  12.543   9.959  0.1937 -0.1304  0.0997
  557loPI   PO4 8900  14.981  12.064   9.515  0.1679  0.3131 -0.1663
  557loPI   GL1 8901  15.066  12.033   9.063  0.0557 -0.1585  0.3801
  557loPI   GL2 8902  14.770  11.992   9.038  0.1096 -0.0318 -0.4519
  557loPI   C1A 8903  15.435  11.999   8.921  0.1396  0.0544  0.0608
  557loPI   C2A 8904  15.567  11.961   8.546 -0.1682 -0.4418 -0.3359
  557loPI   C3A 8905  15.526  12.094   8.093 -0.2491 -0.2824 -0.0096
  557loPI   C4A 8906  15.323  12.093   7.746 -0.0519 -0.1026 -0.2396
  557loPI   C5A 8907  15.639  12.131   7.390 -0.0099 -0.0050  0.2860
  557loPI   C6A 8908  16.100  12.181   7.309 -0.0704 -0.1066 -0.0815
  557loPI   C1B 8909  14.735  12.117   8.623 -0.1275 -0.2064  0.0812
  557loPI   C2B 8910  14.453  12.245   8.268 -0.0790  0.1450  0.0676
  557loPI   C3B 8911  14.280  12.316   7.881 -0.2905 -0.3331 -0.0985
  557loPI   C4B 8912  14.145  12.215   7.407  0.4001 -0.3595 -0.0662
  558loPI    C1 8913   1.578   4.172  10.380 -0.0450 -0.0791 -0.0363
  558loPI    C2 8914   1.536   3.817  10.560  0.2220 -0.0186  0.1509
  558loPI    C3 8915   1.588   4.148  10.779  0.1561  0.1116 -0.0280
  558loPI   PO4 8916   1.269   4.234  10.231  0.0991  0.0303 -0.1939
  558loPI   GL1 8917   1.062   4.465   9.888 -0.0485 -0.1958 -0.1374
  558loPI   GL2 8918   0.893   4.733   9.963  0.2108 -0.0174 -0.1371
  558loPI   C1A 8919   1.064   4.635   9.475  0.1327 -0.3853  0.3089
  558loPI   C2A 8920   1.050   4.591   9.085 -0.1251 -0.2589  0.0490
  558loPI   C3A 8921   1.079   4.596   8.631  0.1101  0.0060  0.0149
  558loPI   C4A 8922   0.908   4.736   8.254 -0.0751 -0.2101 -0.0694
  558loPI   C5A 8923   1.117   4.724   7.892  0.0536 -0.3129  0.2387
  558loPI   C6A 8924   1.099   4.932   7.495  0.0765 -0.2060 -0.0570
  558loPI   C1B 8925   1.139   5.023   9.766  0.3840  0.3252  0.3002
  558loPI   C2B 8926   1.167   5.151   9.375  0.0031  0.0010  0.1280
  558loPI   C3B 8927   1.168   5.035   8.923 -0.1057 -0.0322 -0.0838
  558loPI   C4B 8928   1.052   5.113   8.634  0.0965  0.0177  0.2182
  559loPI    C1 8929   0.819   3.726  10.336 -0.2993  0.3390  0.0270
  559loPI    C2 8930   0.724   3.679  10.722 -0.1698  0.0968  0.0315
  559loPI    C3 8931   1.039   3.903  10.620  0.0559 -0.1855  0.0944
  559loPI   PO4 8932   0.676   3.631  10.220 -0.0606  0.0443 -0.0774
  559loPI   GL1 8933   0.569   3.489   9.868  0.1219  0.4637 -0.2014
  559loPI   GL2 8934   0.835   3.677   9.752 -0.3764 -0.0913 -0.1682
  559loPI   C1A 8935   0.499   3.405   9.524  0.3959 -0.1749 -0.0395
  559loPI   C2A 8936   0.456   3.447   9.103 -0.0479  0.1944  0.2687
  559loPI   C3A 8937   0.377   3.484   8.732  0.1623 -0.0753 -0.0298
  559loPI   C4A 8938   0.303   3.599   8.291 -0.0877 -0.0410 -0.2197
  559loPI   C5A 8939   0.008   3.666   7.981  0.2514 -0.1055  0.1964
  559loPI   C6A 8940  -0.394   3.655   7.885 -0.1885 -0.0814 -0.3814
  559loPI   C1B 8941   0.870   3.694   9.344  0.1657  0.3136 -0.1999
  559loPI   C2B 8942   0.984   3.600   8.934  0.2138 -0.2158  0.0799
  559loPI   C3B 8943   0.966   3.550   8.558 -0.1443  0.0563 -0.2972
  559loPI   C4B 8944   0.772   3.279   8.335 -0.0856 -0.1894 -0.3428
  560loPI    C1 8945  11.932  11.174   9.971  0.0060 -0.0150  0.2386
  560loPI    C2 8946  12.029  10.962   9.646 -0.1501  0.2795 -0.0052
  560loPI    C3 8947  12.292  11.002   9.944 -0.0820 -0.1681  0.0020
  560loPI   PO4 8948  11.721  11.339   9.845 -0.1861  0.1553 -0.3367
  560loPI   GL1 8949  11.836  11.342   9.402  0.0674  0.1017  0.1779
  560loPI   GL2 8950  11.717  11.613   9.345  0.2804  0.0373 -0.0946
  560loPI   C1A 8951  11.966  11.278   8.980  0.0790  0.0028 -0.0945
  560loPI   C2A 8952  11.864  11.248   8.508 -0.2161  0.1942 -0.0528
  560loPI   C3A 8953  11.735  11.323   8.144  0.0713 -0.0232  0.1879
  560loPI   C4A 8954  12.068  11.252   7.661  0.1260 -0.4479 -0.2489
  560loPI   C5A 8955  11.761  11.331   7.317  0.2133  0.0937 -0.0554
  560loPI   C6A 8956  11.383  11.277   7.197 -0.2411  0.1142 -0.4060
  560loPI   C1B 8957  11.431  11.356   9.070 -0.1532  0.1483 -0.0602
  560loPI   C2B 8958  11.313  11.236   8.633 -0.3962  0.0316  0.3726
  560loPI   C3B 8959  11.292  11.023   8.137  0.2036 -0.1485 -0.0334
  560loPI   C4B 8960  11.523  11.153   7.710 -0.0399  0.1111 -0.1054
  561loPI    C1 8961   1.337   3.174  10.272 -0.1344 -0.0280 -0.0123
  561loPI    C2 8962   1.196   3.391  10.577  0.0763  0.0006  0.0662
  561loPI    C3 8963   1.189   2.991  10.596  0.1913  0.0025  0.1572
  561loPI   PO4 8964   1.508   3.309  10.162  0.0242  0.0459 -0.1626
  561loPI   GL1 8965   1.499   3.420   9.753  0.3019  0.0922 -0.1497
  561loPI   GL2 8966   1.271   3.516   9.539 -0.0211  0.2974  0.3266
  561loPI   C1A 8967   1.892   3.554   9.328 -0.1069  0.0366 -0.1383
  561loPI   C2A 8968   1.917   3.605   9.064  0.3102 -0.0915 -0.3366
  561loPI   C3A 8969   2.147   3.706   8.662  0.0131  0.3783  0.1811
  561loPI   C4A 8970   1.938   3.795   8.269 -0.0275  0.3524  0.0958
  561loPI   C5A 8971   1.599   3.982   8.065  0.1261  0.3173  0.2742
  561loPI   C6A 8972   1.195   4.132   7.911 -0.0136  0.0370 -0.1797
  561loPI   C1B 8973   1.438   3.748   9.222 -0.1533  0.0391 -0.3073
  561loPI   C2B 8974   1.517   3.799   8.835  0.1363 -0.0373 -0.1271
  561loPI   C3B 8975   1.448   3.569   8.514  0.1341  0.1191  0.2073
  561loPI   C4B 8976   1.255   3.587   8.183 -0.2617  0.0767  0.0873
  562loPI    C1 8977   4.516   5.682  10.540  0.1016 -0.2241  0.2260
  562loPI    C2 8978   4.757   5.968  10.681  0.0171 -0.1241  0.1690
  562loPI    C3 8979   4.445   5.845  10.899 -0.0451 -0.0525  0.1207
  562loPI   PO4 8980   4.359   5.678  10.281  0.3708 -0.3117 -0.0643
  562loPI   GL1 8981   4.100   5.595   9.931  0.1947  0.0142  0.1287
  562loPI   GL2 8982   4.173   5.373   9.932  0.0588  0.3195 -0.1646
  562loPI   C1A 8983   3.973   5.790   9.553 -0.1096  0.1635  0.4322
  562loPI   C2A 8984   3.974   5.832   9.173  0.2704  0.0157 -0.1675
  562loPI   C3A 8985   4.022   5.853   8.663  0.1787 -0.0597  0.1169
  562loPI   C4A 8986   3.966   5.825   8.188  0.1333  0.1077  0.1269
  562loPI   C5A 8987   4.065   5.447   7.850 -0.1811  0.1120 -0.0563
  562loPI   C6A 8988   4.073   5.013   7.833  0.0077  0.0530 -0.0447
  562loPI   C1B 8989   3.968   5.276   9.510 -0.1639 -0.0054  0.0618
  562loPI   C2B 8990   4.003   5.304   9.157 -0.2632  0.2709  0.2659
  562loPI   C3B 8991   4.023   5.349   8.755  0.2883 -0.4350 -0.4117
  562loPI   C4B 8992   3.903   5.260   8.322 -0.2767 -0.1468  0.2582
  563loPI    C1 8993   6.469   4.952  10.434 -0.1538 -0.0019 -0.1240
  563loPI    C2 8994   6.570   4.648  10.674 -0.1249  0.0233 -0.1040
  563loPI    C3 8995   6.806   4.969  10.648 -0.2436  0.1208  0.0092
  563loPI   PO4 8996   6.438   4.896  10.045  0.1372  0.0638  0.0309
  563loPI   GL1 8997   6.330   4.811   9.611 -0.1691  0.1220 -0.0698
  563loPI   GL2 8998   6.620   5.105   9.650 -0.0832 -0.2896 -0.1455
  563loPI   C1A 8999   6.302   4.729   9.185  0.1092 -0.1524 -0.4378
  563loPI   C2A 9000   6.297   4.572   8.777  0.1488  0.2147  0.4816
  563loPI   C3A 9001   6.296   4.630   8.318 -0.1036 -0.2492 -0.0554
  563loPI   C4A 9002   6.268   4.754   7.935  0.2922 -0.4307  0.0336
  563loPI   C5A 9003   6.364   4.748   7.586  0.0612  0.2461 -0.0486
  563loPI   C6A 9004   6.757   4.689   7.257  0.1298 -0.0207 -0.0842
  563loPI   C1B 9005   6.832   4.890   9.381 -0.0381  0.0068 -0.0807
  563loPI   C2B 9006   6.829   4.857   8.907 -0.1787  0.1879 -0.0281
  563loPI   C3B 9007   6.726   4.812   8.560 -0.2314 -0.4364 -0.1364
  563loPI   C4B 9008   6.650   4.910   8.207 -0.1556  0.0749  0.4124
  564loPI    C1 9009  18.738  13.880   9.199 -0.1520  0.1290  0.0038
  564loPI    C2 9010  18.851  13.826   9.579  0.0982 -0.0906 -0.0991
  564loPI    C3 9011  18.831  14.196   9.427 -0.0487  0.0019  0.1395
  564loPI   PO4 9012  18.741  13.623   9.144  0.0342  0.2541  0.0957
  564loPI   GL1 9013  19.035  13.545   8.830 -0.3202 -0.2292  0.0650
  564loPI   GL2 9014  18.906  13.833   8.699  0.0628 -0.0513  0.1304
  564loPI   C1A 9015  18.842  13.358   8.445 -0.2549  0.2024  0.2158
  564loPI   C2A 9016  18.712  13.274   7.988  0.1573  0.2719  0.0689
  564loPI   C3A 9017  18.495  13.105   7.581  0.2052  0.0584  0.0372
  564loPI   C4A 9018  18.213  13.108   7.289 -0.0266 -0.4652  0.0777
  564loPI   C5A 9019  17.938  13.091   6.956 -0.2223 -0.0096  0.0183
  564loPI   C6A 9020  17.623  12.827   6.857  0.2994  0.1800 -0.2092
  564loPI   C1B 9021  18.888  13.986   8.322 -0.1756 -0.2955 -0.3760
  564loPI   C2B 9022  18.844  14.070   7.900  0.0345 -0.1458  0.1390
  564loPI   C3B 9023  18.538  14.072   7.473  0.0615  0.0710  0.0940
  564loPI   C4B 9024  18.469  14.270   7.060  0.0967  0.4311 -0.0563
  565loPI    C1 9025  14.761   4.918  10.132 -0.0497  0.0752 -0.1434
  565loPI    C2 9026  14.518   5.060  10.416  0.1482  0.0315  0.0498
  565loPI    C3 9027  14.800   5.295  10.258  0.0530  0.0489 -0.0963
  565loPI   PO4 9028  14.572   4.834   9.953  0.2664 -0.0330  0.0644
  565loPI   GL1 9029  14.477   5.041   9.581 -0.1138  0.1973 -0.3107
  565loPI   GL2 9030  14.465   5.348   9.541 -0.1661  0.1253 -0.1486
  565loPI   C1A 9031  14.683   5.122   9.126  0.1140  0.4905 -0.0136
  565loPI   C2A 9032  14.824   5.226   8.780  0.1933 -0.1556 -0.3609
  565loPI   C3A 9033  14.789   5.531   8.486  0.0888 -0.1756 -0.0689
  565loPI   C4A 9034  14.885   5.524   7.977 -0.0043  0.3167 -0.2667
  565loPI   C5A 9035  14.989   5.494   7.592 -0.0111  0.4487  0.1752
  565loPI   C6A 9036  14.744   5.300   7.291 -0.1350  0.1465  0.0061
  565loPI   C1B 9037  14.551   5.678   9.134  0.0388 -0.0512  0.0629
  565loPI   C2B 9038  14.492   5.818   8.878 -0.1537  0.2737 -0.2757
  565loPI   C3B 9039  14.561   5.940   8.489 -0.1317  0.1363  0.0445
  565loPI   C4B 9040  14.378   6.349   8.323 -0.1018  0.0681  0.0902
  566loPI    C1 9041   3.120   9.377  10.456 -0.2345 -0.0314  0.1742
  566loPI    C2 9042   3.394   9.087  10.429 -0.0546  0.1327  0.2165
  566loPI    C3 9043   3.475   9.421  10.634 -0.2192  0.2601  0.0773
  566loPI   PO4 9044   3.093   9.392  10.160 -0.2647 -0.3126  0.0138
  566loPI   GL1 9045   2.789   9.243   9.894  0.1580  0.3165 -0.5371
  566loPI   GL2 9046   2.966   9.469   9.654  0.2125 -0.0588 -0.1305
  566loPI   C1A 9047   2.454   9.423   9.542  0.0173  0.2272 -0.0041
  566loPI   C2A 9048   2.690   9.536   9.195  0.1809 -0.2405  0.0279
  566loPI   C3A 9049   2.802   9.619   8.882 -0.1217  0.0259  0.1575
  566loPI   C4A 9050   2.872   9.512   8.368 -0.0961 -0.0131 -0.3421
  566loPI   C5A 9051   2.803   9.403   7.968  0.0914  0.2725  0.3433
  566loPI   C6A 9052   2.892   9.376   7.606 -0.3774  0.0546  0.1186
  566loPI   C1B 9053   3.176   9.480   9.170 -0.0560  0.1554 -0.0743
  566loPI   C2B 9054   3.249   9.397   8.693  0.0600  0.1873 -0.1418
  566loPI   C3B 9055   3.280   9.363   8.154  0.0627  0.2145  0.0658
  566loPI   C4B 9056   3.315   9.179   7.812  0.1735 -0.2174  0.0485
  567loPI    C1 9057   4.490   4.118  10.510 -0.1274  0.0918 -0.0648
  567loPI    C2 9058   4.173   3.888  10.593 -0.1651  0.1678  0.0035
  567loPI    C3 9059   4.415   4.009  10.887  0.0651 -0.0868 -0.0766
  567loPI   PO4 9060   4.469   4.132  10.264  0.0014  0.0087 -0.1782
  567loPI   GL1 9061   4.230   4.147   9.811 -0.2587 -0.0701 -0.0849
  567loPI   GL2 9062   4.385   4.424   9.767 -0.1239 -0.1615  0.3783
  567loPI   C1A 9063   3.982   4.156   9.577  0.2388  0.1639 -0.0453
  567loPI   C2A 9064   3.918   4.379   9.137  0.0682 -0.0513  0.3749
  567loPI   C3A 9065   3.867   4.297   8.770  0.3417 -0.3465  0.2781
  567loPI   C4A 9066   3.903   4.332   8.390  0.0294  0.1189  0.0353
  567loPI   C5A 9067   4.145   4.439   8.015 -0.2161 -0.3609  0.1691
  567loPI   C6A 9068   4.317   4.597   7.645 -0.0015 -0.0612  0.1964
  567loPI   C1B 9069   4.358   4.397   9.312  0.0361 -0.1825 -0.2004
  567loPI   C2B 9070   4.430   4.593   8.836  0.0076  0.0341 -0.1357
  567loPI   C3B 9071   4.340   4.606   8.397 -0.2699  0.0210 -0.0798
  567loPI   C4B 9072   4.610   4.694   8.042 -0.2325  0.0165  0.1126
  568loPI    C1 9073   1.266   7.975  10.311 -0.0317 -0.1556 -0.2965
  568loPI    C2 9074   0.985   7.810  10.542  0.0179  0.0972 -0.0503
  568loPI    C3 9075   1.362   7.679  10.562  0.0132  0.0879 -0.0205
  568loPI   PO4 9076   1.094   7.992  10.127  0.0448 -0.3038  0.3127
  568loPI   GL1 9077   1.126   7.905   9.711 -0.0755  0.0068 -0.0156
  568loPI   GL2 9078   1.131   8.190   9.498  0.1016 -0.0717  0.2628
  568loPI   C1A 9079   1.511   7.717   9.500 -0.1164 -0.0785  0.1747
  568loPI   C2A 9080   1.789   7.703   9.134 -0.0503  0.0322  0.0871
  568loPI   C3A 9081   1.892   7.528   8.633  0.0155 -0.0393 -0.0528
  568loPI   C4A 9082   2.120   7.555   8.222  0.3072  0.4420 -0.0811
  568loPI   C5A 9083   2.123   7.602   7.878  0.1071 -0.2330 -0.0413
  568loPI   C6A 9084   1.794   7.447   7.629  0.0673 -0.0934  0.0048
  568loPI   C1B 9085   1.144   7.907   9.165 -0.3690  0.2779  0.2173
  568loPI   C2B 9086   0.927   7.935   8.761 -0.0787 -0.2189 -0.1562
  568loPI   C3B 9087   0.632   7.853   8.523 -0.2490 -0.4186 -0.0623
  568loPI   C4B 9088   0.458   8.141   8.099 -0.2325  0.5038  0.0446
  569loPI    C1 9089  14.133   0.486   9.704 -0.1650  0.0748 -0.0399
  569loPI    C2 9090  13.791   0.584   9.887 -0.0679 -0.0369  0.2062
  569loPI    C3 9091  13.976   0.241   9.978  0.1564  0.0644  0.1401
  569loPI   PO4 9092  14.119   0.535   9.456 -0.0009 -0.1411  0.0039
  569loPI   GL1 9093  13.830   0.627   9.143  0.0401 -0.0526  0.0162
  569loPI   GL2 9094  14.167   0.423   8.986 -0.1580 -0.3322  0.3100
  569loPI   C1A 9095  13.714   0.534   8.653  0.0180 -0.1657  0.2132
  569loPI   C2A 9096  13.494   0.614   8.322  0.2170 -0.1733 -0.1233
  569loPI   C3A 9097  13.442   0.393   8.000 -0.1650 -0.1834  0.2581
  569loPI   C4A 9098  13.395   0.284   7.524 -0.1574  0.0023 -0.0690
  569loPI   C5A 9099  13.507   0.386   7.096 -0.0820 -0.5194  0.1359
  569loPI   C6A 9100  13.711   0.529   6.854 -0.0301 -0.2616  0.0570
  569loPI   C1B 9101  14.213   0.438   8.522  0.0578 -0.0487  0.0745
  569loPI   C2B 9102  13.944   0.312   8.270 -0.0168  0.0434 -0.1944
  569loPI   C3B 9103  13.954  -0.115   8.221  0.1604 -0.1162 -0.1229
  569loPI   C4B 9104  13.651  -0.236   7.908  0.0493  0.0477 -0.1868
  570loPI    C1 9105   9.041  13.551   9.658  0.3077  0.1001 -0.0829
  570loPI    C2 9106   8.995  13.299   9.966 -0.0076  0.1101 -0.1178
  570loPI    C3 9107   9.347  13.480   9.906  0.1095 -0.0296  0.1297
  570loPI   PO4 9108   8.892  13.325   9.431  0.2617  0.0106 -0.1490
  570loPI   GL1 9109   8.872  13.270   9.067 -0.1268 -0.1133 -0.2391
  570loPI   GL2 9110   9.147  13.219   8.930 -0.0495 -0.1984  0.3319
  570loPI   C1A 9111   8.753  13.555   8.695 -0.0399  0.1630  0.2293
  570loPI   C2A 9112   8.706  13.557   8.280 -0.3028  0.0957 -0.0785
  570loPI   C3A 9113   8.586  13.486   7.762  0.0380 -0.0160 -0.1196
  570loPI   C4A 9114   8.554  13.677   7.288  0.0112 -0.2835 -0.0602
  570loPI   C5A 9115   8.374  13.688   6.903 -0.0142 -0.0418  0.2385
  570loPI   C6A 9116   8.228  13.747   6.553  0.1662  0.4108  0.1768
  570loPI   C1B 9117   9.107  13.283   8.415 -0.0081  0.0835 -0.1428
  570loPI   C2B 9118   9.064  13.330   7.996 -0.5490  0.0445 -0.4847
  570loPI   C3B 9119   8.984  13.059   7.695  0.3345  0.0295  0.0080
  570loPI   C4B 9120   8.867  12.691   7.469 -0.1489  0.0013  0.0349
  571loPI    C1 9121   2.025   7.240  10.367  0.1881  0.1369  0.0677
  571loPI    C2 9122   2.216   7.487  10.617  0.3878 -0.0999  0.1534
  571loPI    C3 9123   2.048   7.152  10.757 -0.2208  0.1721  0.1042
  571loPI   PO4 9124   2.209   7.221  10.072 -0.1162 -0.1670 -0.1835
  571loPI   GL1 9125   2.285   7.375   9.698  0.2944 -0.0360  0.0658
  571loPI   GL2 9126   1.986   7.608   9.621  0.2902  0.0974  0.0870
  571loPI   C1A 9127   2.238   7.292   9.273  0.4616  0.2573  0.0391
  571loPI   C2A 9128   1.888   7.008   9.038 -0.2425 -0.2015  0.1203
  571loPI   C3A 9129   1.700   6.912   8.669  0.2730  0.0748  0.3916
  571loPI   C4A 9130   1.489   6.759   8.319  0.2906 -0.0806 -0.2844
  571loPI   C5A 9131   1.545   6.503   8.108  0.1180 -0.1314 -0.2095
  571loPI   C6A 9132   1.784   6.186   7.809  0.0254 -0.3717 -0.0949
  571loPI   C1B 9133   1.802   7.236   9.517  0.1524 -0.2133 -0.0398
  571loPI   C2B 9134   1.500   7.260   9.281  0.1544 -0.4550  0.0451
  571loPI   C3B 9135   1.447   7.371   8.920  0.6423 -0.3577 -0.1336
  571loPI   C4B 9136   1.005   7.380   8.799  0.1173 -0.1764  0.3363
  572loPI    C1 9137  13.034  17.397   9.690 -0.2207 -0.2899 -0.1313
  572loPI    C2 9138  12.708  17.292   9.896 -0.2480 -0.2529 -0.1555
  572loPI    C3 9139  12.762  17.673   9.788 -0.1897 -0.2564 -0.1393
  572loPI   PO4 9140  13.065  17.359   9.400  0.1570  0.0572  0.3154
  572loPI   GL1 9141  13.217  17.284   9.004 -0.2779 -0.0008  0.3582
  572loPI   GL2 9142  12.942  17.428   8.887  0.0544  0.5561 -0.1507
  572loPI   C1A 9143  13.122  17.014   8.704  0.1921 -0.1072  0.4694
  572loPI   C2A 9144  12.877  16.952   8.396  0.0784  0.2684 -0.1195
  572loPI   C3A 9145  12.830  16.942   8.015 -0.1352 -0.2156  0.1353
  572loPI   C4A 9146  12.849  16.929   7.568  0.1257 -0.2373 -0.0563
  572loPI   C5A 9147  13.095  17.138   7.165 -0.1576 -0.2793 -0.0690
  572loPI   C6A 9148  12.930  17.351   6.875 -0.1545  0.3303  0.1233
  572loPI   C1B 9149  13.048  17.393   8.432  0.0519 -0.4932  0.2925
  572loPI   C2B 9150  13.084  17.383   8.015  0.1517  0.0955  0.1373
  572loPI   C3B 9151  13.297  17.210   7.754 -0.2313  0.2034 -0.0552
  572loPI   C4B 9152  13.794  17.276   7.678  0.0092 -0.3991  0.1194
  573POPI    C1 9153  18.869   6.298  10.460 -0.0730 -0.0120 -0.1751
  573POPI    C2 9154  18.794   6.665  10.320 -0.0832  0.0427 -0.0275
  573POPI    C3 9155  18.967   6.619  10.678  0.2034 -0.0907 -0.1799
  573POPI   PO4 9156  18.941   6.180  10.329 -0.1849  0.1276  0.0203
  573POPI   GL1 9157  19.131   6.238   9.927  0.3888 -0.3684 -0.0325
  573POPI   GL2 9158  19.284   6.532   9.842 -0.0426 -0.2538 -0.0372
  573POPI   C1A 9159  18.897   6.051   9.642 -0.1925  0.2860  0.4136
  573POPI   D2A 9160  18.965   6.062   9.119  0.2690  0.0637 -0.0368
  573POPI   C3A 9161  19.033   6.088   8.673  0.1099 -0.3342  0.1410
  573POPI   C4A 9162  19.089   5.974   8.281 -0.1233  0.0653  0.3363
  573POPI   C1B 9163  19.273   6.328   9.456 -0.1683 -0.0641 -0.1210
  573POPI   C2B 9164  19.423   6.302   9.071 -0.2792 -0.0086  0.0811
  573POPI   C3B 9165  19.628   6.032   8.890 -0.1055  0.2153 -0.1092
  573POPI   C4B 9166  19.965   5.964   8.546  0.1180 -0.2698 -0.3517
  574POPI    C1 9167  18.382  14.643   9.810 -0.0138 -0.2010 -0.1203
  574POPI    C2 9168  18.096  14.585  10.083  0.1959  0.1326  0.1791
  574POPI    C3 9169  18.468  14.458  10.154  0.1643 -0.1457 -0.1339
  574POPI   PO4 9170  18.252  14.765   9.623 -0.2054  0.0272  0.0312
  574POPI   GL1 9171  18.183  14.726   9.169  0.1879  0.1231  0.0068
  574POPI   GL2 9172  18.171  14.568   8.950  0.0416 -0.1414  0.2116
  574POPI   C1A 9173  18.036  15.061   8.821 -0.0486 -0.3504  0.1175
  574POPI   D2A 9174  18.106  15.563   8.715 -0.1363  0.3157 -0.1267
  574POPI   C3A 9175  17.744  15.760   8.438 -0.3561  0.0978  0.2162
  574POPI   C4A 9176  17.513  16.133   8.211  0.1612  0.0586 -0.1758
  574POPI   C1B 9177  18.493  14.838   8.720  0.2792  0.0609  0.0818
  574POPI   C2B 9178  18.440  15.186   8.502 -0.0166  0.1372 -0.1004
  574POPI   C3B 9179  18.145  15.206   8.321 -0.2899 -0.0253  0.0024
  574POPI   C4B 9180  17.961  15.273   7.915  0.1231 -0.0395 -0.3620
  575POPI    C1 9181  11.077   8.026   9.774 -0.0421  0.0109 -0.0535
  575POPI    C2 9182  11.085   8.409   9.889  0.1945  0.0149 -0.0773
  575POPI    C3 9183  11.356   8.152  10.032 -0.1735 -0.2247  0.2080
  575POPI   PO4 9184  11.137   8.037   9.548 -0.2294 -0.2432 -0.0279
  575POPI   GL1 9185  11.153   8.286   9.187 -0.0354  0.2456  0.1081
  575POPI   GL2 9186  11.401   8.300   8.984  0.0185 -0.0487  0.1740
  575POPI   C1A 9187  11.025   8.061   8.751 -0.1911  0.2147  0.0965
  575POPI   D2A 9188  10.866   7.685   8.572 -0.0747 -0.1885  0.0146
  575POPI   C3A 9189  10.989   7.443   8.297 -0.2559 -0.0048  0.1354
  575POPI   C4A 9190  11.237   7.183   8.037  0.0227  0.1936 -0.0369
  575POPI   C1B 9191  11.370   8.484   8.470 -0.0489  0.0921 -0.1143
  575POPI   C2B 9192  11.307   8.433   7.958  0.2563  0.3824 -0.0653
  575POPI   C3B 9193  11.234   8.071   7.600  0.0064 -0.0532  0.0623
  575POPI   C4B 9194  10.966   7.771   7.385  0.0902  0.0263 -0.0887
  576POPI    C1 9195  15.964   0.010   9.819 -0.1313 -0.0845 -0.0290
  576POPI    C2 9196  16.193   0.143  10.118 -0.4762  0.1445  0.1409
  576POPI    C3 9197  16.203  -0.244  10.016  0.1629  0.1914 -0.0227
  576POPI   PO4 9198  15.909   0.230   9.716 -0.0896  0.0472 -0.1137
  576POPI   GL1 9199  15.883   0.318   9.397 -0.2538  0.1734  0.0318
  576POPI   GL2 9200  15.843  -0.066   9.280 -0.0916 -0.0871 -0.2676
  576POPI   C1A 9201  15.902   0.253   8.940  0.5160  0.0414  0.0122
  576POPI   D2A 9202  15.975   0.221   8.576 -0.0078 -0.0380  0.0725
  576POPI   C3A 9203  16.089   0.414   8.208  0.2051  0.3433  0.0059
  576POPI   C4A 9204  15.849   0.354   7.758 -0.7320 -0.0919  0.1436
  576POPI   C1B 9205  15.606  -0.125   8.793  0.1142  0.1293  0.3330
  576POPI   C2B 9206  15.503  -0.370   8.400  0.0392 -0.1265  0.2161
  576POPI   C3B 9207  15.610  -0.454   7.870  0.0399 -0.0739 -0.3365
  576POPI   C4B 9208  15.671  -0.460   7.387  0.1681 -0.0227  0.0736
  577POPI    C1 9209  13.129   7.952  10.120 -0.0981  0.1714  0.1887
  577POPI    C2 9210  13.256   8.293  10.287  0.1327  0.1324  0.0963
  577POPI    C3 9211  13.080   8.013  10.512 -0.0963  0.3287  0.1652
  577POPI   PO4 9212  13.093   8.070   9.853 -0.0121  0.2077  0.3997
  577POPI   GL1 9213  13.198   8.090   9.435  0.4883  0.0719 -0.2685
  577POPI   GL2 9214  13.228   7.819   9.216  0.2458 -0.1102  0.0458
  577POPI   C1A 9215  13.250   8.350   9.137 -0.1075 -0.0645  0.0902
  577POPI   D2A 9216  13.415   8.673   8.994 -0.3880  0.0138 -0.0616
  577POPI   C3A 9217  13.332   8.635   8.522  0.0985  0.1523 -0.0780
  577POPI   C4A 9218  13.508   8.611   8.100 -0.2684 -0.0672 -0.1146
  577POPI   C1B 9219  13.500   7.680   8.784 -0.0685  0.1974 -0.0011
  577POPI   C2B 9220  13.498   7.704   8.312  0.1540  0.2448 -0.0921
  577POPI   C3B 9221  13.530   7.721   7.944 -0.2231  0.1017 -0.0191
  577POPI   C4B 9222  13.582   7.651   7.593  0.1826 -0.1291  0.1045
  578POPI    C1 9223   9.803  18.263   9.784 -0.0228  0.0719 -0.0153
  578POPI    C2 9224  10.093  18.012   9.899  0.0788  0.1212 -0.1613
  578POPI    C3 9225  10.069  18.378  10.060  0.0362  0.0812 -0.0760
  578POPI   PO4 9226   9.683  18.164   9.618  0.4960  0.0689  0.0043
  578POPI   GL1 9227   9.442  17.983   9.213  0.3735 -0.0587  0.0366
  578POPI   GL2 9228   9.743  18.121   9.049  0.0572  0.1735  0.1724
  578POPI   C1A 9229   9.287  18.250   8.850  0.0555  0.2520  0.0848
  578POPI   D2A 9230   9.215  18.192   8.396 -0.2241  0.3339  0.2165
  578POPI   C3A 9231   8.800  18.251   8.197 -0.1010  0.0797 -0.0853
  578POPI   C4A 9232   8.661  18.272   7.809 -0.3065  0.2587  0.2232
  578POPI   C1B 9233   9.811  18.134   8.630  0.1789 -0.3160  0.2215
  578POPI   C2B 9234   9.841  18.141   8.135 -0.0056  0.1798  0.0103
  578POPI   C3B 9235   9.859  18.394   7.737  0.3522  0.2134 -0.1427
  578POPI   C4B 9236   9.533  18.521   7.463 -0.0350 -0.1824  0.0593
  579POPI    C1 9237  16.695  11.938   9.794 -0.0877  0.3095 -0.0421
  579POPI    C2 9238  16.497  12.220   9.997 -0.2760  0.1319  0.0252
  579POPI    C3 9239  16.607  11.882  10.181 -0.3173  0.0328 -0.1304
  579POPI   PO4 9240  16.776  12.029   9.541 -0.0480 -0.1099 -0.2651
  579POPI   GL1 9241  16.741  12.252   9.150  0.1232 -0.2675  0.1038
  579POPI   GL2 9242  16.626  12.481   9.017 -0.0564 -0.6508  0.0574
  579POPI   C1A 9243  16.958  11.993   8.951 -0.1629 -0.1260 -0.1368
  579POPI   D2A 9244  17.167  11.858   8.641 -0.2100  0.0494  0.1250
  579POPI   C3A 9245  17.023  11.996   8.209 -0.0007 -0.0263  0.0010
  579POPI   C4A 9246  16.879  12.185   7.823  0.0811  0.2760 -0.0363
  579POPI   C1B 9247  16.751  12.392   8.544 -0.5121  0.0227 -0.0963
  579POPI   C2B 9248  16.787  12.560   8.122  0.1941 -0.0115 -0.2383
  579POPI   C3B 9249  16.808  12.666   7.694 -0.2111 -0.0440  0.1337
  579POPI   C4B 9250  16.836  12.623   7.248 -0.0492  0.2342  0.1605
  580POPI    C1 9251  11.234   7.552   9.543  0.0033  0.0440  0.1247
  580POPI    C2 9252  11.069   7.414   9.206  0.1732  0.0715  0.0292
  580POPI    C3 9253  10.836   7.515   9.515  0.0326 -0.2073  0.0173
  580POPI   PO4 9254  11.428   7.339   9.561  0.1812 -0.0196  0.1593
  580POPI   GL1 9255  11.586   7.251   9.189 -0.0133 -0.2728  0.4574
  580POPI   GL2 9256  11.806   7.433   9.290 -0.1267 -0.0693 -0.2825
  580POPI   C1A 9257  11.734   7.266   8.799 -0.1029 -0.2164  0.1451
  580POPI   D2A 9258  11.673   7.135   8.359  0.2424 -0.3687 -0.0280
  580POPI   C3A 9259  11.689   7.272   7.856 -0.0133  0.2857  0.1557
  580POPI   C4A 9260  11.918   7.455   7.620 -0.1941 -0.0195 -0.0011
  580POPI   C1B 9261  11.786   7.736   8.883 -0.1784  0.3320 -0.1416
  580POPI   C2B 9262  11.679   8.055   8.651 -0.1112 -0.2728 -0.3348
  580POPI   C3B 9263  11.739   8.103   8.184  0.2142 -0.0282  0.4678
  580POPI   C4B 9264  11.728   7.941   7.763 -0.1964  0.0222 -0.1105
  581POPI    C1 9265  18.213   1.528  10.225  0.1300 -0.1769  0.2526
  581POPI    C2 9266  17.861   1.366  10.125  0.1019 -0.0144  0.0821
  581POPI    C3 9267  18.034   1.271  10.474 -0.0524 -0.1865  0.1131
  581POPI   PO4 9268  18.269   1.558   9.893 -0.2181 -0.2070 -0.1141
  581POPI   GL1 9269  18.331   1.792   9.499 -0.4385 -0.2454  0.2445
  581POPI   GL2 9270  18.655   1.716   9.595 -0.2734 -0.2622  0.1979
  581POPI   C1A 9271  18.058   1.560   9.142  0.2136 -0.0616  0.1601
  581POPI   D2A 9272  18.105   1.598   8.756 -0.1037 -0.0141 -0.2003
  581POPI   C3A 9273  18.102   1.228   8.468  0.1476 -0.1590  0.3036
  581POPI   C4A 9274  18.144   0.975   8.703  0.0261  0.0162 -0.0761
  581POPI   C1B 9275  18.688   1.623   9.161  0.4098  0.0925  0.0093
  581POPI   C2B 9276  18.634   1.528   8.742  0.1918 -0.4593  0.0534
  581POPI   C3B 9277  18.669   1.656   8.283 -0.1142  0.3486 -0.0065
  581POPI   C4B 9278  19.154   1.737   8.229  0.5242 -0.2958 -0.3709
  582POPI    C1 9279  15.434  12.858   9.545  0.2188 -0.0983  0.3647
  582POPI    C2 9280  15.040  12.870   9.609  0.1741 -0.1075  0.1009
  582POPI    C3 9281  15.288  13.061   9.858 -0.0107  0.0747  0.1491
  582POPI   PO4 9282  15.441  12.815   9.315  0.2657 -0.0815  0.3806
  582POPI   GL1 9283  15.484  12.811   8.896 -0.1443  0.0583  0.2913
  582POPI   GL2 9284  15.439  12.517   8.886  0.1775 -0.0840  0.0103
  582POPI   C1A 9285  15.409  12.894   8.393  0.0363 -0.0406 -0.1113
  582POPI   D2A 9286  15.412  13.034   8.013  0.1267  0.0708 -0.3660
  582POPI   C3A 9287  15.512  12.935   7.469 -0.1197 -0.1025 -0.2053
  582POPI   C4A 9288  15.864  12.808   7.259 -0.2666 -0.2395  0.0531
  582POPI   C1B 9289  15.253  12.408   8.486 -0.3415 -0.1532  0.2175
  582POPI   C2B 9290  15.176  12.573   8.013  0.2289  0.0760  0.1536
  582POPI   C3B 9291  15.020  12.881   7.779 -0.1582  0.0150  0.1816
  582POPI   C4B 9292  15.053  12.954   7.314 -0.0470  0.1399  0.0092
  583POPI    C1 9293   7.418   6.599  10.401  0.1542  0.0670 -0.2982
  583POPI    C2 9294   7.384   6.582  10.799  0.1876  0.1270 -0.2927
  583POPI    C3 9295   7.462   6.250  10.591  0.1317  0.0887 -0.2529
  583POPI   PO4 9296   7.187   6.673  10.238  0.0699 -0.0421  0.2222
  583POPI   GL1 9297   7.119   6.820   9.855  0.2300  0.0440 -0.0287
  583POPI   GL2 9298   7.393   6.886   9.559 -0.0127 -0.2081  0.3405
  583POPI   C1A 9299   6.915   6.685   9.461 -0.0849 -0.2612  0.1241
  583POPI   D2A 9300   6.879   6.493   9.033 -0.1577  0.0021  0.2798
  583POPI   C3A 9301   6.887   6.445   8.690  0.3476  0.1844  0.1515
  583POPI   C4A 9302   6.751   6.442   8.320 -0.2785 -0.3334  0.1003
  583POPI   C1B 9303   7.331   6.884   9.145 -0.0257  0.0676 -0.1441
  583POPI   C2B 9304   7.299   6.688   8.771  0.1574 -0.2933 -0.2636
  583POPI   C3B 9305   7.258   6.638   8.344  0.0885  0.0910 -0.1042
  583POPI   C4B 9306   7.177   6.670   7.960  0.2642 -0.1384 -0.4313
  584POPI    C1 9307  17.744   6.310   9.728  0.0016 -0.0931 -0.1199
  584POPI    C2 9308  17.596   6.194  10.081 -0.0095  0.1198 -0.0535
  584POPI    C3 9309  17.975   6.109   9.985 -0.0220  0.0165 -0.0123
  584POPI   PO4 9310  17.587   6.550   9.694  0.0170 -0.0848 -0.0567
  584POPI   GL1 9311  17.356   6.706   9.396  0.2510  0.1997 -0.1512
  584POPI   GL2 9312  17.052   6.954   9.356  0.3043 -0.0577  0.1307
  584POPI   C1A 9313  17.451   6.623   8.933  0.0225  0.2369 -0.2234
  584POPI   D2A 9314  17.413   6.297   8.767  0.3241 -0.3637 -0.0720
  584POPI   C3A 9315  17.262   6.018   8.459 -0.0903 -0.2301  0.1116
  584POPI   C4A 9316  17.094   6.270   8.145  0.0802  0.0143  0.0042
  584POPI   C1B 9317  16.996   7.019   8.965 -0.1939  0.1730 -0.1735
  584POPI   C2B 9318  17.069   6.994   8.592 -0.3398 -0.0103  0.0065
  584POPI   C3B 9319  17.033   7.262   8.176  0.1072  0.1742 -0.0842
  584POPI   C4B 9320  16.905   7.456   7.812  0.1657  0.3494 -0.0731
  585POPI    C1 9321  13.284   2.459   9.544  0.1319  0.2829  0.2923
  585POPI    C2 9322  12.990   2.729   9.506 -0.1542 -0.0499  0.0784
  585POPI    C3 9323  12.951   2.425   9.764  0.0514 -0.0364  0.1272
  585POPI   PO4 9324  13.394   2.397   9.316  0.1253 -0.0666 -0.0125
  585POPI   GL1 9325  13.482   2.667   8.970  0.0059 -0.3839  0.2492
  585POPI   GL2 9326  13.179   2.374   8.898  0.0446  0.0287  0.0780
  585POPI   C1A 9327  13.704   2.564   8.540  0.2082  0.0676  0.0944
  585POPI   D2A 9328  13.738   2.495   8.075  0.0693  0.3530  0.0866
  585POPI   C3A 9329  13.541   2.434   7.711 -0.0413 -0.0573 -0.0868
  585POPI   C4A 9330  13.555   2.040   7.486 -0.0586 -0.2388 -0.1549
  585POPI   C1B 9331  13.072   2.534   8.522 -0.2882  0.1382  0.1546
  585POPI   C2B 9332  13.137   2.405   8.072 -0.0316 -0.3721 -0.0873
  585POPI   C3B 9333  13.036   2.315   7.756 -0.1901 -0.1157  0.0150
  585POPI   C4B 9334  13.082   2.419   7.358 -0.1201  0.0002 -0.1003
  586POPI    C1 9335  19.019  18.690   9.598  0.0188 -0.0344 -0.0361
  586POPI    C2 9336  19.262  18.955   9.773  0.0982  0.0590 -0.2828
  586POPI    C3 9337  19.184  18.606   9.952  0.3298  0.0723 -0.1522
  586POPI   PO4 9338  18.795  18.738   9.515 -0.2952  0.1962 -0.1664
  586POPI   GL1 9339  18.803  18.876   9.183 -0.2490  0.2135  0.0896
  586POPI   GL2 9340  19.120  19.071   9.266 -0.1247  0.0247 -0.0786
  586POPI   C1A 9341  18.805  19.150   8.823 -0.1438  0.0224  0.0508
  586POPI   D2A 9342  18.925  19.465   8.482  0.1839  0.1867 -0.4544
  586POPI   C3A 9343  19.217  19.248   8.135  0.2361 -0.1693 -0.1682
  586POPI   C4A 9344  19.366  18.997   7.715  0.1024  0.0728  0.0670
  586POPI   C1B 9345  19.349  18.889   8.955  0.3900  0.0269  0.0469
  586POPI   C2B 9346  19.312  18.636   8.522 -0.2029  0.0701 -0.0666
  586POPI   C3B 9347  19.415  18.673   8.073 -0.2035  0.1748 -0.0676
  586POPI   C4B 9348  19.726  18.749   7.855  0.1030  0.0478  0.3117
  587POPI    C1 9349   7.892  18.172   9.643 -0.0237 -0.1051  0.0474
  587POPI    C2 9350   8.041  17.896   9.395  0.0678  0.0436 -0.0645
  587POPI    C3 9351   7.803  17.786   9.697  0.1066 -0.1574 -0.1062
  587POPI   PO4 9352   7.762  18.347   9.523  0.2084  0.1292  0.0420
  587POPI   GL1 9353   7.642  18.277   9.077 -0.1088  0.2487 -0.0510
  587POPI   GL2 9354   7.951  18.189   8.987 -0.2320 -0.1291 -0.0750
  587POPI   C1A 9355   7.571  18.397   8.745  0.1389 -0.0511 -0.2970
  587POPI   D2A 9356   7.511  18.422   8.321 -0.0456 -0.0615  0.0515
  587POPI   C3A 9357   7.187  18.106   8.448 -0.2550  0.2662 -0.0837
  587POPI   C4A 9358   6.772  18.006   8.573 -0.1602 -0.1852  0.1308
  587POPI   C1B 9359   7.987  18.168   8.499 -0.0947  0.3335  0.1673
  587POPI   C2B 9360   7.926  18.327   8.040  0.1184  0.0009  0.1609
  587POPI   C3B 9361   7.656  18.352   7.657 -0.1998  0.1894  0.0558
  587POPI   C4B 9362   7.859  18.435   7.299  0.0165  0.0739 -0.0707
  588DPPI    C1 9363   7.883   0.900   9.980  0.2916  0.0532 -0.1153
  588DPPI    C2 9364   7.860   1.052  10.349  0.0177 -0.1502 -0.0455
  588DPPI    C3 9365   7.929   0.661  10.298 -0.2038 -0.1705 -0.2023
  588DPPI   PO4 9366   7.910   1.126   9.809  0.4248  0.1457  0.1551
  588DPPI   GL1 9367   7.902   1.224   9.410  0.3399  0.1570 -0.0286
  588DPPI   GL2 9368   8.246   1.229   9.436  0.2250  0.0238 -0.1115
  588DPPI   C1A 9369   7.684   1.230   8.985  0.3452  0.0663 -0.1288
  588DPPI   C2A 9370   7.868   1.015   8.638  0.4616  0.1166 -0.1388
  588DPPI   C3A 9371   7.782   0.990   8.159 -0.0037 -0.1047 -0.1051
  588DPPI   C4A 9372   7.571   0.896   7.821 -0.1046  0.1707 -0.2571
  588DPPI   C1B 9373   8.253   1.147   9.009 -0.1292 -0.2009  0.1649
  588DPPI   C2B 9374   8.418   1.219   8.581 -0.1329 -0.3041 -0.1396
  588DPPI   C3B 9375   8.293   1.024   8.311  0.3623 -0.2070 -0.1455
  588DPPI   C4B 9376   8.042   0.566   8.328  0.0665  0.0885  0.1723
  589DPPI    C1 9377   1.309  17.268  10.058  0.0859 -0.2194 -0.0638
  589DPPI    C2 9378   1.161  17.354  10.419 -0.0705  0.3496 -0.2522
  589DPPI    C3 9379   1.550  17.406  10.345  0.0446 -0.1663 -0.0546
  589DPPI   PO4 9380   1.221  17.448   9.803  0.0152  0.1787 -0.2928
  589DPPI   GL1 9381   1.349  17.681   9.421  0.1311 -0.1777  0.1903
  589DPPI   GL2 9382   1.267  17.267   9.322  0.0643 -0.1489 -0.1859
  589DPPI   C1A 9383   1.672  17.615   9.017  0.1419 -0.0559  0.1953
  589DPPI   C2A 9384   1.859  17.565   8.680 -0.0142  0.0482  0.2516
  589DPPI   C3A 9385   2.051  17.797   8.385 -0.2773  0.0617 -0.2263
  589DPPI   C4A 9386   1.714  18.053   8.203 -0.0001 -0.4023 -0.1178
  589DPPI   C1B 9387   1.057  16.951   9.001  0.0920  0.5318  0.2217
  589DPPI   C2B 9388   0.947  17.069   8.514  0.0139  0.1714 -0.2189
  589DPPI   C3B 9389   0.998  17.216   8.150  0.2515 -0.0056 -0.1529
  589DPPI   C4B 9390   1.000  17.378   7.752  0.0914 -0.1581  0.1809
  590DPPI    C1 9391  18.929   5.954  10.787  0.2368 -0.2098  0.0795
  590DPPI    C2 9392  19.283   6.115  10.694  0.1940 -0.1818 -0.0354
  590DPPI    C3 9393  19.118   6.188  11.051  0.1193  0.1279 -0.1294
  590DPPI   PO4 9394  18.975   5.767  10.660 -0.2544  0.0328  0.0688
  590DPPI   GL1 9395  18.977   5.681  10.147 -0.0070  0.2649  0.2660
  590DPPI   GL2 9396  18.702   5.492  10.197 -0.0472  0.1507  0.2655
  590DPPI   C1A 9397  19.206   5.682   9.731 -0.2151 -0.2142 -0.2508
  590DPPI   C2A 9398  19.311   5.767   9.268  0.1082 -0.0756 -0.1129
  590DPPI   C3A 9399  19.175   5.664   8.829  0.0433  0.1038  0.0137
  590DPPI   C4A 9400  19.176   5.422   8.362 -0.3655 -0.1970  0.2395
  590DPPI   C1B 9401  18.663   5.595   9.701  0.0154 -0.0126 -0.3154
  590DPPI   C2B 9402  18.782   5.598   9.311 -0.0610 -0.1095  0.0414
  590DPPI   C3B 9403  18.650   5.651   8.971  0.0179 -0.1022  0.2191
  590DPPI   C4B 9404  18.268   5.347   8.726  0.0787 -0.5056 -0.4106
  591DPPI    C1 9405  17.078  18.250   9.794 -0.1757  0.1390  0.0984
  591DPPI    C2 9406  16.911  17.888   9.757 -0.1623  0.1370  0.0597
  591DPPI    C3 9407  16.714  18.181   9.946 -0.2334  0.1500 -0.0340
  591DPPI   PO4 9408  17.337  18.280   9.547  0.0324 -0.1887  0.2366
  591DPPI   GL1 9409  17.256  18.245   9.075 -0.3986 -0.1003  0.0544
  591DPPI   GL2 9410  17.369  17.975   8.935  0.0372  0.0223  0.0374
  591DPPI   C1A 9411  17.349  18.513   8.664 -0.1762  0.2203  0.4163
  591DPPI   C2A 9412  17.458  18.647   8.239 -0.0691 -0.1750  0.1124
  591DPPI   C3A 9413  17.405  18.650   7.802 -0.0391 -0.2446 -0.2124
  591DPPI   C4A 9414  17.458  18.815   7.389  0.2478 -0.0333 -0.0607
  591DPPI   C1B 9415  17.747  18.185   8.849  0.0939 -0.0090 -0.1066
  591DPPI   C2B 9416  17.865  18.197   8.423 -0.1097  0.2880 -0.0032
  591DPPI   C3B 9417  17.794  18.373   8.008 -0.0502 -0.1682  0.0360
  591DPPI   C4B 9418  17.902  18.771   7.686 -0.1990  0.0080 -0.0142
  592DPPI    C1 9419   1.647   9.807  10.060 -0.1060  0.0888  0.0703
  592DPPI    C2 9420   1.995   9.956  10.189  0.1927 -0.3676 -0.1811
  592DPPI    C3 9421   1.653  10.062  10.368  0.4375  0.2219 -0.0405
  592DPPI   PO4 9422   1.902   9.747   9.740 -0.1490 -0.0185  0.1176
  592DPPI   GL1 9423   2.006   9.809   9.358  0.1029 -0.0310 -0.1630
  592DPPI   GL2 9424   1.679   9.715   9.266  0.0755  0.3100 -0.2086
  592DPPI   C1A 9425   1.966   9.851   8.921 -0.0329  0.1466  0.2276
  592DPPI   C2A 9426   1.902   9.619   8.499 -0.3290  0.0056  0.2876
  592DPPI   C3A 9427   1.823   9.735   8.049  0.2688 -0.0697  0.0387
  592DPPI   C4A 9428   1.881   9.697   7.670 -0.1224  0.0812  0.0893
  592DPPI   C1B 9429   1.773   9.376   8.917  0.1286  0.1756  0.1536
  592DPPI   C2B 9430   1.815   9.059   8.537 -0.2220 -0.2653 -0.0892
  592DPPI   C3B 9431   1.586   8.846   8.298  0.3229  0.0632  0.1834
  592DPPI   C4B 9432   1.218   8.872   8.027 -0.1554 -0.1060 -0.0706
  593DPPI    C1 9433   9.482  16.362   9.739 -0.1813  0.1150 -0.2022
  593DPPI    C2 9434   9.631  16.227  10.086  0.0516  0.3815 -0.1950
  593DPPI    C3 9435   9.247  16.162   9.994  0.0916 -0.0536 -0.0770
  593DPPI   PO4 9436   9.639  16.336   9.531  0.2230 -0.1383  0.0177
  593DPPI   GL1 9437   9.703  16.437   9.156  0.2502 -0.1561 -0.1792
  593DPPI   GL2 9438   9.367  16.461   9.037  0.0655 -0.1547  0.2774
  593DPPI   C1A 9439   9.905  16.530   8.757 -0.1399  0.1273  0.0207
  593DPPI   C2A 9440   9.890  16.727   8.412 -0.0493  0.2545  0.1481
  593DPPI   C3A 9441   9.678  16.971   8.007 -0.1045  0.3780  0.0951
  593DPPI   C4A 9442   9.978  17.072   7.640 -0.0003  0.1137  0.1766
  593DPPI   C1B 9443   9.426  16.469   8.561 -0.2437 -0.0683  0.3220
  593DPPI   C2B 9444   9.484  16.526   8.195  0.2159 -0.1969 -0.3175
  593DPPI   C3B 9445   9.542  16.540   7.810  0.0760 -0.0234  0.3535
  593DPPI   C4B 9446   9.755  16.568   7.455 -0.0660  0.0467  0.1089
  594DPPI    C1 9447   6.702   2.114  10.527 -0.1252  0.2354  0.1973
  594DPPI    C2 9448   6.364   1.906  10.576  0.0057 -0.0537 -0.0862
  594DPPI    C3 9449   6.681   1.832  10.809  0.0760 -0.2279 -0.2349
  594DPPI   PO4 9450   6.777   2.086  10.165  0.0108 -0.1259 -0.0014
  594DPPI   GL1 9451   6.689   1.898   9.788 -0.1152 -0.0044  0.1398
  594DPPI   GL2 9452   6.448   1.770   9.835  0.1060  0.0878  0.1076
  594DPPI   C1A 9453   6.799   1.727   9.459  0.3099  0.2084  0.1085
  594DPPI   C2A 9454   6.908   1.835   9.119 -0.1000  0.1346  0.0219
  594DPPI   C3A 9455   6.885   1.676   8.661 -0.1693  0.1254 -0.0076
  594DPPI   C4A 9456   7.202   1.712   8.288 -0.2607  0.1510  0.0633
  594DPPI   C1B 9457   6.342   1.999   9.435  0.1293 -0.1523  0.1761
  594DPPI   C2B 9458   6.245   2.465   9.331 -0.1492 -0.0945  0.1086
  594DPPI   C3B 9459   6.352   2.671   9.002 -0.1172  0.0563 -0.1244
  594DPPI   C4B 9460   6.355   2.434   8.711 -0.0297 -0.0694 -0.0694
  595DPPI    C1 9461   9.202   6.371   9.912 -0.0643  0.2371  0.0802
  595DPPI    C2 9462   9.070   6.187  10.242  0.1386 -0.3829 -0.1684
  595DPPI    C3 9463   9.356   6.466  10.268 -0.0110 -0.2583  0.1970
  595DPPI   PO4 9464   9.054   6.364   9.749  0.1547  0.1174  0.2309
  595DPPI   GL1 9465   8.873   6.253   9.453  0.1202  0.2360  0.0343
  595DPPI   GL2 9466   8.844   6.575   9.318 -0.0890 -0.0121 -0.0166
  595DPPI   C1A 9467   8.852   6.212   8.954  0.1054 -0.2875 -0.0137
  595DPPI   C2A 9468   8.654   5.968   8.654  0.0850  0.1183  0.0773
  595DPPI   C3A 9469   8.472   6.081   8.243  0.2192  0.1072 -0.2820
  595DPPI   C4A 9470   8.581   5.929   7.866 -0.1566 -0.3370 -0.0424
  595DPPI   C1B 9471   8.528   6.603   8.924  0.1835  0.0741  0.1098
  595DPPI   C2B 9472   8.246   6.941   8.741 -0.1590 -0.5039  0.0317
  595DPPI   C3B 9473   7.800   6.858   8.485  0.0115  0.2465  0.1480
  595DPPI   C4B 9474   7.799   6.945   8.045 -0.0659  0.1221 -0.1373
  596DPPI    C1 9475   7.459  10.403   9.945  0.0102 -0.0766 -0.1142
  596DPPI    C2 9476   7.073  10.434  10.042  0.0305 -0.1362 -0.0130
  596DPPI    C3 9477   7.340  10.684  10.204  0.0303 -0.0746 -0.1070
  596DPPI   PO4 9478   7.495  10.349   9.688  0.3397 -0.0445  0.0502
  596DPPI   GL1 9479   7.300  10.280   9.301  0.0469  0.0002 -0.0747
  596DPPI   GL2 9480   7.055  10.220   9.117  0.3494 -0.0546 -0.1706
  596DPPI   C1A 9481   7.597  10.441   8.969 -0.0950  0.2696  0.2021
  596DPPI   C2A 9482   7.640  10.515   8.534  0.4527 -0.1064 -0.3100
  596DPPI   C3A 9483   7.651  10.572   8.066 -0.2142 -0.2827  0.3040
  596DPPI   C4A 9484   7.397  10.787   7.829 -0.0857  0.1483 -0.0853
  596DPPI   C1B 9485   7.155  10.142   8.694  0.1287 -0.0891 -0.1239
  596DPPI   C2B 9486   7.169  10.266   8.270  0.2554  0.0062 -0.1440
  596DPPI   C3B 9487   7.188  10.262   7.792  0.0087 -0.2287 -0.2893
  596DPPI   C4B 9488   7.163  10.131   7.517 -0.0527 -0.3183  0.3524
  597PYPI    C1 9489   3.778  11.265   9.821 -0.0182  0.3425 -0.2209
  597PYPI    C2 9490   3.405  11.239   9.963 -0.0268 -0.1293 -0.3112
  597PYPI    C3 9491   3.681  11.447  10.164 -0.1991 -0.2461  0.0553
  597PYPI   PO4 9492   3.778  11.015   9.692  0.3459 -0.1655 -0.0832
  597PYPI   GL1 9493   3.773  10.963   9.300 -0.1703  0.0644  0.0428
  597PYPI   GL2 9494   3.823  11.189   9.083 -0.1413  0.1212  0.0829
  597PYPI   C1A 9495   3.736  10.699   8.964 -0.2868 -0.1412  0.2328
  597PYPI   C2A 9496   4.016  10.626   8.517  0.1207  0.1438  0.0698
  597PYPI   D3A 9497   4.041  10.713   8.134  0.0910  0.0978  0.1100
  597PYPI   C4A 9498   4.090  10.850   7.719  0.2988  0.1773  0.0941
  597PYPI   C1B 9499   3.529  11.479   8.733 -0.1230 -0.0066 -0.0800
  597PYPI   C2B 9500   3.246  11.588   8.362  0.0368 -0.2469 -0.1586
  597PYPI   C3B 9501   3.133  11.537   7.927  0.2420 -0.1041 -0.3974
  597PYPI   C4B 9502   2.972  11.627   7.473  0.0632 -0.0884 -0.0308
  598PYPI    C1 9503  10.704   4.689   9.833  0.1404  0.2032 -0.1896
  598PYPI    C2 9504  10.635   5.051   9.989 -0.0461  0.1719 -0.1970
  598PYPI    C3 9505  10.527   4.723  10.190  0.3975  0.1086 -0.0507
  598PYPI   PO4 9506  10.655   4.794   9.498  0.0097 -0.0522  0.1157
  598PYPI   GL1 9507  10.642   4.700   9.197  0.1575  0.0891  0.1596
  598PYPI   GL2 9508  10.853   4.954   9.052  0.2377 -0.0252 -0.0769
  598PYPI   C1A 9509  10.237   4.620   9.060  0.1544 -0.0578  0.2343
  598PYPI   C2A 9510  10.033   4.667   8.707  0.1246  0.0151  0.1019
  598PYPI   D3A 9511   9.859   4.592   8.280  0.0558  0.1222 -0.0370
  598PYPI   C4A 9512   9.897   4.640   7.875 -0.2079  0.3093 -0.0180
  598PYPI   C1B 9513  10.580   4.904   8.732 -0.0396  0.1393 -0.1780
  598PYPI   C2B 9514  10.277   5.096   8.443 -0.3216  0.0075  0.2105
  598PYPI   C3B 9515  10.229   5.292   8.105  0.0720 -0.0220 -0.0827
  598PYPI   C4B 9516  10.075   5.224   7.672 -0.3098  0.0295 -0.0314
  599PYPI    C1 9517   3.548  17.385   9.723 -0.2711  0.1745  0.1185
  599PYPI    C2 9518   3.591  17.430  10.118 -0.1696 -0.2055  0.1548
  599PYPI    C3 9519   3.899  17.505   9.874 -0.1838 -0.1259  0.1610
  599PYPI   PO4 9520   3.387  17.213   9.730  0.2497 -0.1121 -0.0535
  599PYPI   GL1 9521   3.379  17.056   9.383  0.0740  0.0033 -0.1037
  599PYPI   GL2 9522   3.578  17.114   9.240 -0.0440  0.0467  0.1487
  599PYPI   C1A 9523   3.158  17.047   8.991 -0.3111  0.4619 -0.2727
  599PYPI   C2A 9524   3.168  17.020   8.509  0.0477  0.1694  0.0383
  599PYPI   D3A 9525   3.228  16.752   8.236  0.1438 -0.0179  0.1609
  599PYPI   C4A 9526   3.432  16.960   7.825 -0.2193  0.2640  0.3022
  599PYPI   C1B 9527   3.657  16.929   8.795 -0.0173  0.1771 -0.3056
  599PYPI   C2B 9528   4.137  16.828   8.612 -0.4063 -0.2472 -0.1574
  599PYPI   C3B 9529   4.404  16.822   8.225  0.0110  0.2066  0.1225
  599PYPI   C4B 9530   4.872  16.789   8.059  0.2050 -0.1319 -0.1008
  600PYPI    C1 9531  10.371  17.587   9.800 -0.0168  0.0690  0.1960
  600PYPI    C2 9532  10.033  17.436   9.952 -0.1380  0.0664 -0.0692
  600PYPI    C3 9533  10.301  17.610  10.193 -0.3049  0.0246  0.1497
  600PYPI   PO4 9534  10.192  17.759   9.489 -0.1495 -0.0203  0.2773
  600PYPI   GL1 9535  10.080  17.684   9.067  0.1777  0.5062  0.0343
  600PYPI   GL2 9536   9.886  17.388   8.981  0.0864 -0.0332 -0.3213
  600PYPI   C1A 9537  10.194  17.666   8.661  0.2292  0.0169  0.1080
  600PYPI   C2A 9538  10.277  17.736   8.230  0.0689 -0.1862  0.0541
  600PYPI   D3A 9539  10.280  17.402   7.835  0.0511  0.0458 -0.1237
  600PYPI   C4A 9540  10.261  17.495   7.361 -0.2080 -0.1130 -0.2230
  600PYPI   C1B 9541   9.616  17.591   8.727 -0.4841  0.1184  0.3115
  600PYPI   C2B 9542   9.497  17.797   8.252 -0.0062  0.0389 -0.0710
  600PYPI   C3B 9543   9.471  17.877   7.839  0.0474  0.2232 -0.1728
  600PYPI   C4B 9544   9.218  17.755   7.480 -0.0456  0.0588 -0.1911
  601PYPI    C1 9545  14.932   5.768  10.159 -0.0883  0.2628 -0.0451
  601PYPI    C2 9546  15.157   5.917  10.455 -0.2197  0.0425  0.1702
  601PYPI    C3 9547  14.819   5.722  10.540 -0.0318 -0.4184 -0.0976
  601PYPI   PO4 9548  15.105   5.702   9.923  0.2520 -0.0310  0.0332
  601PYPI   GL1 9549  15.137   5.619   9.514  0.4289 -0.0468  0.1295
  601PYPI   GL2 9550  15.453   5.879   9.489 -0.3969 -0.1432 -0.0795
  601PYPI   C1A 9551  15.024   5.658   9.069 -0.2293  0.2317  0.0007
  601PYPI   C2A 9552  15.104   5.943   8.779 -0.1758 -0.0069 -0.2233
  601PYPI   D3A 9553  15.345   6.327   8.828 -0.1387 -0.2589 -0.2930
  601PYPI   C4A 9554  15.593   6.490   8.554  0.0793  0.2598 -0.1514
  601PYPI   C1B 9555  15.501   5.922   9.054 -0.0434  0.0132 -0.0084
  601PYPI   C2B 9556  15.625   5.940   8.642 -0.0464  0.1255  0.0610
  601PYPI   C3B 9557  15.717   5.883   8.213 -0.3960  0.3016 -0.2293
  601PYPI   C4B 9558  16.147   5.999   8.046 -0.2189 -0.0662 -0.0949
  602PYPI    C1 9559   1.371   5.847  10.384 -0.2124 -0.1579  0.1079
  602PYPI    C2 9560   1.677   5.592  10.349  0.0181  0.1276  0.0112
  602PYPI    C3 9561   1.712   5.916  10.581 -0.1805  0.2069 -0.0677
  602PYPI   PO4 9562   1.266   5.950  10.166 -0.0458  0.0508 -0.1508
  602PYPI   GL1 9563   1.079   5.855   9.775  0.0156 -0.2065  0.1944
  602PYPI   GL2 9564   0.901   6.116   9.715 -0.2713 -0.0817 -0.2155
  602PYPI   C1A 9565   0.800   5.545   9.474  0.2060 -0.2217  0.2735
  602PYPI   C2A 9566   0.914   5.408   9.026  0.0660 -0.1429  0.2980
  602PYPI   D3A 9567   1.047   5.712   8.830  0.1693 -0.2592 -0.2246
  602PYPI   C4A 9568   1.071   5.572   8.420  0.3321  0.0745  0.0698
  602PYPI   C1B 9569   1.128   6.447   9.556 -0.5038  0.3350  0.2141
  602PYPI   C2B 9570   1.096   6.534   9.161 -0.5339  0.1035  0.3336
  602PYPI   C3B 9571   1.043   6.384   8.810  0.3206  0.1722 -0.1353
  602PYPI   C4B 9572   1.175   6.419   8.437 -0.2312 -0.0975 -0.2305
  603ERGO   ROH 9573   1.110  12.520   5.780 -0.1287 -0.3977 -0.0742
  603ERGO    R1 9574   1.257  12.549   6.020 -0.0748 -0.2511 -0.1228
  603ERGO    R2 9575   1.302  12.796   6.138 -0.0361 -0.1725 -0.2862
  603ERGO    R3 9576   1.191  12.676   6.355 -0.0001 -0.0333 -0.1909
  603ERGO    R4 9577   1.319  12.917   6.461 -0.0261  0.0446 -0.3671
  603ERGO    R5 9578   1.349  12.713   6.531  0.0036  0.1034 -0.2294
  603ERGO    C1 9579   1.225  12.875   6.853  0.0136  0.3016 -0.3247
  603ERGO    C2 9580   1.366  12.821   7.109  0.0645 -0.1535 -0.0241
  604ERGO   ROH 9581   7.985   0.709   9.576  0.1513  0.1712  0.0266
  604ERGO    R1 9582   7.959   0.690   9.295  0.1450  0.1966  0.0260
  604ERGO    R2 9583   8.033   0.464   9.154  0.1278  0.2041  0.0071
  604ERGO    R3 9584   7.778   0.478   9.060  0.1265  0.2284  0.0116
  604ERGO    R4 9585   7.939   0.404   8.827  0.0958  0.0991  0.0344
  604ERGO    R5 9586   7.800   0.571   8.841  0.1373  0.1373 -0.0256
  604ERGO    C1 9587   7.645   0.382   8.549  0.0759  0.0608  0.0546
  604ERGO    C2 9588   7.509   0.103   8.339  0.1466 -0.1671 -0.0026
  605ERGO   ROH 9589   4.607  18.014   9.529  0.0488 -0.4591  0.0832
  605ERGO    R1 9590   4.488  17.916   9.292 -0.0525 -0.5132  0.1555
  605ERGO    R2 9591   4.246  17.784   9.290 -0.4148  0.1149  0.2089
  605ERGO    R3 9592   4.181  17.973   9.106  0.2057  0.0270 -0.1291
  605ERGO    R4 9593   4.064  17.725   9.002 -0.3600  0.1525  0.1662
  605ERGO    R5 9594   4.198  17.860   8.895  0.0770 -0.3407  0.0498
  605ERGO    C1 9595   3.896  17.868   8.662  0.2544  0.0914 -0.1762
  605ERGO    C2 9596   3.710  17.765   8.356  0.0332 -0.0729 -0.0111
  606ERGO   ROH 9597   5.495   7.758   9.644 -0.1826 -0.0865  0.0913
  606ERGO    R1 9598   5.365   7.867   9.417 -0.0942 -0.0703  0.0481
  606ERGO    R2 9599   5.503   7.954   9.194 -0.0095 -0.0797  0.0979
  606ERGO    R3 9600   5.337   7.783   9.064  0.0189 -0.0607  0.0357
  606ERGO    R4 9601   5.441   7.958   8.854  0.2190 -0.1488  0.0536
  606ERGO    R5 9602   5.231   7.917   8.897  0.1741 -0.0681 -0.0721
  606ERGO    C1 9603   5.248   7.799   8.535  0.3788 -0.1711 -0.0304
  606ERGO    C2 9604   5.294   7.802   8.130  0.2426 -0.0543 -0.0790
  607ERGO   ROH 9605   6.729   4.536   9.821  0.2366 -0.0545  0.0720
  607ERGO    R1 9606   6.765   4.384   9.585  0.3045  0.0412  0.0198
  607ERGO    R2 9607   6.585   4.389   9.376  0.1148 -0.2348  0.1677
  607ERGO    R3 9608   6.805   4.453   9.230 -0.1063  0.1714 -0.0059
  607ERGO    R4 9609   6.623   4.325   9.038  0.0488 -0.3493  0.1814
  607ERGO    R5 9610   6.830   4.269   9.077  0.2055  0.1304  0.0897
  607ERGO    C1 9611   6.852   4.348   8.705 -0.1973 -0.0347  0.0265
  607ERGO    C2 9612   6.756   4.355   8.372  0.1467 -0.2792  0.2719
  608ERGO   ROH 9613   2.309  18.903   6.160 -0.0003 -0.1279  0.1229
  608ERGO    R1 9614   2.347  18.951   6.436  0.0852 -0.2307  0.1287
  608ERGO    R2 9615   2.142  19.032   6.603  0.2028  0.0023  0.1566
  608ERGO    R3 9616   2.219  18.815   6.749 -0.0652 -0.1267  0.1146
  608ERGO    R4 9617   2.026  18.956   6.920 -0.0566 -0.0304  0.0571
  608ERGO    R5 9618   2.229  18.897   6.974 -0.1332 -0.2245  0.1570
  608ERGO    C1 9619   2.030  18.710   7.241 -0.4593 -0.1706 -0.0403
  608ERGO    C2 9620   1.836  18.679   7.505  0.0144 -0.3298 -0.0062
  609ERGO   ROH 9621   6.787  15.486   8.972 -0.1683 -0.4602 -0.0423
  609ERGO    R1 9622   6.927  15.540   8.733 -0.1153 -0.2728  0.0303
  609ERGO    R2 9623   6.886  15.395   8.501 -0.0586 -0.0943 -0.0853
  609ERGO    R3 9624   6.842  15.641   8.393 -0.0360 -0.0135  0.0833
  609ERGO    R4 9625   6.879  15.464   8.162 -0.1848  0.1022 -0.0454
  609ERGO    R5 9626   6.987  15.649   8.203 -0.1101  0.0533  0.0224
  609ERGO    C1 9627   6.834  15.735   7.864 -0.2369  0.2923  0.1362
  609ERGO    C2 9628   7.015  15.777   7.545 -0.0460  0.2549  0.0088
  610ERGO   ROH 9629   9.230   9.638   5.976  0.1406 -0.3797  0.0247
  610ERGO    R1 9630   9.226   9.624   6.259 -0.0280 -0.3437  0.0261
  610ERGO    R2 9631   9.449   9.676   6.414 -0.0621 -0.5140  0.1470
  610ERGO    R3 9632   9.282   9.853   6.535  0.0156 -0.3559  0.0247
  610ERGO    R4 9633   9.504   9.819   6.724  0.0858 -0.1563 -0.0392
  610ERGO    R5 9634   9.292   9.795   6.767  0.1109 -0.0834  0.0869
  610ERGO    C1 9635   9.380  10.069   7.018  0.2449  0.2005 -0.2625
  610ERGO    C2 9636   9.347  10.410   7.076  0.0840  0.0338  0.1248
  611ERGO   ROH 9637  14.943  14.781   5.758  0.1003 -0.1512  0.0411
  611ERGO    R1 9638  15.043  14.939   5.971  0.0392 -0.1158  0.0432
  611ERGO    R2 9639  14.930  14.939   6.223  0.0190 -0.1374  0.0313
  611ERGO    R3 9640  15.183  14.879   6.301  0.0291 -0.0632  0.0579
  611ERGO    R4 9641  15.086  15.068   6.503 -0.0866 -0.1647  0.1038
  611ERGO    R5 9642  15.269  15.085   6.387 -0.0697 -0.0537  0.1415
  611ERGO    C1 9643  15.414  15.087   6.740 -0.1387 -0.1109  0.1709
  611ERGO    C2 9644  15.340  14.892   7.151 -0.0639  0.0354 -0.0815
  612ERGO   ROH 9645   9.486   1.204   5.709 -0.0013 -0.0456  0.0203
  612ERGO    R1 9646   9.434   1.141   5.980  0.0723 -0.0699  0.0297
  612ERGO    R2 9647   9.589   0.963   6.123  0.2338  0.0635  0.0318
  612ERGO    R3 9648   9.610   1.171   6.297  0.0772  0.0983  0.0107
  612ERGO    R4 9649   9.656   0.932   6.461 -0.0572  0.1416  0.0990
  612ERGO    R5 9650   9.511   1.090   6.499 -0.0931  0.1419 -0.0582
  612ERGO    C1 9651   9.715   1.109   6.820 -0.3735  0.2198  0.1184
  612ERGO    C2 9652   9.815   1.049   7.164 -0.1931  0.0273 -0.1384
  613ERGO   ROH 9653   7.664   3.331   9.505  0.4058  0.1912  0.0747
  613ERGO    R1 9654   7.736   3.332   9.231  0.2815 -0.0289  0.0393
  613ERGO    R2 9655   7.751   3.100   9.080 -0.1065 -0.1204  0.1319
  613ERGO    R3 9656   7.581   3.235   8.917 -0.0001  0.0432  0.1533
  613ERGO    R4 9657   7.737   3.067   8.737 -0.1986 -0.1283  0.1359
  613ERGO    R5 9658   7.709   3.282   8.722  0.0157 -0.0983  0.1281
  613ERGO    C1 9659   7.569   3.175   8.384 -0.1523  0.0208  0.1583
  613ERGO    C2 9660   7.464   3.117   8.063 -0.3309 -0.4055  0.0421
  614ERGO   ROH 9661   7.042   7.259   9.566  0.0464  0.1921 -0.0963
  614ERGO    R1 9662   6.934   7.144   9.331  0.0619  0.0396 -0.0301
  614ERGO    R2 9663   6.789   7.290   9.147 -0.0331 -0.1065 -0.0727
  614ERGO    R3 9664   6.972   7.191   8.972 -0.0149 -0.1002 -0.0574
  614ERGO    R4 9665   6.713   7.141   8.844  0.0062  0.0599 -0.1661
  614ERGO    R5 9666   6.870   6.994   8.883 -0.0647 -0.0201 -0.1807
  614ERGO    C1 9667   6.841   6.961   8.504  0.0462  0.1626 -0.2062
  614ERGO    C2 9668   6.780   7.010   8.192 -0.0629 -0.0225 -0.1802
  615ERGO   ROH 9669   4.182   3.810   6.462 -0.1863 -0.1760 -0.0638
  615ERGO    R1 9670   4.209   3.846   6.741 -0.0612 -0.2649 -0.0630
  615ERGO    R2 9671   4.048   4.018   6.886  0.2306 -0.0354  0.0090
  615ERGO    R3 9672   4.002   3.796   7.036 -0.0724  0.0008 -0.0252
  615ERGO    R4 9673   3.904   4.018   7.200  0.0276  0.0750 -0.0823
  615ERGO    R5 9674   4.047   3.866   7.260 -0.1549 -0.0568  0.0051
  615ERGO    C1 9675   3.777   3.810   7.524 -0.3750  0.1733 -0.1676
  615ERGO    C2 9676   3.478   3.782   7.755 -0.0733 -0.1917 -0.0962
  616ERGO   ROH 9677   2.641  12.985   5.920  0.0946  0.0287  0.0714
  616ERGO    R1 9678   2.436  13.014   6.113  0.0868  0.1462  0.0465
  616ERGO    R2 9679   2.375  12.816   6.297 -0.0792  0.1621  0.0105
  616ERGO    R3 9680   2.414  13.016   6.477  0.0376  0.1104  0.0438
  616ERGO    R4 9681   2.200  12.852   6.592  0.1034  0.0849  0.1299
  616ERGO    R5 9682   2.194  13.067   6.557  0.0877  0.0952  0.1938
  616ERGO    C1 9683   2.135  13.061   6.933  0.3194 -0.0084  0.2306
  616ERGO    C2 9684   2.094  12.905   7.173 -0.0521 -0.1460 -0.1045
  617ERGO   ROH 9685  15.868  13.938   5.682 -0.1534  0.1431 -0.1105
  617ERGO    R1 9686  15.966  14.041   5.927 -0.0958 -0.0021 -0.0716
  617ERGO    R2 9687  16.029  14.308   5.962 -0.0353 -0.0324  0.0556
  617ERGO    R3 9688  15.858  14.288   6.172 -0.0085 -0.1040  0.0707
  617ERGO    R4 9689  16.044  14.500   6.249 -0.1532  0.0457  0.0106
  617ERGO    R5 9690  15.996  14.322   6.365 -0.0207  0.0378  0.0548
  617ERGO    C1 9691  15.893  14.593   6.614 -0.1967  0.0239 -0.0013
  617ERGO    C2 9692  15.775  14.723   7.004  0.1523 -0.3213 -0.1147
  618ERGO   ROH 9693   6.072  18.726   6.197  0.2267 -0.0363  0.0608
  618ERGO    R1 9694   6.153  18.847   6.440  0.1105 -0.1916  0.1791
  618ERGO    R2 9695   6.003  19.043   6.565  0.1595 -0.1100  0.1123
  618ERGO    R3 9696   6.021  18.875   6.778 -0.1752 -0.2049  0.0718
  618ERGO    R4 9697   5.961  19.137   6.895  0.1605 -0.1487  0.1235
  618ERGO    R5 9698   6.127  19.006   6.948 -0.0511 -0.4103  0.1555
  618ERGO    C1 9699   5.954  19.034   7.287 -0.1532 -0.2602  0.0921
  618ERGO    C2 9700   5.834  18.967   7.555  0.1356  0.2104  0.1899
  619ERGO   ROH 9701   1.993  16.798   9.492  0.2079  0.0944 -0.0661
  619ERGO    R1 9702   1.999  16.619   9.272 -0.0139 -0.0781  0.0634
  619ERGO    R2 9703   1.778  16.474   9.193 -0.2170  0.1730  0.1412
  619ERGO    R3 9704   1.828  16.589   8.952 -0.0165 -0.0667  0.0651
  619ERGO    R4 9705   1.693  16.337   8.888 -0.1455 -0.0262  0.2094
  619ERGO    R5 9706   1.885  16.405   8.809 -0.0635 -0.2219  0.2485
  619ERGO    C1 9707   1.691  16.365   8.483  0.0843 -0.3674  0.1776
  619ERGO    C2 9708   1.788  16.329   8.147  0.3003  0.2991  0.4897
  620ERGO   ROH 9709  14.709   7.305   9.198 -0.0509  0.0924  0.0765
  620ERGO    R1 9710  14.852   7.369   8.962  0.1651 -0.0416  0.1672
  620ERGO    R2 9711  14.979   7.177   8.808 -0.0927 -0.1960  0.1362
  620ERGO    R3 9712  14.829   7.285   8.609  0.1712  0.1561  0.1196
  620ERGO    R4 9713  15.040   7.137   8.471 -0.0827 -0.2305  0.1424
  620ERGO    R5 9714  14.988   7.346   8.441  0.3402 -0.1145  0.1791
  620ERGO    C1 9715  14.935   7.214   8.087  0.1707  0.0801  0.1306
  620ERGO    C2 9716  14.721   7.015   7.921 -0.1570 -0.0264  0.0561
  621ERGO   ROH 9717   5.588   5.627   9.630  0.1161  0.0202 -0.0060
  621ERGO    R1 9718   5.790   5.530   9.457  0.1148 -0.0327  0.0222
  621ERGO    R2 9719   5.739   5.341   9.261  0.1278 -0.1424  0.1243
  621ERGO    R3 9720   5.851   5.527   9.098  0.0770 -0.2061  0.0156
  621ERGO    R4 9721   5.760   5.315   8.917  0.0461 -0.2938  0.1301
  621ERGO    R5 9722   5.961   5.399   8.928  0.0445 -0.2752  0.0455
  621ERGO    C1 9723   5.877   5.474   8.564 -0.0491 -0.4417  0.0315
  621ERGO    C2 9724   5.779   5.500   8.174  0.1680 -0.0259 -0.2827
  622ERGO   ROH 9725  16.783   8.489   9.410  0.1099  0.2118  0.1573
  622ERGO    R1 9726  16.947   8.532   9.183  0.2637 -0.1280  0.1976
  622ERGO    R2 9727  17.059   8.325   9.038 -0.1760 -0.3692  0.1825
  622ERGO    R3 9728  16.936   8.448   8.829  0.1444 -0.0499  0.1859
  622ERGO    R4 9729  17.096   8.236   8.707 -0.3287 -0.3950  0.1719
  622ERGO    R5 9730  17.100   8.447   8.655  0.1686 -0.3976  0.2137
  622ERGO    C1 9731  17.003   8.299   8.317 -0.1171 -0.1100  0.1690
  622ERGO    C2 9732  17.128   8.348   7.946 -0.0744  0.1257  0.3387
  623ERGO   ROH 9733   9.096  10.546   8.958  0.1218 -0.0062  0.0269
  623ERGO    R1 9734   9.206  10.397   8.744  0.0677 -0.1176  0.0757
  623ERGO    R2 9735   9.055  10.311   8.530  0.0293 -0.1608  0.1184
  623ERGO    R3 9736   9.246  10.439   8.385  0.0534 -0.2650  0.0565
  623ERGO    R4 9737   9.079  10.304   8.185 -0.2212  0.0110  0.0957
  623ERGO    R5 9738   9.295  10.289   8.205 -0.2201 -0.2129 -0.0663
  623ERGO    C1 9739   9.271  10.422   7.848 -0.3444  0.0131  0.0241
  623ERGO    C2 9740   9.317  10.326   7.556  0.1079  0.0360 -0.2648
  624ERGO   ROH 9741   8.831  15.721   5.405  0.3636  0.0245 -0.1364
  624ERGO    R1 9742   8.923  15.685   5.671  0.1097  0.0776 -0.0392
  624ERGO    R2 9743   8.751  15.675   5.887 -0.1137 -0.0367 -0.2176
  624ERGO    R3 9744   8.877  15.439   5.935 -0.0105  0.0419 -0.0928
  624ERGO    R4 9745   8.743  15.504   6.187  0.0752  0.1817 -0.0841
  624ERGO    R5 9746   8.954  15.457   6.161  0.0802  0.2368 -0.1378
  624ERGO    C1 9747   8.857  15.183   6.407  0.2821  0.3825  0.1107
  624ERGO    C2 9748   8.993  14.950   6.752  0.0334  0.1010  0.4032
  625ERGO   ROH 9749   4.614   9.853   9.410  0.1131  0.0068  0.1737
  625ERGO    R1 9750   4.721   9.874   9.149  0.1106 -0.0837  0.1647
  625ERGO    R2 9751   4.781   9.652   8.995 -0.1820 -0.1374  0.1204
  625ERGO    R3 9752   4.620   9.776   8.814 -0.0525  0.0950  0.1604
  625ERGO    R4 9753   4.833   9.656   8.653 -0.3037 -0.2816  0.0994
  625ERGO    R5 9754   4.771   9.864   8.650  0.0329 -0.1765  0.0888
  625ERGO    C1 9755   4.713   9.773   8.284 -0.2530 -0.1474  0.1249
  625ERGO    C2 9756   4.931   9.751   8.040 -0.1245 -0.2798  0.0218
  626ERGO   ROH 9757  16.970   0.038   9.494 -0.1316 -0.1032 -0.0729
  626ERGO    R1 9758  16.961   0.173   9.245 -0.3961 -0.0983 -0.0629
  626ERGO    R2 9759  17.129   0.109   9.035 -0.0857  0.4041  0.0187
  626ERGO    R3 9760  16.896   0.084   8.898  0.0399 -0.2690 -0.1090
  626ERGO    R4 9761  17.092   0.169   8.697 -0.1046  0.4849  0.0345
  626ERGO    R5 9762  16.900   0.265   8.740 -0.4534 -0.1430  0.0001
  626ERGO    C1 9763  16.852   0.181   8.371  0.0022 -0.0999 -0.0763
  626ERGO    C2 9764  16.782   0.145   8.087  0.1255  0.0273 -0.1158
  627ERGO   ROH 9765   5.831  13.219   5.587 -0.2968 -0.0089  0.0370
  627ERGO    R1 9766   5.949  13.344   5.812 -0.2214 -0.0536  0.0228
  627ERGO    R2 9767   5.933  13.617   5.856  0.0058 -0.0262 -0.0471
  627ERGO    R3 9768   5.833  13.539   6.096 -0.0972  0.1174 -0.0423
  627ERGO    R4 9769   5.966  13.794   6.151  0.0613  0.0463 -0.0965
  627ERGO    R5 9770   5.999  13.605   6.255 -0.0862  0.0568 -0.0290
  627ERGO    C1 9771   5.891  13.824   6.549 -0.0030  0.2231 -0.1207
  627ERGO    C2 9772   5.841  14.032   6.910  0.0715 -0.3047 -0.0183
  628ERGO   ROH 9773  18.831  19.136   5.649  0.2272  0.0218 -0.0834
  628ERGO    R1 9774  18.820  19.209   5.922  0.1355  0.1469 -0.1201
  628ERGO    R2 9775  18.929  19.053   6.122 -0.0254  0.1856 -0.0016
  628ERGO    R3 9776  19.059  19.284   6.186  0.0488  0.1552 -0.0434
  628ERGO    R4 9777  19.087  19.114   6.424 -0.0163  0.1942 -0.0078
  628ERGO    R5 9778  19.009  19.318   6.418  0.0516  0.2187 -0.0520
  628ERGO    C1 9779  19.301  19.366   6.659  0.0585  0.1706 -0.0506
  628ERGO    C2 9780  19.580  19.159   6.930  0.2764  0.0504 -0.0273
  629ERGO   ROH 9781   7.349   5.917   9.582 -0.1837 -0.1515 -0.0824
  629ERGO    R1 9782   7.291   5.737   9.372 -0.0956 -0.1012 -0.1506
  629ERGO    R2 9783   7.104   5.792   9.177 -0.1100 -0.1114 -0.1414
  629ERGO    R3 9784   7.311   5.740   9.008 -0.0779  0.0389 -0.1488
  629ERGO    R4 9785   7.070   5.698   8.846 -0.0644 -0.4372 -0.0568
  629ERGO    R5 9786   7.234   5.556   8.875  0.1441 -0.1852  0.0224
  629ERGO    C1 9787   7.244   5.594   8.495 -0.0077 -0.4858 -0.0145
  629ERGO    C2 9788   7.230   5.640   8.170  0.1939 -0.2207  0.1116
  630ERGO   ROH 9789   8.126  16.534   8.773 -0.0718  0.0012 -0.1792
  630ERGO    R1 9790   8.020  16.538   8.511 -0.0982 -0.0137 -0.1691
  630ERGO    R2 9791   8.059  16.750   8.338 -0.2161  0.0313 -0.1451
  630ERGO    R3 9792   8.152  16.556   8.173 -0.1359  0.0973 -0.1773
  630ERGO    R4 9793   8.094  16.782   7.996 -0.1292  0.1301 -0.1273
  630ERGO    R5 9794   8.020  16.579   7.974 -0.0838  0.1258 -0.2056
  630ERGO    C1 9795   8.202  16.619   7.641 -0.0032  0.2493 -0.1472
  630ERGO    C2 9796   8.243  16.538   7.305  0.3065  0.0831  0.0354
  631ERGO   ROH 9797   3.426  13.846   5.894 -0.1530  0.2430 -0.2265
  631ERGO    R1 9798   3.330  14.072   6.036 -0.1963  0.0620  0.0415
  631ERGO    R2 9799   3.219  14.053   6.289  0.0826 -0.2165  0.1530
  631ERGO    R3 9800   3.408  14.240   6.349 -0.0053 -0.1059  0.0849
  631ERGO    R4 9801   3.247  14.215   6.593 -0.1352  0.0888  0.0148
  631ERGO    R5 9802   3.292  14.399   6.486 -0.1253 -0.0041 -0.1352
  631ERGO    C1 9803   3.440  14.484   6.827 -0.3445  0.3705 -0.1296
  631ERGO    C2 9804   3.447  14.517   7.140  0.1217 -0.2445  0.0069
  632ERGO   ROH 9805   6.309   5.396   6.191 -0.1934 -0.1102 -0.0858
  632ERGO    R1 9806   6.114   5.291   6.368 -0.1902  0.0093 -0.0110
  632ERGO    R2 9807   6.176   5.204   6.623 -0.1381 -0.0626 -0.0501
  632ERGO    R3 9808   5.980   5.378   6.694  0.0157  0.0689  0.0599
  632ERGO    R4 9809   5.994   5.187   6.916 -0.2766 -0.2017 -0.1422
  632ERGO    R5 9810   5.816   5.242   6.803 -0.1761  0.1149 -0.1607
  632ERGO    C1 9811   5.704   5.340   7.154 -0.2128 -0.1593 -0.0926
  632ERGO    C2 9812   5.601   5.339   7.458  0.0048 -0.0074 -0.0849
  633ERGO   ROH 9813  10.790   7.405   5.792  0.1767 -0.0300  0.1344
  633ERGO    R1 9814  10.744   7.483   6.060  0.2100 -0.0283  0.1404
  633ERGO    R2 9815  10.797   7.737   6.153  0.1507 -0.0031  0.1147
  633ERGO    R3 9816  10.537   7.728   6.232  0.1699 -0.0821  0.1675
  633ERGO    R4 9817  10.658   7.935   6.400  0.1201  0.0019  0.0930
  633ERGO    R5 9818  10.546   7.762   6.468  0.2003 -0.0220  0.1558
  633ERGO    C1 9819  10.334   8.042   6.618  0.1205 -0.0694  0.1299
  633ERGO    C2 9820  10.275   8.147   6.891 -0.0359  0.1265 -0.1051
  634PSPI    C1 9821   5.347   2.953   5.559 -0.1435 -0.0563  0.0886
  634PSPI    C2 9822   5.140   2.746   5.287 -0.1491 -0.0013  0.0509
  634PSPI    C3 9823   5.154   3.146   5.267  0.0296 -0.0087  0.0039
  634PSPI   PO4 9824   5.540   2.773   5.632  0.1389  0.3265  0.0605
  634PSPI   GL1 9825   5.648   2.339   5.933  0.0410  0.0088  0.0087
  634PSPI   GL2 9826   5.345   2.410   6.008  0.1477  0.1415  0.0113
  634PSPI   C1A 9827   5.755   2.349   6.283  0.0330 -0.1814 -0.2297
  634PSPI   C2A 9828   5.642   2.208   6.637  0.3560  0.1512  0.2666
  634PSPI   C3A 9829   5.744   2.102   6.926  0.0497  0.0319  0.1447
  634PSPI   C4A 9830   6.018   1.987   7.318  0.2592 -0.0373 -0.1639
  634PSPI   C1B 9831   5.342   2.611   6.363  0.0800  0.0753 -0.0111
  634PSPI   C2B 9832   5.401   2.875   6.705 -0.0149  0.1029 -0.1008
  634PSPI   C3B 9833   5.344   3.139   6.935  0.0240 -0.1469 -0.2585
  634PSPI   C4B 9834   5.115   3.173   7.327 -0.0041 -0.1842 -0.0990
  635PSPI    C1 9835  14.764   5.545   5.514 -0.3202 -0.0341 -0.0224
  635PSPI    C2 9836  14.779   5.542   5.114  0.0174 -0.1060 -0.0127
  635PSPI    C3 9837  14.949   5.841   5.318  0.1435 -0.2430  0.0851
  635PSPI   PO4 9838  14.548   5.322   5.571  0.0348 -0.1835 -0.2802
  635PSPI   GL1 9839  14.574   5.028   5.895  0.0204  0.1806  0.0447
  635PSPI   GL2 9840  14.193   5.036   5.934  0.4155 -0.0050  0.1592
  635PSPI   C1A 9841  14.842   5.060   6.304  0.0627 -0.1377 -0.2539
  635PSPI   C2A 9842  14.933   4.786   6.645  0.0181 -0.1193 -0.0992
  635PSPI   C3A 9843  14.965   4.981   7.008 -0.3192  0.0816 -0.0885
  635PSPI   C4A 9844  14.882   4.813   7.442  0.3601 -0.4275  0.1263
  635PSPI   C1B 9845  14.381   5.000   6.343 -0.1357  0.1894 -0.1886
  635PSPI   C2B 9846  14.377   4.659   6.685  0.1268  0.1598  0.4241
  635PSPI   C3B 9847  14.679   4.312   6.744  0.0098 -0.0757  0.1340
  635PSPI   C4B 9848  14.652   3.894   6.735  0.1414 -0.1997  0.2868
  636PSPI    C1 9849  14.410   9.484   5.526 -0.1851  0.0952 -0.1378
  636PSPI    C2 9850  14.226   9.343   5.200  0.0068 -0.2567 -0.0985
  636PSPI    C3 9851  14.499   9.634   5.165 -0.1791 -0.0934 -0.2154
  636PSPI   PO4 9852  14.320   9.406   5.678 -0.1544 -0.1149  0.0149
  636PSPI   GL1 9853  14.189   9.309   5.982  0.1138 -0.0992 -0.5178
  636PSPI   GL2 9854  13.961   9.445   6.128 -0.0970  0.0765 -0.0720
  636PSPI   C1A 9855  14.273   9.416   6.433  0.2380  0.1922 -0.0956
  636PSPI   C2A 9856  14.246   9.218   6.882  0.0485 -0.3406  0.0442
  636PSPI   C3A 9857  14.485   9.304   7.279  0.0401 -0.3840  0.2461
  636PSPI   C4A 9858  14.878   9.287   7.440  0.1576  0.4618 -0.2065
  636PSPI   C1B 9859  13.976   9.887   6.341  0.0024  0.1887  0.1716
  636PSPI   C2B 9860  13.634  10.046   6.562  0.1455 -0.4013  0.1343
  636PSPI   C3B 9861  13.332  10.173   6.858  0.1872  0.2429 -0.1422
  636PSPI   C4B 9862  13.290  10.328   7.270 -0.0189 -0.1438 -0.2107
  637PSPI    C1 9863  16.129   0.930   5.149 -0.0319 -0.0728  0.2915
  637PSPI    C2 9864  15.746   1.023   5.221 -0.0740  0.0655 -0.0890
  637PSPI    C3 9865  15.836   0.718   4.977  0.0606 -0.0342  0.0831
  637PSPI   PO4 9866  16.230   1.247   5.142 -0.1281 -0.0408 -0.1461
  637PSPI   GL1 9867  16.330   1.340   5.554  0.0795  0.0511  0.1005
  637PSPI   GL2 9868  16.508   1.025   5.607 -0.1836 -0.0222  0.0328
  637PSPI   C1A 9869  16.185   1.028   6.019 -0.1298 -0.1701  0.2588
  637PSPI   C2A 9870  16.372   1.019   6.411 -0.0053  0.1056  0.0051
  637PSPI   C3A 9871  16.537   1.038   6.893 -0.0655  0.1437 -0.0326
  637PSPI   C4A 9872  16.620   1.015   7.285 -0.2263  0.2870  0.0726
  637PSPI   C1B 9873  16.748   0.828   5.927 -0.2522  0.1028  0.0051
  637PSPI   C2B 9874  16.964   0.857   6.358 -0.1030  0.4567 -0.0091
  637PSPI   C3B 9875  17.098   0.985   6.874  0.1603  0.4196 -0.0014
  637PSPI   C4B 9876  17.112   0.773   7.356  0.0685  0.1707 -0.1682
  638PSPI    C1 9877  16.184  14.619   5.382 -0.1945  0.2406 -0.2364
  638PSPI    C2 9878  16.471  14.852   5.228 -0.1441  0.1927 -0.2153
  638PSPI    C3 9879  16.559  14.595   5.521 -0.2023  0.1562 -0.2297
  638PSPI   PO4 9880  15.917  14.796   5.417 -0.1627  0.2862 -0.1163
  638PSPI   GL1 9881  15.988  15.093   5.661 -0.1824  0.3537 -0.0243
  638PSPI   GL2 9882  16.084  15.199   5.995 -0.0943 -0.1065  0.0562
  638PSPI   C1A 9883  16.295  14.813   5.921 -0.0425  0.3169 -0.4374
  638PSPI   C2A 9884  16.265  14.904   6.364 -0.3557  0.2113  0.3519
  638PSPI   C3A 9885  16.189  14.966   6.773  0.0598  0.0077 -0.4716
  638PSPI   C4A 9886  16.139  15.308   6.975 -0.0181 -0.2358 -0.2283
  638PSPI   C1B 9887  15.596  15.336   6.083 -0.2689 -0.0483  0.3212
  638PSPI   C2B 9888  15.390  15.629   6.332 -0.0852 -0.0871  0.0291
  638PSPI   C3B 9889  15.215  15.842   6.707  0.3448  0.1068 -0.1752
  638PSPI   C4B 9890  14.858  15.857   6.937  0.1148  0.3900 -0.0299
  639PSPI    C1 9891   2.748   4.631   5.684 -0.0460 -0.0921 -0.0010
  639PSPI    C2 9892   2.895   4.876   5.404 -0.0629  0.0181  0.0861
  639PSPI    C3 9893   2.957   4.482   5.377 -0.3519 -0.0092 -0.2543
  639PSPI   PO4 9894   2.791   4.805   5.903 -0.1899  0.2656  0.1448
  639PSPI   GL1 9895   2.817   4.980   6.395 -0.0438  0.1659 -0.4973
  639PSPI   GL2 9896   3.114   5.095   6.243  0.4348 -0.0499  0.3850
  639PSPI   C1A 9897   2.836   5.251   6.810  0.0143  0.2528  0.1253
  639PSPI   C2A 9898   2.622   5.624   7.193 -0.2643  0.0900  0.0083
  639PSPI   C3A 9899   2.259   5.721   7.311 -0.0063  0.1764  0.1618
  639PSPI   C4A 9900   2.006   5.933   7.320 -0.0884 -0.0110  0.1344
  639PSPI   C1B 9901   3.543   5.134   6.264 -0.2974  0.1535 -0.1627
  639PSPI   C2B 9902   3.733   4.750   6.446 -0.1150  0.2248  0.0557
  639PSPI   C3B 9903   4.121   4.668   6.686 -0.1312  0.2296 -0.0301
  639PSPI   C4B 9904   3.972   4.516   7.128 -0.1886 -0.0252 -0.3864
  640PSPI    C1 9905   7.023  11.439   5.013  0.1622  0.0154 -0.0759
  640PSPI    C2 9906   6.731  11.713   5.020  0.1543  0.0038  0.1242
  640PSPI    C3 9907   6.758  11.457   4.713  0.0695  0.1281  0.0116
  640PSPI   PO4 9908   7.049  11.396   5.251 -0.0659 -0.0403  0.3269
  640PSPI   GL1 9909   6.752  11.213   5.517  0.0994  0.1755 -0.3267
  640PSPI   GL2 9910   6.554  11.446   5.562 -0.1003  0.1415  0.1495
  640PSPI   C1A 9911   6.658  11.011   5.941 -0.0328 -0.4555  0.1263
  640PSPI   C2A 9912   6.343  10.912   6.243 -0.1631  0.2374 -0.4084
  640PSPI   C3A 9913   6.314  10.493   6.343  0.1154  0.2217  0.1142
  640PSPI   C4A 9914   6.285  10.140   6.296 -0.0423 -0.1896  0.3471
  640PSPI   C1B 9915   6.635  11.581   5.963 -0.0288  0.1772  0.0899
  640PSPI   C2B 9916   6.465  11.864   6.219  0.3093 -0.0798 -0.0653
  640PSPI   C3B 9917   6.540  12.250   6.461  0.5449 -0.0227 -0.3162
  640PSPI   C4B 9918   6.705  12.528   6.779  0.0771 -0.0579 -0.1585
  641PSPI    C1 9919   5.713  11.295   5.057 -0.0399 -0.0684 -0.1616
  641PSPI    C2 9920   5.829  11.647   4.905  0.0117 -0.0518 -0.0840
  641PSPI    C3 9921   5.491  11.476   4.776 -0.0934  0.1002 -0.0128
  641PSPI   PO4 9922   5.752  11.297   5.262  0.2201 -0.1895  0.4300
  641PSPI   GL1 9923   5.927  11.424   5.590  0.0784  0.0092 -0.2277
  641PSPI   GL2 9924   5.590  11.523   5.668  0.2038  0.1739 -0.0379
  641PSPI   C1A 9925   6.180  11.382   5.954 -0.0569 -0.1394 -0.0762
  641PSPI   C2A 9926   6.310  11.396   6.316  0.0682 -0.2133 -0.0254
  641PSPI   C3A 9927   6.421  11.280   6.648  0.0075  0.0213 -0.0239
  641PSPI   C4A 9928   6.684  11.496   6.985 -0.2035  0.1603 -0.1484
  641PSPI   C1B 9929   5.656  11.343   6.075  0.2021  0.0416  0.0926
  641PSPI   C2B 9930   5.849  11.079   6.264 -0.1016 -0.0564 -0.3041
  641PSPI   C3B 9931   6.001  10.991   6.613 -0.1304  0.3162  0.1810
  641PSPI   C4B 9932   6.284  10.653   6.828 -0.1586  0.1053  0.3052
  642PSPI    C1 9933   4.232  16.181   5.324  0.0612  0.2846  0.1103
  642PSPI    C2 9934   3.959  16.371   5.101 -0.0192 -0.1310 -0.1552
  642PSPI    C3 9935   4.177  16.075   4.942  0.2844 -0.0926  0.1779
  642PSPI   PO4 9936   4.134  16.277   5.567  0.0893  0.1423 -0.1932
  642PSPI   GL1 9937   4.008  16.135   5.895  0.0967 -0.0654 -0.2445
  642PSPI   GL2 9938   3.886  16.359   6.124  0.1382  0.2312  0.2249
  642PSPI   C1A 9939   3.917  15.683   5.931  0.2872  0.3453 -0.2294
  642PSPI   C2A 9940   4.175  15.535   6.099 -0.0936  0.2470 -0.0700
  642PSPI   C3A 9941   4.444  15.446   6.513  0.0721 -0.2237 -0.0202
  642PSPI   C4A 9942   4.525  15.786   6.736 -0.0829 -0.3493  0.0353
  642PSPI   C1B 9943   3.684  16.012   6.262  0.1541 -0.1575 -0.1189
  642PSPI   C2B 9944   3.704  15.891   6.672  0.0351  0.1435 -0.1210
  642PSPI   C3B 9945   4.119  16.031   6.854  0.0916  0.0028 -0.2001
  642PSPI   C4B 9946   4.488  16.185   7.076  0.1960 -0.2091  0.0529
  643PSPI    C1 9947   9.769   1.986   5.266  0.0725  0.2019 -0.0811
  643PSPI    C2 9948  10.050   1.909   4.993  0.0412  0.0313 -0.0663
  643PSPI    C3 9949   9.663   1.876   4.897  0.0301 -0.0201 -0.0042
  643PSPI   PO4 9950   9.919   1.884   5.534  0.2003  0.2069 -0.2985
  643PSPI   GL1 9951   9.778   1.883   5.974  0.0672 -0.3127 -0.0713
  643PSPI   GL2 9952   9.671   1.558   6.012  0.0803  0.1616  0.1805
  643PSPI   C1A 9953   9.610   1.909   6.307 -0.1441 -0.2327  0.2304
  643PSPI   C2A 9954   9.509   1.604   6.533 -0.1889  0.0478  0.2746
  643PSPI   C3A 9955   9.389   1.515   6.976  0.0592 -0.0171  0.0379
  643PSPI   C4A 9956   8.941   1.534   7.223  0.0352  0.0953  0.1334
  643PSPI   C1B 9957   9.997   1.595   6.305 -0.1182  0.2702 -0.0670
  643PSPI   C2B 9958  10.022   1.498   6.679  0.1765  0.0809  0.2241
  643PSPI   C3B 9959  10.282   1.192   6.969 -0.4406 -0.3525  0.1588
  643PSPI   C4B 9960  10.556   0.838   6.975 -0.1246  0.2083  0.1558
  644PSPI    C1 9961  18.360   2.138   5.076 -0.0035  0.0668 -0.1674
  644PSPI    C2 9962  18.051   1.888   5.027 -0.0165  0.0928 -0.2188
  644PSPI    C3 9963  18.081   2.216   4.800 -0.1030  0.2401 -0.0211
  644PSPI   PO4 9964  18.343   2.182   5.371 -0.2254  0.0376 -0.1664
  644PSPI   GL1 9965  18.268   2.305   5.875 -0.3750 -0.1094  0.6649
  644PSPI   GL2 9966  18.523   2.079   5.860 -0.2330  0.1358  0.2451
  644PSPI   C1A 9967  17.851   2.308   6.127  0.0265  0.1151 -0.1710
  644PSPI   C2A 9968  17.703   2.440   6.463 -0.0065 -0.1377  0.3159
  644PSPI   C3A 9969  17.782   2.401   6.967  0.0584  0.1390  0.3492
  644PSPI   C4A 9970  17.630   2.624   7.282  0.1367 -0.3353  0.2533
  644PSPI   C1B 9971  18.628   1.924   6.267  0.0255  0.1911 -0.3472
  644PSPI   C2B 9972  18.657   1.703   6.552  0.0640 -0.0765  0.0382
  644PSPI   C3B 9973  18.456   1.629   6.939 -0.1473  0.1013 -0.0249
  644PSPI   C4B 9974  18.397   1.846   7.303 -0.1561  0.2298 -0.0832
  645PSPI    C1 9975  13.619  10.048   5.869 -0.0426  0.0906 -0.2681
  645PSPI    C2 9976  13.592  10.444   5.825  0.1655  0.1053 -0.2729
  645PSPI    C3 9977  13.906  10.285   6.015 -0.0960 -0.0363  0.0518
  645PSPI   PO4 9978  13.387  10.012   5.714  0.1162  0.1088 -0.0781
  645PSPI   GL1 9979  13.044   9.934   5.887 -0.0056 -0.0178  0.3916
  645PSPI   GL2 9980  12.657  10.142   5.817 -0.0673  0.0003  0.4243
  645PSPI   C1A 9981  12.906   9.923   6.288 -0.0120  0.0969 -0.0489
  645PSPI   C2A 9982  12.921   9.904   6.700  0.0513  0.0399 -0.0373
  645PSPI   C3A 9983  13.043   9.811   7.093 -0.1303 -0.1708 -0.5658
  645PSPI   C4A 9984  12.842   9.845   7.531  0.1602 -0.2234  0.0912
  645PSPI   C1B 9985  12.499  10.230   6.259 -0.0641 -0.1651 -0.0849
  645PSPI   C2B 9986  12.407  10.589   6.507 -0.1145 -0.1673 -0.0995
  645PSPI   C3B 9987  12.168  10.968   6.649  0.1386  0.1637 -0.1086
  645PSPI   C4B 9988  12.135  11.399   6.734  0.3494 -0.0026 -0.2033
  646PSPI    C1 9989  10.540   5.728   5.665  0.3426 -0.1123  0.1382
  646PSPI    C2 9990  10.628   5.899   5.315  0.1098  0.0862  0.1738
  646PSPI    C3 9991  10.402   5.569   5.325  0.0123  0.1516  0.1437
  646PSPI   PO4 9992  10.412   5.879   5.806 -0.0242  0.0662  0.3159
  646PSPI   GL1 9993  10.540   5.943   6.249  0.0088 -0.0601  0.1018
  646PSPI   GL2 9994  10.325   5.791   6.458  0.0243 -0.2555  0.1805
  646PSPI   C1A 9995  10.835   5.773   6.531 -0.0423  0.4517 -0.0919
  646PSPI   C2A 9996  11.123   5.500   6.562  0.0818 -0.2553 -0.1100
  646PSPI   C3A 9997  11.242   5.240   6.948 -0.2251  0.2659 -0.4638
  646PSPI   C4A 9998  11.535   4.907   7.191  0.2220 -0.0297  0.1593
  646PSPI   C1B 9999  10.453   6.123   6.756 -0.0875  0.1225  0.1463
  646PSPI   C2B10000  10.361   6.515   6.920 -0.0480  0.1040  0.0031
  646PSPI   C3B10001  10.588   6.876   6.834  0.0016  0.3736  0.0133
  646PSPI   C4B10002  10.602   7.271   7.219 -0.1715  0.0364 -0.0482
  647PSPI    C110003  15.856  12.433   5.054  0.1508 -0.1822  0.2323
  647PSPI    C210004  16.021  12.084   5.159  0.2169 -0.2210  0.0048
  647PSPI    C310005  15.642  12.096   5.031  0.0832 -0.1511  0.3948
  647PSPI   PO410006  15.994  12.605   5.222  0.1731 -0.0979  0.0340
  647PSPI   GL110007  16.042  12.484   5.550 -0.2124  0.1439  0.1327
  647PSPI   GL210008  15.789  12.290   5.572 -0.4328  0.1438 -0.1623
  647PSPI   C1A10009  16.138  12.562   5.995  0.1226 -0.1139 -0.1477
  647PSPI   C2A10010  16.003  12.439   6.405  0.0311  0.1617  0.1043
  647PSPI   C3A10011  16.093  12.691   6.701  0.3710 -0.0597 -0.0648
  647PSPI   C4A10012  16.258  12.986   7.008 -0.3573 -0.1227  0.0367
  647PSPI   C1B10013  15.679  12.317   5.955 -0.1241 -0.1679 -0.1250
  647PSPI   C2B10014  15.420  12.231   6.232  0.2062 -0.0199  0.0319
  647PSPI   C3B10015  15.276  11.865   6.446 -0.0098 -0.2223  0.0131
  647PSPI   C4B10016  15.047  11.556   6.470 -0.2963  0.2659 -0.2171
  648PSPI    C110017  13.363  16.396   5.274 -0.2668  0.0482 -0.0606
  648PSPI    C210018  13.461  16.635   4.969  0.1425  0.0226  0.0444
  648PSPI    C310019  13.747  16.446   5.174 -0.1532 -0.2681  0.1985
  648PSPI   PO410020  13.218  16.561   5.406  0.4486  0.1692 -0.2361
  648PSPI   GL110021  13.250  16.625   5.786 -0.1029  0.0644 -0.0679
  648PSPI   GL210022  12.970  16.738   6.031 -0.0041  0.1015 -0.4700
  648PSPI   C1A10023  13.502  16.445   6.050 -0.2232  0.2414 -0.0666
  648PSPI   C2A10024  14.032  16.322   6.001 -0.0814  0.1920 -0.1969
  648PSPI   C3A10025  14.396  16.327   6.241 -0.2515  0.1933  0.2643
  648PSPI   C4A10026  14.467  16.456   6.702  0.0853 -0.2145  0.5442
  648PSPI   C1B10027  12.786  16.815   6.440  0.2655 -0.3285 -0.2702
  648PSPI   C2B10028  12.600  16.860   6.863  0.2187 -0.0435  0.1606
  648PSPI   C3B10029  12.585  17.118   7.163 -0.1743 -0.1662 -0.5026
  648PSPI   C4B10030  12.375  17.050   7.562 -0.1533 -0.1300  0.1082
  649PSPI    C110031  18.609  10.125   5.319 -0.0633 -0.2323  0.0086
  649PSPI    C210032  18.963  10.131   5.504  0.0414 -0.0516 -0.1932
  649PSPI    C310033  18.925  10.293   5.141 -0.2123 -0.2111 -0.2398
  649PSPI   PO410034  18.494   9.766   5.459 -0.0306  0.2702  0.2959
  649PSPI   GL110035  18.627   9.415   5.882  0.5015  0.0834  0.2694
  649PSPI   GL210036  18.847   9.703   5.808  0.0110  0.2284 -0.0669
  649PSPI   C1A10037  18.712   9.248   6.248  0.3299 -0.0020 -0.0293
  649PSPI   C2A10038  18.925   9.323   6.608 -0.2625  0.0814  0.2978
  649PSPI   C3A10039  18.791   9.481   6.971 -0.0590 -0.0462  0.1789
  649PSPI   C4A10040  18.703   9.819   7.210  0.2078 -0.1456 -0.1261
  649PSPI   C1B10041  18.731   9.736   6.308  0.0146 -0.1877  0.2172
  649PSPI   C2B10042  18.367  10.168   6.372  0.0024 -0.1028 -0.1906
  649PSPI   C3B10043  17.887   9.963   6.473  0.2950  0.0277  0.1861
  649PSPI   C4B10044  17.791   9.724   6.137  0.1332 -0.0602 -0.0521
  650PSPI    C110045  13.431  17.124   5.153  0.1172 -0.0263 -0.0899
  650PSPI    C210046  13.553  17.453   4.961 -0.0627 -0.0428 -0.2359
  650PSPI    C310047  13.177  17.324   4.916 -0.1718  0.0696  0.2899
  650PSPI   PO410048  13.789  17.002   5.110  0.2473  0.0282  0.0611
  650PSPI   GL110049  14.088  17.045   5.455  0.3902  0.1668 -0.1584
  650PSPI   GL210050  13.953  17.211   5.624 -0.1741  0.0374 -0.0635
  650PSPI   C1A10051  14.214  16.580   5.437  0.4238 -0.1848 -0.0780
  650PSPI   C2A10052  14.459  16.231   5.722 -0.0146 -0.1279  0.0581
  650PSPI   C3A10053  14.354  15.835   6.108  0.3882 -0.4714 -0.0934
  650PSPI   C4A10054  14.009  15.724   6.396 -0.1697 -0.3606 -0.0380
  650PSPI   C1B10055  13.933  16.968   6.033  0.0881 -0.1373  0.1897
  650PSPI   C2B10056  13.852  16.700   6.338  0.1205  0.1989 -0.1330
  650PSPI   C3B10057  13.987  16.528   6.725 -0.1606  0.0401  0.0904
  650PSPI   C4B10058  14.126  16.364   7.132  0.0618 -0.0870  0.1466
  651PSPI    C110059   6.301  12.385   5.021  0.2438 -0.0129 -0.0922
  651PSPI    C210060   6.299  12.033   5.210  0.2110  0.0479  0.0210
  651PSPI    C310061   6.122  12.069   4.854 -0.1347  0.0466  0.1888
  651PSPI   PO410062   6.248  12.540   5.149  0.3084  0.3074  0.0020
  651PSPI   GL110063   6.114  12.609   5.557 -0.0053  0.0648 -0.1409
  651PSPI   GL210064   6.386  12.447   5.592 -0.0438  0.3816  0.1947
  651PSPI   C1A10065   6.297  12.977   5.863  0.0845  0.0013  0.2462
  651PSPI   C2A10066   6.171  13.138   6.281  0.0508  0.1596  0.0169
  651PSPI   C3A10067   5.774  13.228   6.640  0.1224 -0.3581  0.1185
  651PSPI   C4A10068   5.513  13.521   6.783 -0.0091  0.2524 -0.0370
  651PSPI   C1B10069   6.583  12.319   5.946  0.1104  0.1916  0.0424
  651PSPI   C2B10070   6.928  11.978   6.048  0.0960  0.0205  0.0986
  651PSPI   C3B10071   7.190  11.735   6.318  0.0875  0.0007  0.0836
  651PSPI   C4B10072   7.249  11.647   6.805 -0.1196  0.1624 -0.0288
  652PSPI    C110073   4.291  10.063   5.114 -0.0159  0.1032 -0.3200
  652PSPI    C210074   4.209  10.418   5.280 -0.1904 -0.0141 -0.1510
  652PSPI    C310075   3.916  10.203   5.113 -0.1571 -0.2508  0.0886
  652PSPI   PO410076   4.516  10.008   5.320  0.2364 -0.2718  0.2367
  652PSPI   GL110077   4.614  10.039   5.718  0.3178  0.1176 -0.1212
  652PSPI   GL210078   4.362  10.270   5.723  0.2006  0.1541  0.3323
  652PSPI   C1A10079   4.874   9.885   6.024 -0.2103 -0.1408 -0.0800
  652PSPI   C2A10080   4.621   9.643   6.180 -0.0635  0.1351 -0.1884
  652PSPI   C3A10081   4.192   9.518   6.351 -0.1144  0.0111 -0.1755
  652PSPI   C4A10082   3.809   9.451   6.422  0.2225  0.3298 -0.0936
  652PSPI   C1B10083   4.317  10.108   6.198 -0.0394  0.0592  0.1936
  652PSPI   C2B10084   4.307  10.352   6.659 -0.1253 -0.0236 -0.1886
  652PSPI   C3B10085   4.379  10.423   7.053  0.0202 -0.0567  0.0678
  652PSPI   C4B10086   4.321  10.644   7.311 -0.3162  0.2229 -0.0366
  653PSPI    C110087   6.053  19.031   5.586  0.2051 -0.0172  0.0728
  653PSPI    C210088   6.319  19.122   5.301  0.3160 -0.4437  0.0331
  653PSPI    C310089   6.071  18.812   5.251 -0.0196 -0.2050  0.1809
  653PSPI   PO410090   6.258  18.985   5.796  0.1790 -0.0753  0.1651
  653PSPI   GL110091   6.450  19.106   6.151  0.2306  0.1153  0.4524
  653PSPI   GL210092   6.441  19.311   6.521  0.2430  0.0459  0.1868
  653PSPI   C1A10093   6.694  18.747   6.419  0.2774 -0.0381  0.0363
  653PSPI   C2A10094   6.600  18.839   6.833 -0.1282 -0.3223  0.1828
  653PSPI   C3A10095   6.726  19.195   7.076  0.2650  0.2272  0.0407
  653PSPI   C4A10096   6.745  19.547   7.297 -0.2483  0.0188 -0.1614
  653PSPI   C1B10097   6.318  19.503   6.952  0.2335 -0.0054 -0.1177
  653PSPI   C2B10098   6.224  19.449   7.345 -0.1847  0.1471  0.4771
  653PSPI   C3B10099   6.149  19.389   7.722 -0.3236  0.0239 -0.1151
  653PSPI   C4B10100   5.840  19.522   7.822 -0.1147  0.2423 -0.1691
  654POPI    C110101   1.483  16.363   5.219 -0.0477  0.1381  0.0919
  654POPI    C210102   1.327  16.094   4.968 -0.1150  0.1172  0.1559
  654POPI    C310103   1.406  16.464   4.840  0.3968 -0.0569 -0.0577
  654POPI   PO410104   1.391  16.338   5.435  0.3217 -0.5660 -0.0149
  654POPI   GL110105   1.533  16.430   5.813  0.1466  0.1955 -0.1472
  654POPI   GL210106   1.786  16.322   5.959  0.2826 -0.0108  0.0785
  654POPI   C1A10107   1.413  16.308   6.217  0.1610  0.2011 -0.1208
  654POPI   D2A10108   1.175  16.134   6.518 -0.4297 -0.1878  0.1064
  654POPI   C3A10109   1.023  16.182   7.000  0.0230  0.3997  0.0318
  654POPI   C4A10110   1.168  16.385   7.393 -0.0876  0.4326  0.1640
  654POPI   C1B10111   1.852  16.277   6.327  0.1277  0.0898  0.2907
  654POPI   C2B10112   1.717  16.237   6.701  0.1319  0.0564  0.4391
  654POPI   C3B10113   1.533  16.216   7.087  0.0704 -0.4466  0.0241
  654POPI   C4B10114   1.465  15.980   7.431  0.1779  0.0379 -0.1579
  655POPI    C110115   8.240   2.718   5.609 -0.1462  0.0248  0.1332
  655POPI    C210116   7.961   2.738   5.323  0.1681 -0.0124 -0.1832
  655POPI    C310117   8.151   2.393   5.392 -0.0359 -0.0527  0.2030
  655POPI   PO410118   8.143   2.968   5.752  0.0878 -0.1032  0.0504
  655POPI   GL110119   8.167   2.922   6.107 -0.3253  0.1548  0.2989
  655POPI   GL210120   8.008   2.679   6.146 -0.0900 -0.1825  0.1998
  655POPI   C1A10121   8.364   2.884   6.530 -0.2858  0.0588 -0.3022
  655POPI   D2A10122   8.072   2.718   6.960 -0.3599 -0.1719 -0.1066
  655POPI   C3A10123   7.741   2.318   7.028  0.1680 -0.0191 -0.1553
  655POPI   C4A10124   7.347   2.062   7.297 -0.0757 -0.3268 -0.0808
  655POPI   C1B10125   7.879   2.810   6.550  0.0427  0.0406  0.1332
  655POPI   C2B10126   7.569   2.726   6.810 -0.1931 -0.0061  0.2762
  655POPI   C3B10127   7.154   2.850   6.702 -0.1717  0.0300  0.2076
  655POPI   C4B10128   6.924   2.780   6.361 -0.1838  0.0433  0.4485
  656POPI    C110129  10.222   0.109   5.466  0.1605 -0.0860  0.1814
  656POPI    C210130  10.057  -0.077   5.153  0.3963 -0.3210  0.1931
  656POPI    C310131  10.299   0.235   5.094 -0.0474  0.0307  0.1762
  656POPI   PO410132  10.000   0.169   5.648  0.1695  0.1664  0.2143
  656POPI   GL110133   9.708   0.011   5.894  0.1111  0.1694 -0.1935
  656POPI   GL210134   9.548   0.239   5.915 -0.0099 -0.3388 -0.0114
  656POPI   C1A10135   9.646  -0.306   6.175  0.2184  0.1846  0.0479
  656POPI   D2A10136   9.615  -0.782   6.342 -0.0123 -0.0030  0.2370
  656POPI   C3A10137   9.961  -1.008   6.523 -0.2474 -0.2163 -0.0904
  656POPI   C4A10138  10.220  -1.134   6.779  0.1291 -0.4132 -0.0584
  656POPI   C1B10139   9.439   0.144   6.310  0.3340 -0.1380  0.3040
  656POPI   C2B10140   9.607  -0.100   6.595  0.0286  0.0827  0.0115
  656POPI   C3B10141   9.627  -0.442   6.678 -0.0477 -0.0326 -0.0678
  656POPI   C4B10142   9.526  -0.817   6.976  0.1892 -0.3784 -0.2874
  657POPI    C110143  17.980   6.414   6.063 -0.1741  0.0378 -0.0884
  657POPI    C210144  17.999   6.165   5.750  0.0637  0.0439 -0.0809
  657POPI    C310145  18.257   6.469   5.780  0.0630  0.0251  0.1367
  657POPI   PO410146  17.675   6.602   6.081  0.2548 -0.0966 -0.0986
  657POPI   GL110147  17.453   6.875   6.295  0.0897  0.3402  0.2859
  657POPI   GL210148  17.327   6.666   6.449  0.2619 -0.3537 -0.1180
  657POPI   C1A10149  17.155   7.127   6.538  0.0350 -0.2824 -0.0585
  657POPI   D2A10150  16.912   7.168   6.844  0.1074 -0.1231 -0.3314
  657POPI   C3A10151  16.551   7.062   6.918 -0.0791 -0.1214  0.2920
  657POPI   C4A10152  16.015   6.923   6.823 -0.2050  0.1474 -0.0344
  657POPI   C1B10153  17.272   6.510   6.913 -0.0344 -0.1074 -0.2892
  657POPI   C2B10154  17.625   6.191   7.093  0.0909 -0.2597 -0.5463
  657POPI   C3B10155  17.820   5.883   7.423  0.1946 -0.1480 -0.0080
  657POPI   C4B10156  17.932   5.386   7.407 -0.0700  0.1664 -0.0188
  658POPI    C110157  13.205   5.527   5.195  0.0323 -0.1877 -0.3392
  658POPI    C210158  13.059   5.899   5.208  0.1649 -0.1457  0.2759
  658POPI    C310159  13.436   5.836   5.090  0.0374 -0.1282 -0.1576
  658POPI   PO410160  12.999   5.475   5.470 -0.1154 -0.0319 -0.0758
  658POPI   GL110161  12.919   5.270   5.760  0.2983  0.2208 -0.0232
  658POPI   GL210162  12.584   5.397   5.887  0.1545 -0.0506  0.0776
  658POPI   C1A10163  13.201   4.989   5.984  0.1688 -0.0622 -0.2161
  658POPI   D2A10164  13.325   4.891   6.459 -0.3105  0.2553 -0.3712
  658POPI   C3A10165  13.811   4.698   6.567 -0.2099  0.4721 -0.2582
  658POPI   C4A10166  13.961   4.470   6.888  0.2725 -0.3846 -0.0130
  658POPI   C1B10167  12.210   5.408   6.120 -0.2426  0.1004 -0.3212
  658POPI   C2B10168  11.988   5.709   6.485  0.0630 -0.1121  0.0520
  658POPI   C3B10169  11.703   5.462   6.861  0.1384  0.1774 -0.1795
  658POPI   C4B10170  11.874   5.255   7.297 -0.1330 -0.1110  0.1355
  659POPI    C110171  18.822  16.862   4.957 -0.0345 -0.1390  0.0683
  659POPI    C210172  19.164  16.725   4.802  0.0884  0.1220  0.1036
  659POPI    C310173  18.823  16.696   4.593  0.2057  0.2344 -0.1077
  659POPI   PO410174  18.700  16.770   5.264  0.2581  0.2431 -0.1451
  659POPI   GL110175  18.969  16.821   5.621  0.0540 -0.0901 -0.1011
  659POPI   GL210176  18.794  17.038   5.794 -0.4098 -0.4006 -0.0658
  659POPI   C1A10177  18.838  16.634   6.089  0.1097  0.0224  0.2471
  659POPI   D2A10178  18.954  16.722   6.567  0.5403  0.3920 -0.1053
  659POPI   C3A10179  18.664  16.724   6.941  0.2489  0.3249 -0.2432
  659POPI   C4A10180  18.501  16.642   7.401 -0.1527 -0.1094 -0.3655
  659POPI   C1B10181  18.800  17.112   6.276 -0.6401  0.0128 -0.0499
  659POPI   C2B10182  18.734  17.319   6.714 -0.1498 -0.1382  0.0325
  659POPI   C3B10183  18.540  17.764   6.934  0.1141  0.0910  0.0743
  659POPI   C4B10184  18.703  18.043   7.253 -0.1360 -0.1243 -0.2236
  660POPI    C110185   2.226   2.407   5.514  0.0709 -0.0879  0.1180
  660POPI    C210186   1.957   2.420   5.219  0.1576 -0.2492  0.0309
  660POPI    C310187   2.348   2.417   5.133  0.1911  0.0711  0.1593
  660POPI   PO410188   2.039   2.407   5.724  0.2684 -0.0492  0.2253
  660POPI   GL110189   2.239   2.211   6.145 -0.2548 -0.0782 -0.1737
  660POPI   GL210190   2.545   2.334   5.999  0.1348 -0.0912 -0.2029
  660POPI   C1A10191   2.054   2.003   6.488 -0.0585 -0.0388 -0.5462
  660POPI   D2A10192   1.830   2.075   6.764  0.0869 -0.1288  0.1040
  660POPI   C3A10193   2.189   2.021   7.090 -0.1679  0.4723 -0.0267
  660POPI   C4A10194   2.108   1.988   7.646  0.3101  0.2398 -0.1640
  660POPI   C1B10195   2.641   2.293   6.439  0.1255  0.0457 -0.0972
  660POPI   C2B10196   2.694   2.259   6.887  0.0498 -0.0453  0.1980
  660POPI   C3B10197   2.668   2.230   7.255 -0.1373 -0.0979 -0.1602
  660POPI   C4B10198   2.477   2.272   7.590 -0.1830 -0.3262 -0.0412
  661POPI    C110199   8.548   9.216   5.245  0.1952  0.0423  0.2724
  661POPI    C210200   8.513   9.607   5.320  0.1488  0.1202 -0.1327
  661POPI    C310201   8.372   9.456   4.978 -0.0100 -0.2869  0.1053
  661POPI   PO410202   8.890   9.158   5.274  0.0647 -0.0305  0.3212
  661POPI   GL110203   9.087   9.157   5.720  0.1508 -0.3100  0.1075
  661POPI   GL210204   8.761   9.405   5.684 -0.2474 -0.4373  0.0816
  661POPI   C1A10205   8.999   9.160   6.104 -0.1178 -0.0520 -0.3352
  661POPI   D2A10206   8.853   9.195   6.470  0.2083  0.1676 -0.0412
  661POPI   C3A10207   9.089   9.332   6.839 -0.2995 -0.0063  0.0805
  661POPI   C4A10208   9.175   9.024   7.313  0.2854  0.1258 -0.0697
  661POPI   C1B10209   8.323   9.276   5.717  0.0416 -0.0498 -0.2063
  661POPI   C2B10210   8.038   9.301   6.109 -0.0369  0.0948 -0.1738
  661POPI   C3B10211   7.873   9.208   6.534 -0.0026 -0.1202 -0.0604
  661POPI   C4B10212   8.120   9.284   6.911 -0.0043  0.2108  0.2446
  662POPI    C110213  12.449  14.783   4.875 -0.1444 -0.0169 -0.0855
  662POPI    C210214  12.464  14.812   4.477  0.0190  0.3172 -0.0587
  662POPI    C310215  12.189  15.017   4.682  0.0289  0.2613  0.0108
  662POPI   PO410216  12.404  14.534   4.945 -0.2899  0.3736  0.1291
  662POPI   GL110217  12.374  14.515   5.382 -0.1105  0.0668 -0.2455
  662POPI   GL210218  12.152  14.837   5.251  0.2387  0.2469 -0.0280
  662POPI   C1A10219  12.089  14.612   5.710 -0.0831 -0.1168  0.4028
  662POPI   D2A10220  12.163  14.911   6.056  0.3588 -0.3680  0.0215
  662POPI   C3A10221  12.076  15.308   6.006  0.1038 -0.1404 -0.0676
  662POPI   C4A10222  11.914  15.683   5.785 -0.0438  0.0569  0.2414
  662POPI   C1B10223  11.878  15.075   5.547 -0.0252 -0.0452 -0.3145
  662POPI   C2B10224  11.660  14.894   5.835 -0.3441 -0.2174  0.1615
  662POPI   C3B10225  11.633  14.984   6.257 -0.1066  0.2311  0.0335
  662POPI   C4B10226  11.572  15.244   6.517  0.0698 -0.0099  0.0901
  663POPI    C110227   5.097  14.757   4.649 -0.3056 -0.0561 -0.0028
  663POPI    C210228   4.782  14.764   4.403 -0.1616 -0.1529 -0.1930
  663POPI    C310229   5.122  14.591   4.286  0.0400  0.1599 -0.0826
  663POPI   PO410230   5.140  15.061   4.768 -0.0730 -0.5647 -0.1420
  663POPI   GL110231   5.230  15.108   5.183 -0.1236  0.2825  0.0944
  663POPI   GL210232   5.223  15.329   5.304  0.2554 -0.3954 -0.4042
  663POPI   C1A10233   5.358  14.793   5.552 -0.0837  0.1628  0.1485
  663POPI   D2A10234   5.061  14.441   5.562 -0.0366 -0.0314 -0.0168
  663POPI   C3A10235   4.982  14.451   6.066  0.2817  0.3958  0.2956
  663POPI   C4A10236   5.153  14.246   6.408  0.0265 -0.2788 -0.0001
  663POPI   C1B10237   5.204  15.263   5.676  0.0382  0.1788  0.1660
  663POPI   C2B10238   5.472  14.965   6.024  0.1288 -0.1073 -0.0408
  663POPI   C3B10239   5.391  14.745   6.380 -0.1231  0.2818 -0.0101
  663POPI   C4B10240   5.328  14.580   6.794 -0.0728  0.3100 -0.1001
  664POPI    C110241   7.111   3.121   5.689  0.1513  0.0215  0.1068
  664POPI    C210242   7.133   2.726   5.746  0.0576  0.0231  0.1572
  664POPI    C310243   6.999   2.871   5.398  0.1914  0.0113  0.1002
  664POPI   PO410244   7.454   3.317   5.734 -0.0052 -0.0905 -0.1826
  664POPI   GL110245   7.625   3.201   6.145  0.0286  0.2427  0.0354
  664POPI   GL210246   7.454   2.987   6.190 -0.5909 -0.3625 -0.1680
  664POPI   C1A10247   7.535   3.296   6.568  0.0458 -0.2891  0.1933
  664POPI   D2A10248   7.370   3.367   6.950  0.3369  0.3870 -0.4320
  664POPI   C3A10249   7.515   3.584   7.245 -0.0265 -0.1129 -0.1340
  664POPI   C4A10250   7.739   3.589   7.602  0.1263  0.2075 -0.2170
  664POPI   C1B10251   7.444   2.644   6.315  0.0827 -0.0901 -0.0435
  664POPI   C2B10252   7.703   2.340   6.515  0.0879 -0.3419  0.2089
  664POPI   C3B10253   7.503   1.933   6.673 -0.3364  0.1826 -0.2053
  664POPI   C4B10254   7.202   1.753   6.921  0.3308  0.0397 -0.1591
  665POPI    C110255   7.113  16.432   4.714  0.0455 -0.1274  0.0541
  665POPI    C210256   6.764  16.602   4.616  0.0523 -0.1224  0.0383
  665POPI    C310257   7.081  16.646   4.377  0.0860 -0.0575  0.0944
  665POPI   PO410258   7.070  16.497   5.038 -0.0242 -0.1143 -0.3143
  665POPI   GL110259   6.985  16.172   5.283  0.2625  0.0739 -0.0520
  665POPI   GL210260   7.148  15.967   5.448  0.2400 -0.0839 -0.1533
  665POPI   C1A10261   6.948  16.311   5.822  0.0815 -0.1320 -0.2240
  665POPI   D2A10262   6.704  16.824   5.865 -0.1510  0.2615 -0.1188
  665POPI   C3A10263   6.849  16.780   6.301  0.0103 -0.1634  0.0817
  665POPI   C4A10264   6.674  16.931   6.720 -0.3643  0.1171  0.0012
  665POPI   C1B10265   7.215  15.855   5.872  0.3788 -0.1440  0.3328
  665POPI   C2B10266   7.058  16.024   6.255 -0.4020  0.1311  0.2696
  665POPI   C3B10267   7.064  16.383   6.411 -0.0834  0.0155 -0.1205
  665POPI   C4B10268   7.054  16.633   6.751  0.0118 -0.2181  0.0586
  666POPI    C110269  15.025   9.491   5.190  0.0203  0.1070  0.0575
  666POPI    C210270  14.928   9.864   5.086 -0.1204  0.0019 -0.1976
  666POPI    C310271  15.286   9.716   4.988 -0.1496 -0.0050 -0.2946
  666POPI   PO410272  14.970   9.539   5.510  0.3359 -0.2234 -0.1564
  666POPI   GL110273  14.862   9.714   5.944 -0.1722 -0.0064 -0.0345
  666POPI   GL210274  14.597   9.682   6.080  0.2883 -0.2126 -0.0229
  666POPI   C1A10275  15.206   9.544   6.176 -0.1516 -0.1770 -0.0317
  666POPI   D2A10276  15.501   9.407   6.449 -0.3395 -0.1576 -0.4292
  666POPI   C3A10277  15.376   9.016   6.575  0.3113  0.0457 -0.1486
  666POPI   C4A10278  15.093   8.734   6.779  0.0469  0.1671  0.0320
  666POPI   C1B10279  14.996   9.824   6.462 -0.2701 -0.1826 -0.2106
  666POPI   C2B10280  15.289   9.724   6.699  0.1095 -0.4341  0.0213
  666POPI   C3B10281  15.411   9.507   7.094 -0.0549 -0.0883  0.0223
  666POPI   C4B10282  15.633   9.201   7.465  0.1893 -0.1279  0.1576
  667POPI    C110283   2.082   6.530   5.381 -0.1255 -0.0123  0.2501
  667POPI    C210284   2.330   6.237   5.267  0.0197  0.1519  0.1391
  667POPI    C310285   2.139   6.457   4.992 -0.1698  0.0951  0.2231
  667POPI   PO410286   2.216   6.560   5.668  0.0108 -0.2478 -0.0108
  667POPI   GL110287   2.084   6.581   6.072 -0.2290  0.1923 -0.0746
  667POPI   GL210288   2.119   6.953   6.132 -0.0352  0.4034 -0.1142
  667POPI   C1A10289   2.016   6.341   6.503  0.0335 -0.1374  0.2219
  667POPI   D2A10290   1.933   6.394   6.846 -0.0114  0.3033  0.0798
  667POPI   C3A10291   2.050   6.725   7.063 -0.1017 -0.0566 -0.0239
  667POPI   C4A10292   1.975   7.073   7.310  0.3667  0.2098 -0.2021
  667POPI   C1B10293   2.404   6.982   6.390  0.1023 -0.3308 -0.1990
  667POPI   C2B10294   2.481   7.075   6.922  0.0160 -0.1067 -0.0863
  667POPI   C3B10295   2.503   6.819   7.337 -0.1771 -0.1867  0.0733
  667POPI   C4B10296   2.651   6.599   7.660  0.1356 -0.2008  0.1836
  668POPI    C110297  18.659  19.216   4.872  0.1740 -0.0959 -0.2832
  668POPI    C210298  18.827  18.977   5.145  0.0854  0.0378 -0.1084
  668POPI    C310299  18.726  18.831   4.786  0.1808 -0.1456 -0.0622
  668POPI   PO410300  18.822  19.446   4.966  0.0680  0.3829 -0.1320
  668POPI   GL110301  19.124  19.636   5.230  0.0874 -0.4550 -0.3029
  668POPI   GL210302  18.835  19.574   5.447  0.2886  0.1776 -0.2239
  668POPI   C1A10303  19.199  19.501   5.730 -0.0074  0.2740  0.2599
  668POPI   D2A10304  19.454  19.140   5.959  0.1807  0.0133  0.1064
  668POPI   C3A10305  19.419  18.772   5.916 -0.1386  0.1019  0.0950
  668POPI   C4A10306  19.195  18.414   6.079 -0.3137 -0.1119  0.0905
  668POPI   C1B10307  18.761  19.681   5.890 -0.0020  0.0517 -0.4971
  668POPI   C2B10308  18.795  19.770   6.299 -0.1917  0.2449 -0.0013
  668POPI   C3B10309  18.787  19.661   6.799 -0.0121 -0.0090 -0.0066
  668POPI   C4B10310  18.662  19.260   7.085 -0.4360 -0.0003  0.0411
  669POPI    C110311   5.531   6.430   5.592 -0.1694  0.2215  0.2160
  669POPI    C210312   5.702   6.554   5.253  0.1042  0.1266  0.3167
  669POPI    C310313   5.754   6.177   5.378 -0.2528  0.0699  0.3057
  669POPI   PO410314   5.414   6.635   5.729 -0.2275 -0.0400  0.0019
  669POPI   GL110315   5.243   6.940   6.050  0.2150  0.4403  0.2153
  669POPI   GL210316   4.931   7.003   5.850 -0.3988  0.1245 -0.2831
  669POPI   C1A10317   5.247   6.782   6.391  0.0244 -0.1173  0.0458
  669POPI   D2A10318   5.019   6.858   6.777  0.1050 -0.0639 -0.3664
  669POPI   C3A10319   4.599   6.957   6.871  0.2174 -0.2911  0.1488
  669POPI   C4A10320   4.278   7.279   6.905 -0.1282 -0.1116 -0.0694
  669POPI   C1B10321   4.825   7.236   6.258  0.0851  0.2045  0.2186
  669POPI   C2B10322   4.647   7.408   6.594 -0.1104 -0.2097 -0.2111
  669POPI   C3B10323   4.863   7.356   6.981  0.2252 -0.2863 -0.1658
  669POPI   C4B10324   4.940   7.470   7.415 -0.0654  0.0554 -0.0838
  670POPI    C110325   3.447   0.605   5.468 -0.2131  0.0021  0.1560
  670POPI    C210326   3.468   0.932   5.698 -0.0945  0.1167 -0.0143
  670POPI    C310327   3.120   0.827   5.529 -0.0386  0.4119 -0.3233
  670POPI   PO410328   3.702   0.455   5.616  0.1291 -0.2195 -0.0093
  670POPI   GL110329   3.889   0.197   5.895 -0.0755 -0.1040  0.1498
  670POPI   GL210330   4.100  -0.023   5.700 -0.0199  0.1361  0.5456
  670POPI   C1A10331   4.036   0.117   6.338  0.0898 -0.3256  0.1256
  670POPI   D2A10332   3.742   0.220   6.701  0.2596  0.2183  0.1630
  670POPI   C3A10333   3.376   0.475   6.783 -0.1701 -0.0929 -0.1939
  670POPI   C4A10334   3.287   0.855   6.898  0.1572 -0.1025  0.0771
  670POPI   C1B10335   4.300  -0.112   6.072 -0.2121  0.0447  0.1057
  670POPI   C2B10336   4.298  -0.348   6.395  0.0268  0.0316  0.2332
  670POPI   C3B10337   4.098  -0.513   6.697  0.0728  0.2411 -0.1450
  670POPI   C4B10338   4.268  -0.914   6.958  0.2850 -0.0924  0.1590
  671POPI    C110339  18.112   2.805   5.722  0.0368 -0.0192  0.0401
  671POPI    C210340  18.200   3.022   5.398 -0.0757  0.2123  0.1621
  671POPI    C310341  18.099   2.637   5.359 -0.1342  0.2504 -0.0821
  671POPI   PO410342  18.388   2.792   5.822 -0.0053  0.1155  0.3690
  671POPI   GL110343  18.643   2.823   6.088  0.1375 -0.1134 -0.0685
  671POPI   GL210344  18.567   2.618   6.362  0.0140 -0.1504  0.0986
  671POPI   C1A10345  18.525   3.093   6.434  0.0118  0.0620 -0.2846
  671POPI   D2A10346  18.677   3.242   6.887 -0.1524 -0.1648  0.3069
  671POPI   C3A10347  18.603   2.973   7.148 -0.0544 -0.2688 -0.3788
  671POPI   C4A10348  18.207   2.804   7.146  0.1646 -0.0386 -0.2237
  671POPI   C1B10349  18.429   2.345   6.517 -0.1462 -0.0256 -0.3011
  671POPI   C2B10350  18.157   2.099   6.687 -0.1133 -0.0080 -0.1929
  671POPI   C3B10351  18.000   1.942   7.048  0.0126  0.1399  0.3625
  671POPI   C4B10352  17.913   1.859   7.547 -0.1970 -0.2724 -0.0310
  672POPI    C110353  10.165  12.143   4.992  0.2826 -0.1277 -0.1955
  672POPI    C210354  10.098  12.397   4.690  0.1093  0.1005  0.0299
  672POPI    C310355  10.460  12.380   4.860  0.1719  0.0631 -0.1056
  672POPI   PO410356   9.951  12.157   5.257 -0.2504  0.3757 -0.1659
  672POPI   GL110357   9.890  11.905   5.585 -0.1247  0.0690  0.0684
  672POPI   GL210358  10.226  11.928   5.597  0.0438 -0.0678 -0.3039
  672POPI   C1A10359   9.922  12.103   6.025 -0.0779  0.2175 -0.0979
  672POPI   D2A10360   9.908  12.374   6.417  0.0580  0.2249 -0.0027
  672POPI   C3A10361   9.634  12.241   6.797 -0.0680 -0.1227  0.1427
  672POPI   C4A10362   9.497  12.286   7.265 -0.0480 -0.0968  0.1369
  672POPI   C1B10363  10.411  12.275   5.771  0.0840 -0.0463 -0.1256
  672POPI   C2B10364  10.433  12.218   6.221 -0.1609 -0.1227  0.0893
  672POPI   C3B10365  10.232  12.031   6.601 -0.0279 -0.1974  0.2537
  672POPI   C4B10366  10.211  11.748   7.009 -0.0743  0.0563 -0.0955
  673POPI    C110367   2.963  18.082   5.301  0.2735  0.2383  0.1836
  673POPI    C210368   3.058  18.086   4.912 -0.2569 -0.0016  0.0430
  673POPI    C310369   2.994  18.430   5.106  0.4396  0.1446  0.0388
  673POPI   PO410370   2.647  17.898   5.325  0.0347  0.2999 -0.1130
  673POPI   GL110371   2.594  17.642   5.726  0.3141 -0.0195 -0.0252
  673POPI   GL210372   2.728  17.959   5.881 -0.0515  0.1900 -0.0444
  673POPI   C1A10373   2.881  17.293   5.976  0.0056  0.0297  0.1664
  673POPI   D2A10374   2.799  17.227   6.457  0.1213 -0.3107 -0.0402
  673POPI   C3A10375   2.426  17.339   6.662  0.3132 -0.1306  0.0655
  673POPI   C4A10376   2.175  17.536   6.974  0.0202 -0.0557  0.2232
  673POPI   C1B10377   2.424  18.095   6.104 -0.2649  0.2317  0.2623
  673POPI   C2B10378   2.469  18.414   6.409  0.2129 -0.1245 -0.2182
  673POPI   C3B10379   2.568  18.330   6.923 -0.3809  0.0056 -0.0820
  673POPI   C4B10380   2.517  18.576   7.172 -0.3032  0.0464 -0.0056
  674POPI    C110381  14.414  11.344   5.103  0.0741 -0.2073 -0.1707
  674POPI    C210382  14.386  11.618   4.814  0.1013  0.0988  0.1106
  674POPI    C310383  14.608  11.290   4.758  0.1784  0.1975 -0.1800
  674POPI   PO410384  14.157  11.326   5.263 -0.1208 -0.0281  0.2730
  674POPI   GL110385  14.081  11.504   5.750 -0.1991 -0.3517  0.0589
  674POPI   GL210386  14.179  11.367   5.977 -0.3250 -0.0141  0.3049
  674POPI   C1A10387  13.720  11.728   5.840 -0.1619 -0.1070 -0.1249
  674POPI   D2A10388  13.621  11.809   6.185  0.0583 -0.1527  0.0568
  674POPI   C3A10389  13.666  12.151   6.418  0.0158  0.0149 -0.0553
  674POPI   C4A10390  13.775  12.234   6.918 -0.1750 -0.3219  0.5605
  674POPI   C1B10391  14.429  11.259   6.279  0.1730 -0.0893  0.1131
  674POPI   C2B10392  14.384  11.174   6.667  0.2981  0.1196  0.2102
  674POPI   C3B10393  14.602  11.114   6.984 -0.0567 -0.2652 -0.5098
  674POPI   C4B10394  14.792  11.263   7.369  0.0292  0.1207 -0.0346
  675POPI    C110395  13.220  10.399   5.411  0.0252 -0.2508  0.0064
  675POPI    C210396  13.007  10.071   5.325 -0.0294 -0.2023 -0.0438
  675POPI    C310397  13.136  10.309   5.030 -0.1092 -0.1035  0.0005
  675POPI   PO410398  13.096  10.438   5.654 -0.3186  0.3664  0.0227
  675POPI   GL110399  13.186  10.427   6.134  0.1894  0.2296 -0.2904
  675POPI   GL210400  13.489  10.427   6.319  0.0015  0.2229  0.0557
  675POPI   C1A10401  12.990  10.356   6.455  0.0765 -0.1639  0.1373
  675POPI   D2A10402  12.655  10.316   6.834  0.4409  0.2239 -0.1233
  675POPI   C3A10403  12.711  10.232   7.279 -0.5246  0.3067  0.2136
  675POPI   C4A10404  13.030  10.325   7.660 -0.0563  0.3387 -0.0350
  675POPI   C1B10405  13.335  10.618   6.678  0.2572 -0.3983 -0.0361
  675POPI   C2B10406  13.433  10.743   6.890 -0.0376 -0.3974  0.0236
  675POPI   C3B10407  13.357  10.991   7.187 -0.0957  0.2735  0.0111
  675POPI   C4B10408  13.513  10.769   7.581 -0.2328  0.0296  0.4565
  676POPI    C110409  10.164   4.032   5.479  0.0006 -0.1082  0.0683
  676POPI    C210410  10.253   3.849   5.135 -0.0230  0.0918 -0.0460
  676POPI    C310411   9.938   3.728   5.351 -0.0558  0.0173 -0.1348
  676POPI   PO410412  10.392   4.109   5.515  0.2529 -0.0315 -0.1758
  676POPI   GL110413  10.403   4.476   5.852 -0.1212 -0.3012 -0.1437
  676POPI   GL210414  10.581   4.123   6.017  0.2796  0.1697 -0.1006
  676POPI   C1A10415  10.257   4.523   6.272 -0.1936  0.0979 -0.4171
  676POPI   D2A10416  10.108   4.556   6.648 -0.1838  0.0676 -0.4529
  676POPI   C3A10417   9.656   4.582   6.735 -0.0538 -0.1339 -0.1755
  676POPI   C4A10418   9.532   4.898   7.022  0.0511  0.2959 -0.2706
  676POPI   C1B10419  10.559   4.180   6.398 -0.2376 -0.1424  0.2151
  676POPI   C2B10420  10.410   4.109   6.844 -0.0921 -0.1905 -0.0210
  676POPI   C3B10421  10.263   3.773   7.136 -0.1695  0.2684  0.0412
  676POPI   C4B10422   9.815   3.655   7.208  0.3216 -0.2004  0.2235
  677POPI    C110423   9.959   3.282   5.196 -0.0544  0.0773  0.1303
  677POPI    C210424   9.754   2.959   5.081 -0.0377  0.1176 -0.0140
  677POPI    C310425   9.574   3.315   5.095 -0.0101  0.1319 -0.0226
  677POPI   PO410426  10.117   3.151   5.346  0.1634  0.2153 -0.1554
  677POPI   GL110427  10.202   3.106   5.773  0.0562 -0.3421  0.3230
  677POPI   GL210428  10.202   2.916   6.007 -0.1356  0.0656  0.1779
  677POPI   C1A10429  10.472   3.391   5.929 -0.1716  0.1386  0.0584
  677POPI   D2A10430  10.655   3.638   6.105 -0.0971 -0.1777  0.0130
  677POPI   C3A10431  10.768   3.561   6.492  0.2620  0.2590  0.0354
  677POPI   C4A10432  10.626   3.478   7.003 -0.0440 -0.0670  0.0170
  677POPI   C1B10433  10.202   3.173   6.314  0.2106 -0.1595 -0.2328
  677POPI   C2B10434  10.232   3.131   6.630  0.0335 -0.0350 -0.0303
  677POPI   C3B10435  10.042   3.214   7.064  0.1986 -0.1038 -0.3522
  677POPI   C4B10436   9.922   3.000   7.413 -0.2705 -0.0771  0.0581
  678POPI    C110437  18.519   7.402   5.516  0.0736  0.0392 -0.1713
  678POPI    C210438  18.376   7.770   5.453 -0.0215  0.0489  0.0856
  678POPI    C310439  18.199   7.454   5.282 -0.0434  0.1068  0.0008
  678POPI   PO410440  18.569   7.404   5.842  0.2157 -0.3028  0.2947
  678POPI   GL110441  18.695   7.617   6.242  0.1554 -0.3512  0.1913
  678POPI   GL210442  18.886   7.889   6.218 -0.1400  0.0643  0.2045
  678POPI   C1A10443  18.586   7.670   6.741 -0.0723 -0.2075  0.1116
  678POPI   D2A10444  18.719   8.054   7.001  0.0039  0.1929  0.0336
  678POPI   C3A10445  19.032   7.951   7.262 -0.2139 -0.0029  0.1913
  678POPI   C4A10446  19.165   8.038   7.677  0.0574 -0.1659 -0.3595
  678POPI   C1B10447  19.116   7.824   6.672  0.2509 -0.1319 -0.3533
  678POPI   C2B10448  19.120   7.539   6.991 -0.4309  0.0329  0.0399
  678POPI   C3B10449  19.228   7.547   7.446  0.1116  0.0000 -0.0558
  678POPI   C4B10450  19.181   7.391   7.794 -0.0728 -0.0308 -0.0210
  679POPI    C110451  15.104  12.939   5.033 -0.1002 -0.0015 -0.0978
  679POPI    C210452  15.071  12.623   4.790 -0.1798 -0.0263 -0.0550
  679POPI    C310453  14.779  12.896   4.803 -0.0537  0.1167 -0.1870
  679POPI   PO410454  15.217  12.944   5.309 -0.0868 -0.0721  0.2822
  679POPI   GL110455  15.268  13.152   5.608 -0.1102  0.0515 -0.1324
  679POPI   GL210456  15.536  13.304   5.792 -0.0023 -0.0874 -0.2225
  679POPI   C1A10457  15.141  13.114   5.971 -0.3647  0.4499  0.1446
  679POPI   D2A10458  15.378  13.174   6.346  0.0691  0.1241 -0.3944
  679POPI   C3A10459  15.509  13.542   6.677  0.0583  0.0752  0.1723
  679POPI   C4A10460  15.787  13.758   6.982  0.0475  0.0247  0.1144
  679POPI   C1B10461  15.716  13.621   6.030  0.1106  0.1378 -0.2401
  679POPI   C2B10462  15.887  13.743   6.356 -0.1976 -0.1473  0.0802
  679POPI   C3B10463  16.118  14.010   6.730  0.1196 -0.0810 -0.0814
  679POPI   C4B10464  16.126  14.130   7.134 -0.1275  0.1079 -0.2580
  680POPI    C110465  15.765   2.114   4.988 -0.2366  0.0066  0.0024
  680POPI    C210466  15.587   2.243   4.654 -0.1502 -0.1320 -0.0984
  680POPI    C310467  15.967   2.118   4.643 -0.1693 -0.2040  0.0378
  680POPI   PO410468  15.530   2.134   5.151 -0.1064 -0.0597  0.0333
  680POPI   GL110469  15.271   2.106   5.549 -0.2674  0.0474  0.0859
  680POPI   GL210470  15.557   1.915   5.742  0.0868 -0.0403 -0.0468
  680POPI   C1A10471  14.881   2.154   5.838  0.2714 -0.3962 -0.2911
  680POPI   D2A10472  14.558   2.397   6.112  0.1740 -0.1107  0.2784
  680POPI   C3A10473  14.106   2.447   6.320 -0.2784 -0.0273  0.1586
  680POPI   C4A10474  13.633   2.601   6.129  0.0047  0.3627  0.2800
  680POPI   C1B10475  15.395   2.130   6.097  0.0607 -0.0403  0.0459
  680POPI   C2B10476  15.376   2.055   6.572 -0.4434 -0.0123 -0.0482
  680POPI   C3B10477  15.332   1.767   6.826 -0.0799  0.1789 -0.1338
  680POPI   C4B10478  15.166   1.904   7.166  0.0673 -0.1046  0.0140
  681POPI    C110479  18.749  14.049   5.098 -0.1650 -0.0441 -0.0231
  681POPI    C210480  18.739  13.734   4.852 -0.1470  0.0477 -0.1427
  681POPI    C310481  18.547  14.070   4.753 -0.3222  0.0132  0.0715
  681POPI   PO410482  19.073  14.073   5.216 -0.0373 -0.1838  0.4150
  681POPI   GL110483  19.199  14.042   5.693 -0.1648  0.1265  0.1591
  681POPI   GL210484  19.004  13.817   5.604  0.1224  0.1265  0.2101
  681POPI   C1A10485  19.027  14.428   5.948 -0.0689  0.1053  0.1865
  681POPI   D2A10486  18.609  14.423   6.032  0.1623  0.0149 -0.5014
  681POPI   C3A10487  18.286  14.520   6.280  0.1143  0.1841 -0.0333
  681POPI   C4A10488  17.958  14.482   6.527 -0.0819  0.1483 -0.0387
  681POPI   C1B10489  19.252  13.565   5.980  0.2438 -0.5394 -0.5031
  681POPI   C2B10490  19.158  13.499   6.427  0.1082  0.1858 -0.2955
  681POPI   C3B10491  19.132  13.669   6.818  0.0634  0.0032 -0.0364
  681POPI   C4B10492  19.037  14.174   6.886  0.0657 -0.5619 -0.2136
  682POPI    C110493  12.061  18.927   5.072  0.0685 -0.2317  0.1368
  682POPI    C210494  12.256  19.156   4.808 -0.1284 -0.0838  0.1168
  682POPI    C310495  12.362  18.774   4.859  0.1211 -0.0240  0.0587
  682POPI   PO410496  12.064  19.074   5.310  0.0596  0.0659  0.1022
  682POPI   GL110497  12.052  19.347   5.650  0.0661 -0.2654  0.1901
  682POPI   GL210498  12.344  19.304   5.746  0.3169 -0.1039  0.1632
  682POPI   C1A10499  11.949  19.103   5.949  0.1607  0.1257 -0.2147
  682POPI   D2A10500  11.890  19.128   6.395  0.0101  0.0388 -0.0303
  682POPI   C3A10501  12.236  19.101   6.578  0.2255  0.1114 -0.0780
  682POPI   C4A10502  12.623  19.494   6.507 -0.0596 -0.0778  0.0076
  682POPI   C1B10503  12.228  19.519   6.189  0.0183  0.1172  0.0655
  682POPI   C2B10504  12.134  19.618   6.682 -0.2602 -0.0010 -0.0689
  682POPI   C3B10505  11.949  19.889   6.925 -0.0762  0.0718  0.0752
  682POPI   C4B10506  11.836  20.248   6.918  0.1927 -0.1593 -0.0882
  683POPI    C110507   4.843   7.304   5.494  0.4312  0.1557 -0.0467
  683POPI    C210508   4.927   7.562   5.199 -0.0830  0.1195 -0.2358
  683POPI    C310509   4.890   7.171   5.119 -0.1390  0.0979 -0.1061
  683POPI   PO410510   4.959   7.437   5.657  0.0629  0.3941 -0.1685
  683POPI   GL110511   5.100   7.595   6.054  0.3768  0.0542 -0.0846
  683POPI   GL210512   5.438   7.685   6.099 -0.1311 -0.1261 -0.2129
  683POPI   C1A10513   5.083   7.669   6.553  0.1168  0.2554 -0.1403
  683POPI   D2A10514   5.242   7.683   6.984 -0.0496 -0.1809 -0.0122
  683POPI   C3A10515   5.374   7.996   7.168 -0.2518 -0.1202  0.0460
  683POPI   C4A10516   5.415   7.971   7.533  0.3045  0.3149 -0.0381
  683POPI   C1B10517   5.296   8.031   6.256  0.3241 -0.0310 -0.1031
  683POPI   C2B10518   5.458   8.077   6.649  0.0525 -0.0255  0.2476
  683POPI   C3B10519   5.532   8.567   6.741  0.0865  0.2891  0.0167
  683POPI   C4B10520   5.583   8.906   6.901 -0.0537  0.2767  0.0069
  684POPI    C110521   7.567  11.471   4.666 -0.3080  0.1038 -0.0805
  684POPI    C210522   7.255  11.402   4.426 -0.3581 -0.1386  0.0515
  684POPI    C310523   7.409  11.104   4.644 -0.1408  0.0183  0.1153
  684POPI   PO410524   7.533  11.598   4.923  0.2092 -0.3052 -0.1286
  684POPI   GL110525   7.537  11.639   5.403 -0.2013  0.1653  0.0025
  684POPI   GL210526   7.676  11.482   5.549  0.4448  0.0880 -0.3269
  684POPI   C1A10527   7.472  11.974   5.749 -0.2763  0.1759 -0.2323
  684POPI   D2A10528   7.414  12.253   6.068 -0.0004  0.1610 -0.0787
  684POPI   C3A10529   7.626  12.082   6.452  0.0675 -0.1889 -0.1055
  684POPI   C4A10530   7.738  12.330   6.749  0.2083 -0.3653  0.0021
  684POPI   C1B10531   7.579  11.557   5.996 -0.0588  0.0955 -0.5856
  684POPI   C2B10532   7.711  11.599   6.411  0.0951  0.0551 -0.1220
  684POPI   C3B10533   7.756  11.822   6.830 -0.1694 -0.3496 -0.3009
  684POPI   C4B10534   7.877  11.843   7.273  0.0255  0.3091  0.1834
  685POPI    C110535   0.012  16.300   5.092 -0.0901  0.1911 -0.2677
  685POPI    C210536  -0.371  16.357   4.992 -0.2248 -0.0349  0.0996
  685POPI    C310537  -0.234  15.987   5.058  0.0970  0.0314 -0.1700
  685POPI   PO410538   0.055  16.463   5.270  0.0064  0.0187  0.3952
  685POPI   GL110539   0.326  16.531   5.603 -0.0512 -0.4753  0.0260
  685POPI   GL210540   0.349  16.822   5.601  0.2570 -0.2106 -0.0623
  685POPI   C1A10541   0.563  16.361   6.027 -0.1879  0.3766 -0.5122
  685POPI   D2A10542   0.794  16.371   6.353  0.1237 -0.0271  0.0154
  685POPI   C3A10543   0.800  16.609   6.711  0.1032  0.1595  0.1265
  685POPI   C4A10544   0.528  16.369   7.041  0.1104 -0.3318  0.2269
  685POPI   C1B10545   0.074  16.856   5.952 -0.2723 -0.0139  0.0108
  685POPI   C2B10546   0.038  17.107   6.360 -0.0271 -0.3919 -0.0331
  685POPI   C3B10547  -0.022  17.422   6.278  0.1040  0.0682  0.1136
  685POPI   C4B10548  -0.047  17.313   5.902 -0.0048  0.0049  0.2475
  686POPI    C110549   3.994   5.910   5.777 -0.1509 -0.2263 -0.0632
  686POPI    C210550   3.883   6.065   5.426 -0.0716  0.0187  0.0175
  686POPI    C310551   4.196   5.817   5.444  0.0616  0.1796 -0.0546
  686POPI   PO410552   3.772   5.734   5.891  0.0268 -0.0643 -0.1070
  686POPI   GL110553   3.782   5.645   6.340 -0.0099  0.0711 -0.0244
  686POPI   GL210554   4.074   5.517   6.246  0.1436  0.0245 -0.0002
  686POPI   C1A10555   3.579   5.505   6.629  0.0673 -0.0058 -0.1604
  686POPI   D2A10556   3.330   5.284   6.822  0.5520 -0.1445 -0.1980
  686POPI   C3A10557   3.111   5.247   7.237 -0.0206  0.0761  0.0853
  686POPI   C4A10558   2.949   5.484   7.567 -0.1437  0.0804  0.1356
  686POPI   C1B10559   4.011   5.177   6.562  0.1375 -0.0487  0.2805
  686POPI   C2B10560   3.940   5.233   7.067  0.1030 -0.4607  0.2155
  686POPI   C3B10561   3.966   5.448   7.375  0.0837  0.0467 -0.0642
  686POPI   C4B10562   4.085   5.832   7.419 -0.0180  0.1018  0.2599
  687POPI    C110563   3.903   8.604   5.884 -0.0031  0.2526 -0.2334
  687POPI    C210564   4.120   8.616   5.548  0.2319  0.1519 -0.0880
  687POPI    C310565   4.245   8.812   5.874 -0.0283  0.3031 -0.0763
  687POPI   PO410566   3.870   8.320   5.843 -0.3125 -0.1697 -0.3058
  687POPI   GL110567   3.559   8.255   6.186 -0.2208 -0.2007  0.0609
  687POPI   GL210568   3.312   8.319   6.093 -0.1507  0.3692 -0.4992
  687POPI   C1A10569   3.468   7.965   6.468 -0.0517  0.0041 -0.0470
  687POPI   D2A10570   3.259   7.836   6.826 -0.4425 -0.0062  0.0013
  687POPI   C3A10571   3.125   7.713   7.170 -0.2393 -0.0244 -0.1019
  687POPI   C4A10572   2.776   7.857   7.327  0.2774 -0.1370 -0.0996
  687POPI   C1B10573   3.019   8.118   6.485  0.0107  0.1261  0.0021
  687POPI   C2B10574   2.788   8.213   6.890 -0.3109  0.1860  0.3118
  687POPI   C3B10575   2.693   8.360   7.127  0.1952 -0.0098  0.1101
  687POPI   C4B10576   2.864   8.356   7.578 -0.0970 -0.0058  0.1735
  688POPI    C110577  15.654   4.134   5.168  0.2127 -0.0489  0.1484
  688POPI    C210578  15.827   4.340   5.464  0.0165  0.4275 -0.0571
  688POPI    C310579  16.016   4.295   5.115  0.0572  0.2561 -0.0143
  688POPI   PO410580  15.336   4.285   5.318  0.0414  0.2738 -0.3739
  688POPI   GL110581  15.321   4.265   5.771 -0.0134 -0.1953  0.2275
  688POPI   GL210582  15.005   4.233   5.940  0.0675 -0.1308  0.2946
  688POPI   C1A10583  15.543   4.119   6.091 -0.2204 -0.2932 -0.3154
  688POPI   D2A10584  15.803   3.736   5.937 -0.0302  0.2069  0.1412
  688POPI   C3A10585  16.169   3.682   6.147 -0.0409  0.1384 -0.0953
  688POPI   C4A10586  16.544   3.502   6.171 -0.4132 -0.2041  0.0306
  688POPI   C1B10587  15.111   4.297   6.366  0.0727  0.0646 -0.0914
  688POPI   C2B10588  15.153   4.310   6.834  0.1547  0.1998 -0.1299
  688POPI   C3B10589  15.129   4.385   7.295 -0.1214 -0.2130 -0.0766
  688POPI   C4B10590  15.134   4.248   7.744  0.1477  0.0157 -0.3111
  689POPI    C110591   0.772  17.091   5.298 -0.0452  0.1117  0.3942
  689POPI    C210592   0.499  17.245   5.050  0.0591  0.0484  0.2386
  689POPI    C310593   0.889  17.293   4.973  0.0921 -0.1679  0.2662
  689POPI   PO410594   0.745  17.133   5.561 -0.3766 -0.2631  0.0533
  689POPI   GL110595   0.932  17.060   5.867 -0.3087  0.3611  0.0699
  689POPI   GL210596   0.658  16.843   5.964 -0.1616  0.1903 -0.0145
  689POPI   C1A10597   1.021  16.833   6.316  0.2948 -0.0453  0.1148
  689POPI   D2A10598   1.329  16.568   6.668  0.2212 -0.1001 -0.1098
  689POPI   C3A10599   1.294  16.707   7.015  0.0703 -0.0641  0.0380
  689POPI   C4A10600   1.015  16.997   7.027 -0.0614 -0.0733  0.4807
  689POPI   C1B10601   0.444  16.782   6.327  0.2407 -0.1097  0.0305
  689POPI   C2B10602   0.235  16.752   6.740  0.0810 -0.0817  0.2558
  689POPI   C3B10603   0.008  16.498   7.002 -0.1524 -0.1946  0.0420
  689POPI   C4B10604   0.176  16.550   7.421  0.0981 -0.2780 -0.1585
  690POPI    C110605  16.361  16.919   5.210 -0.0233 -0.1570  0.0064
  690POPI    C210606  16.760  16.919   5.183 -0.0011  0.0819  0.2877
  690POPI    C310607  16.542  17.136   4.927  0.0462 -0.0712  0.1158
  690POPI   PO410608  16.255  16.646   5.132  0.0904  0.4782 -0.5265
  690POPI   GL110609  16.063  16.366   5.447  0.0852 -0.1753 -0.1781
  690POPI   GL210610  15.890  16.239   5.574  0.0474  0.2924  0.0328
  690POPI   C1A10611  16.173  16.717   5.796 -0.1682  0.4344  0.3695
  690POPI   D2A10612  16.310  16.697   6.192 -0.0475 -0.0092  0.1109
  690POPI   C3A10613  16.493  16.982   6.375 -0.1998  0.0422 -0.1295
  690POPI   C4A10614  16.623  17.055   6.818  0.1826 -0.2787 -0.3563
  690POPI   C1B10615  15.845  16.367   5.931  0.1411 -0.1478 -0.2126
  690POPI   C2B10616  15.817  16.562   6.372 -0.2178 -0.2578 -0.0328
  690POPI   C3B10617  15.806  16.819   6.753  0.0367  0.0567  0.2930
  690POPI   C4B10618  16.146  17.047   6.907 -0.0932 -0.0081 -0.1080
  691POPI    C110619   8.742   4.370   5.408 -0.0505  0.2702  0.1226
  691POPI    C210620   8.980   4.106   5.225 -0.1333  0.2876 -0.0107
  691POPI    C310621   8.669   3.978   5.443  0.0433  0.2617  0.2295
  691POPI   PO410622   8.904   4.482   5.578  0.0980  0.1594 -0.3573
  691POPI   GL110623   9.146   4.507   5.944  0.0992  0.1981 -0.2487
  691POPI   GL210624   8.974   4.294   6.089 -0.5611  0.0593 -0.0181
  691POPI   C1A10625   9.400   4.421   6.308  0.1081  0.3075 -0.1803
  691POPI   D2A10626   9.211   4.280   6.747 -0.0557  0.0905  0.1570
  691POPI   C3A10627   9.370   4.332   7.139  0.1129  0.1915 -0.1822
  691POPI   C4A10628   9.526   4.385   7.592 -0.0648  0.0971  0.0451
  691POPI   C1B10629   8.794   4.152   6.497 -0.0735 -0.0391  0.0372
  691POPI   C2B10630   8.685   4.330   6.849 -0.1631 -0.1755  0.0495
  691POPI   C3B10631   8.829   4.211   7.272 -0.3002 -0.0085  0.3607
  691POPI   C4B10632   8.998   4.254   7.664  0.0065 -0.0952  0.4431
  692POPI    C110633   1.096   8.123   5.568 -0.1796 -0.1279  0.2249
  692POPI    C210634   0.701   8.185   5.556 -0.2071 -0.3301 -0.0098
  692POPI    C310635   0.953   8.485   5.476 -0.3185 -0.2708 -0.1438
  692POPI   PO410636   1.232   8.106   5.803 -0.0022  0.3532 -0.0154
  692POPI   GL110637   1.056   8.390   6.098  0.4631  0.5782 -0.2435
  692POPI   GL210638   1.085   8.551   5.991  0.0846  0.1256 -0.0613
  692POPI   C1A10639   1.176   8.605   6.544 -0.2909 -0.1680 -0.0100
  692POPI   D2A10640   1.263   8.857   6.817  0.1433  0.1045  0.0830
  692POPI   C3A10641   1.188   8.600   7.241 -0.2271  0.0619  0.3343
  692POPI   C4A10642   0.913   8.603   7.646  0.0422  0.2159 -0.2057
  692POPI   C1B10643   0.732   8.699   6.379  0.1865 -0.2324  0.0980
  692POPI   C2B10644   0.735   8.897   6.840  0.0693  0.0043  0.0564
  692POPI   C3B10645   0.959   9.092   7.107 -0.0003 -0.1605 -0.0885
  692POPI   C4B10646   1.042   9.438   7.224  0.4706 -0.1503  0.0106
  693POPI    C110647   8.713  18.211   4.854  0.0994 -0.0171  0.2138
  693POPI    C210648   8.840  18.523   4.638 -0.0708  0.0654  0.2316
  693POPI    C310649   8.472  18.376   4.581  0.0918 -0.2843  0.0561
  693POPI   PO410650   8.910  18.150   5.074  0.0962  0.1549  0.0351
  693POPI   GL110651   8.697  18.263   5.533 -0.1921 -0.0352 -0.0010
  693POPI   GL210652   8.330  18.229   5.519 -0.1411  0.0331  0.1888
  693POPI   C1A10653   8.757  18.039   5.857 -0.0736  0.0903  0.1999
  693POPI   D2A10654   8.820  17.774   6.275 -0.0257 -0.2011  0.1451
  693POPI   C3A10655   8.855  17.612   6.623  0.3002  0.0485  0.0906
  693POPI   C4A10656   8.854  17.642   7.110 -0.2665 -0.1885 -0.1266
  693POPI   C1B10657   7.987  18.084   5.725  0.3787  0.0643 -0.2613
  693POPI   C2B10658   7.558  18.128   5.834 -0.0733 -0.2548 -0.4123
  693POPI   C3B10659   7.343  17.903   6.100 -0.1544 -0.0746  0.0302
  693POPI   C4B10660   7.170  17.657   6.267 -0.0424  0.1278  0.0961
  694POPI    C110661   0.402   4.168   5.886 -0.1091  0.1962  0.0350
  694POPI    C210662   0.291   4.412   5.588 -0.1619 -0.0004 -0.1081
  694POPI    C310663   0.574   4.135   5.526  0.2149  0.3093  0.1751
  694POPI   PO410664   0.097   4.093   5.931 -0.0397 -0.2223  0.2384
  694POPI   GL110665  -0.024   4.316   6.384 -0.1402  0.2134 -0.1673
  694POPI   GL210666   0.311   4.184   6.465  0.0501 -0.6457 -0.0241
  694POPI   C1A10667  -0.045   4.559   6.794  0.1451 -0.3351 -0.2044
  694POPI   D2A10668  -0.279   4.423   7.269  0.2103  0.0060  0.0868
  694POPI   C3A10669  -0.586   4.567   7.517 -0.0993 -0.1920  0.0257
  694POPI   C4A10670  -0.731   4.956   7.747  0.0696  0.1467 -0.1304
  694POPI   C1B10671   0.417   4.530   6.745  0.0517 -0.1904  0.3492
  694POPI   C2B10672   0.407   4.681   7.110 -0.1162 -0.1680  0.0355
  694POPI   C3B10673   0.551   4.759   7.526 -0.0223 -0.1089  0.1480
  694POPI   C4B10674   0.479   4.608   7.873 -0.0075 -0.0374  0.0656
  695POPI    C110675  14.710  12.351   4.610 -0.0756  0.0116  0.0248
  695POPI    C210676  14.686  12.676   4.378 -0.2032  0.0347  0.0698
  695POPI    C310677  14.533  12.329   4.251  0.0765 -0.0480 -0.0473
  695POPI   PO410678  14.579  12.444   4.852 -0.0855  0.2679 -0.0871
  695POPI   GL110679  14.540  12.699   5.225  0.1743 -0.1734 -0.1124
  695POPI   GL210680  14.280  12.770   5.131  0.3861 -0.0744  0.0463
  695POPI   C1A10681  14.627  13.042   5.485 -0.0527 -0.2269 -0.1290
  695POPI   D2A10682  14.628  13.234   5.834 -0.1636 -0.2325 -0.4500
  695POPI   C3A10683  14.715  13.216   6.201  0.1708 -0.2588 -0.1347
  695POPI   C4A10684  14.966  13.109   6.625 -0.1029  0.1047 -0.2022
  695POPI   C1B10685  14.273  12.790   5.641 -0.0123 -0.3169  0.1968
  695POPI   C2B10686  14.272  12.891   6.060 -0.3811  0.1629 -0.0577
  695POPI   C3B10687  14.254  13.101   6.536 -0.4177 -0.0649  0.0714
  695POPI   C4B10688  14.074  12.915   6.851 -0.0772 -0.1015  0.0563
  696POPI    C110689  14.023  10.850   5.267  0.2488 -0.1404  0.0651
  696POPI    C210690  14.123  10.530   5.048  0.3482 -0.2488  0.2660
  696POPI    C310691  14.255  10.893   4.944  0.1076 -0.2475 -0.0523
  696POPI   PO410692  13.916  10.696   5.507  0.4692 -0.1952 -0.1155
  696POPI   GL110693  13.959  10.810   5.855 -0.4550 -0.1129 -0.0736
  696POPI   GL210694  14.220  10.964   5.756  0.0042 -0.1932  0.1970
  696POPI   C1A10695  13.968  10.935   6.261 -0.2459 -0.3417 -0.0211
  696POPI   D2A10696  13.936  10.828   6.716 -0.1233 -0.1514 -0.1417
  696POPI   C3A10697  14.304  10.716   6.867  0.1777  0.1656 -0.1271
  696POPI   C4A10698  14.515  10.309   6.796  0.0881 -0.2795  0.0222
  696POPI   C1B10699  14.574  10.867   5.951 -0.1544 -0.0137 -0.1307
  696POPI   C2B10700  14.798  10.802   6.362 -0.0509  0.0460 -0.0382
  696POPI   C3B10701  14.887  11.151   6.656 -0.0766 -0.0684  0.2881
  696POPI   C4B10702  15.092  11.505   6.996  0.1490 -0.0422 -0.1781
  697POPI    C110703  16.835  17.808   4.969  0.1718  0.1769  0.0015
  697POPI    C210704  16.625  17.735   4.637 -0.1263 -0.0827  0.2415
  697POPI    C310705  16.969  17.937   4.615 -0.2316  0.0597 -0.1996
  697POPI   PO410706  16.790  17.531   5.093 -0.2618  0.2040  0.2553
  697POPI   GL110707  16.993  17.435   5.575  0.1326 -0.1258 -0.1748
  697POPI   GL210708  16.885  17.114   5.609  0.1542 -0.0944 -0.3589
  697POPI   C1A10709  17.236  17.596   5.688  0.1669 -0.3992  0.1265
  697POPI   D2A10710  17.472  17.709   6.071 -0.2210  0.4069  0.0711
  697POPI   C3A10711  17.208  17.821   6.403  0.0985  0.1522  0.0047
  697POPI   C4A10712  17.095  17.765   6.830 -0.1324  0.0264 -0.1342
  697POPI   C1B10713  16.931  16.933   5.986 -0.0070  0.0973 -0.4317
  697POPI   C2B10714  16.855  16.586   6.156  0.1764  0.2058 -0.1226
  697POPI   C3B10715  17.131  16.254   6.263 -0.3787 -0.2789 -0.1697
  697POPI   C4B10716  17.320  15.929   6.359 -0.1883  0.5183 -0.1262
  698POPI    C110717   9.130   7.202   5.250 -0.0947 -0.0543  0.0846
  698POPI    C210718   8.792   7.335   5.420  0.0466  0.1109  0.2403
  698POPI    C310719   9.042   7.593   5.243  0.3531  0.0681  0.5968
  698POPI   PO410720   9.288   7.106   5.411  0.3644 -0.0556 -0.3307
  698POPI   GL110721   9.487   6.771   5.692  0.1358 -0.1077  0.0177
  698POPI   GL210722   9.400   7.109   5.915 -0.5175 -0.1464 -0.0785
  698POPI   C1A10723   9.173   6.727   6.121 -0.1384  0.1582 -0.1241
  698POPI   D2A10724   8.924   6.908   6.382  0.2739 -0.0730 -0.1284
  698POPI   C3A10725   8.541   7.002   6.095  0.1832  0.0808 -0.2379
  698POPI   C4A10726   8.281   7.375   6.085  0.1326  0.1634  0.1096
  698POPI   C1B10727   9.376   7.258   6.354  0.1255 -0.0038 -0.3973
  698POPI   C2B10728   9.603   7.296   6.750  0.1685 -0.1910  0.1004
  698POPI   C3B10729   9.721   7.444   7.245 -0.5047  0.0492 -0.2435
  698POPI   C4B10730   9.850   7.343   7.576 -0.0327  0.0647 -0.0505
  699POPI    C110731   3.246   8.281   5.631  0.3175 -0.1627 -0.1337
  699POPI    C210732   3.299   8.579   5.368 -0.1814  0.1259  0.0782
  699POPI    C310733   3.425   8.620   5.746  0.2316 -0.1545 -0.0223
  699POPI   PO410734   2.997   8.289   5.661 -0.1014  0.1534  0.2977
  699POPI   GL110735   2.782   8.342   6.035  0.0629 -0.0690 -0.3691
  699POPI   GL210736   2.574   8.176   6.192 -0.0703  0.1895  0.1385
  699POPI   C1A10737   2.597   8.653   6.306  0.2073 -0.1165 -0.1384
  699POPI   D2A10738   2.312   9.059   6.443  0.3295 -0.1257  0.0441
  699POPI   C3A10739   2.074   9.366   6.221  0.2002 -0.1112  0.1692
  699POPI   C4A10740   1.688   9.498   6.460 -0.0416 -0.0514 -0.2272
  699POPI   C1B10741   2.376   8.193   6.549 -0.3208  0.1605 -0.1069
  699POPI   C2B10742   2.027   8.295   6.742 -0.1684  0.3666  0.3209
  699POPI   C3B10743   1.669   7.994   6.912 -0.2642 -0.2854 -0.1111
  699POPI   C4B10744   1.397   7.822   7.169 -0.1031 -0.2254  0.0613
  700POPI    C110745   1.880  11.860   4.886 -0.0458  0.0026 -0.1342
  700POPI    C210746   1.800  12.211   4.711 -0.3151 -0.0869 -0.1947
  700POPI    C310747   1.753  11.870   4.507  0.1573 -0.1508 -0.2082
  700POPI   PO410748   1.727  12.012   5.168 -0.1717 -0.3504 -0.0169
  700POPI   GL110749   1.642  12.067   5.547  0.4218  0.1642  0.1446
  700POPI   GL210750   1.422  12.300   5.547 -0.1867  0.1151 -0.1547
  700POPI   C1A10751   1.946  11.881   5.750  0.0208 -0.0018  0.1752
  700POPI   D2A10752   2.047  11.868   6.212  0.0287 -0.1269 -0.1210
  700POPI   C3A10753   2.374  12.085   6.396  0.2495 -0.2132  0.0756
  700POPI   C4A10754   2.659  12.469   6.545 -0.1869 -0.0583  0.2069
  700POPI   C1B10755   1.771  12.332   5.906  0.2623 -0.2748 -0.2967
  700POPI   C2B10756   2.043  12.434   6.421  0.2314 -0.1586 -0.0261
  700POPI   C3B10757   2.190  12.376   6.859  0.0601 -0.0211 -0.3990
  700POPI   C4B10758   2.612  12.120   6.902  0.1794  0.3628  0.2437
  701POPS   CNO10759   7.705   8.177   5.371  0.1961  0.0799 -0.0692
  701POPS   PO410760   7.290   8.161   5.612  0.0493 -0.1537 -0.2758
  701POPS   GL110761   7.060   8.064   5.908  0.1544  0.1271 -0.0534
  701POPS   GL210762   6.960   8.177   6.199 -0.0009 -0.1863 -0.0008
  701POPS   C1A10763   7.236   7.795   6.324  0.1419 -0.2558 -0.5469
  701POPS   D2A10764   6.949   7.594   6.667  0.2090  0.0915  0.0708
  701POPS   C3A10765   7.167   7.583   7.066  0.2710 -0.0852  0.4342
  701POPS   C4A10766   7.256   7.419   7.477  0.3732 -0.2466 -0.1589
  701POPS   C1B10767   6.776   8.109   6.625 -0.0095  0.2473  0.0016
  701POPS   C2B10768   6.778   7.949   6.994 -0.3964 -0.0294  0.2243
  701POPS   C3B10769   6.709   7.793   7.432 -0.0805  0.4419 -0.2349
  701POPS   C4B10770   6.471   7.399   7.578  0.1633  0.3332  0.0687
  702POPS   CNO10771   9.333  13.964   4.973 -0.0263 -0.3058  0.0259
  702POPS   PO410772   9.339  13.515   5.012  0.1161 -0.0418  0.0923
  702POPS   GL110773   9.242  13.612   5.501 -0.0325  0.0271  0.1660
  702POPS   GL210774   9.494  13.598   5.790  0.0910 -0.1681  0.0358
  702POPS   C1A10775   9.041  13.471   6.023  0.2473 -0.0471 -0.0125
  702POPS   D2A10776   9.033  13.623   6.444  0.1892  0.0202  0.0343
  702POPS   C3A10777   8.793  13.866   6.684  0.0351 -0.0342 -0.2484
  702POPS   C4A10778   8.514  14.211   6.533  0.0559 -0.0626  0.0353
  702POPS   C1B10779   9.460  13.777   6.186  0.0201  0.1440 -0.2195
  702POPS   C2B10780   9.770  13.676   6.581  0.0744  0.0641  0.1639
  702POPS   C3B10781   9.820  13.368   6.826  0.2565  0.0795 -0.0027
  702POPS   C4B10782   9.698  13.037   7.090 -0.1741  0.0097 -0.0977
  703POPS   CNO10783  11.543  11.771   5.418  0.1760 -0.2492 -0.0162
  703POPS   PO410784  11.631  11.488   5.742 -0.1389  0.0698 -0.0334
  703POPS   GL110785  11.877  11.755   5.978 -0.0697 -0.5214  0.2132
  703POPS   GL210786  12.125  11.886   5.936  0.1921  0.0214  0.1600
  703POPS   C1A10787  11.724  12.216   6.129 -0.0798  0.0821 -0.0242
  703POPS   D2A10788  11.742  12.155   6.594  0.4301  0.0484 -0.3866
  703POPS   C3A10789  11.382  12.145   6.913  0.1254 -0.0147  0.1985
  703POPS   C4A10790  11.130  11.760   6.996  0.4387  0.1996  0.2906
  703POPS   C1B10791  12.289  12.319   6.092 -0.1181  0.0322  0.1925
  703POPS   C2B10792  12.649  12.414   6.294 -0.1324 -0.1623 -0.0164
  703POPS   C3B10793  12.878  12.684   6.562 -0.1059 -0.1026  0.0557
  703POPS   C4B10794  12.996  12.562   6.978 -0.3586  0.1405 -0.2305
  704POPS   CNO10795   1.765   1.266   5.538  0.2326 -0.0040 -0.1186
  704POPS   PO410796   1.569   0.939   5.859  0.0119 -0.1386  0.2536
  704POPS   GL110797   1.776   0.728   6.237  0.0230 -0.2466 -0.2440
  704POPS   GL210798   1.425   0.522   6.206 -0.0118  0.0449 -0.1083
  704POPS   C1A10799   1.666   0.710   6.694  0.0451  0.1175  0.0201
  704POPS   D2A10800   1.455   0.722   7.045 -0.2704 -0.0881  0.1437
  704POPS   C3A10801   0.960   0.798   7.098 -0.1067  0.4042 -0.5728
  704POPS   C4A10802   0.793   1.198   7.195  0.0374  0.4759 -0.2705
  704POPS   C1B10803   1.272   0.379   6.643  0.2223  0.2729 -0.3427
  704POPS   C2B10804   0.924   0.123   6.708 -0.1009  0.2108 -0.3277
  704POPS   C3B10805   0.854  -0.232   7.052  0.0441 -0.1710 -0.0239
  704POPS   C4B10806   0.758  -0.367   7.427 -0.1638 -0.0763 -0.0096
  705POPS   CNO10807   4.997   0.073   4.960 -0.0153  0.2877  0.1512
  705POPS   PO410808   4.973  -0.145   5.305 -0.0195  0.0637 -0.1846
  705POPS   GL110809   5.192  -0.205   5.811 -0.2461  0.0433 -0.0162
  705POPS   GL210810   5.124  -0.535   5.854  0.1990  0.1913 -0.3520
  705POPS   C1A10811   5.327  -0.344   6.263 -0.1742 -0.1432 -0.0490
  705POPS   D2A10812   5.507  -0.319   6.687 -0.2640 -0.0733  0.0907
  705POPS   C3A10813   5.421   0.111   6.954 -0.1728  0.1501 -0.2416
  705POPS   C4A10814   5.576   0.163   7.392 -0.1035  0.3738 -0.0062
  705POPS   C1B10815   5.155  -0.829   6.212  0.3915  0.4049  0.2527
  705POPS   C2B10816   5.055  -0.804   6.551 -0.2694  0.1525  0.1616
  705POPS   C3B10817   5.128  -0.659   7.008 -0.0734 -0.0102  0.2198
  705POPS   C4B10818   5.414  -0.336   7.192  0.3555  0.0791  0.2185
  706POPS   CNO10819   9.014  12.403   5.398 -0.2310  0.0560 -0.0666
  706POPS   PO410820   9.000  12.736   5.575  0.0482  0.0560  0.1097
  706POPS   GL110821   8.783  12.681   5.885  0.0297  0.0253  0.1723
  706POPS   GL210822   8.727  13.013   5.969 -0.2243 -0.0285 -0.3471
  706POPS   C1A10823   8.907  12.602   6.312  0.1007 -0.5948 -0.1894
  706POPS   D2A10824   9.104  12.280   6.399 -0.1473 -0.1874  0.0753
  706POPS   C3A10825   9.082  12.365   6.810 -0.1291  0.3014  0.0460
  706POPS   C4A10826   9.294  12.692   7.108 -0.5448 -0.0643  0.1060
  706POPS   C1B10827   8.930  13.074   6.366 -0.0994 -0.0551 -0.3033
  706POPS   C2B10828   9.246  13.098   6.807  0.0438  0.0906 -0.0257
  706POPS   C3B10829   9.168  13.203   7.207  0.0481 -0.0366  0.0698
  706POPS   C4B10830   9.057  13.522   7.449  0.0981 -0.1564  0.0912
  707POPS   CNO10831  15.525   6.750   5.834 -0.0453 -0.0557 -0.2864
  707POPS   PO410832  15.606   7.176   5.884 -0.1143 -0.3394 -0.1666
  707POPS   GL110833  15.406   7.096   6.208 -0.0127  0.2471  0.0143
  707POPS   GL210834  15.087   7.062   6.045  0.0131 -0.1677 -0.3421
  707POPS   C1A10835  15.195   6.867   6.474 -0.1548  0.1222 -0.1274
  707POPS   D2A10836  14.782   6.711   6.657  0.0994  0.1236  0.0001
  707POPS   C3A10837  14.620   6.684   6.996 -0.0689 -0.5911  0.0137
  707POPS   C4A10838  14.779   7.063   7.366 -0.0885  0.1111 -0.2755
  707POPS   C1B10839  14.773   7.112   6.389 -0.2904 -0.3681  0.0275
  707POPS   C2B10840  14.887   7.149   6.841 -0.0378 -0.1482 -0.0079
  707POPS   C3B10841  15.176   7.405   7.245 -0.3262 -0.2418 -0.2134
  707POPS   C4B10842  15.533   7.620   7.459  0.1369 -0.0286  0.0532
  708POPS   CNO10843   8.553   5.949   5.649  0.1364 -0.0414 -0.2498
  708POPS   PO410844   8.609   6.374   5.428 -0.0049 -0.2470 -0.1040
  708POPS   GL110845   8.722   6.449   5.883  0.0901  0.1817 -0.2195
  708POPS   GL210846   8.942   6.129   5.985  0.1201 -0.2016  0.1943
  708POPS   C1A10847   8.714   6.449   6.337  0.1079 -0.0856  0.2746
  708POPS   D2A10848   8.985   6.497   6.640  0.1984 -0.0697  0.1532
  708POPS   C3A10849   9.041   6.897   6.916  0.2149  0.5393 -0.0919
  708POPS   C4A10850   9.158   7.290   7.182 -0.0464  0.2566  0.2862
  708POPS   C1B10851   9.116   5.935   6.340 -0.0444  0.3988  0.2699
  708POPS   C2B10852   9.479   5.746   6.597  0.0051 -0.2225  0.3177
  708POPS   C3B10853   9.849   5.515   6.892 -0.2974 -0.3747  0.2860
  708POPS   C4B10854   9.927   5.170   7.032  0.1095  0.1207 -0.2802
  709POPS   CNO10855   3.209  16.378   5.431 -0.2989  0.2081 -0.1807
  709POPS   PO410856   2.745  16.600   5.442 -0.3686 -0.0085  0.0086
  709POPS   GL110857   2.513  16.775   5.894  0.2202  0.1413  0.0919
  709POPS   GL210858   2.205  16.631   6.071  0.0195  0.2331 -0.0478
  709POPS   C1A10859   2.451  16.872   6.445  0.2042  0.1554 -0.1568
  709POPS   D2A10860   2.573  16.867   6.832 -0.3559  0.1659  0.1558
  709POPS   C3A10861   2.763  17.099   7.056 -0.1112  0.2196  0.2203
  709POPS   C4A10862   2.642  17.447   7.234 -0.0443 -0.1963  0.0652
  709POPS   C1B10863   2.272  16.388   6.425 -0.3220  0.2764 -0.1801
  709POPS   C2B10864   2.206  16.487   6.876 -0.1926  0.2764 -0.1236
  709POPS   C3B10865   2.474  16.465   7.114 -0.1069 -0.3853  0.0262
  709POPS   C4B10866   2.762  16.609   7.368 -0.1441 -0.2139 -0.1126
  710POPS   CNO10867  13.385   5.147   5.518  0.0885  0.0195 -0.2550
  710POPS   PO410868  13.722   5.253   5.749 -0.0031  0.0164  0.1073
  710POPS   GL110869  13.906   5.396   6.114  0.1312  0.1832  0.0971
  710POPS   GL210870  13.787   5.079   6.306  0.1208  0.0434 -0.0187
  710POPS   C1A10871  14.102   5.292   6.603  0.3640  0.1039  0.3325
  710POPS   D2A10872  13.975   5.261   7.043  0.0846  0.2338  0.0614
  710POPS   C3A10873  13.819   5.631   7.276 -0.1323 -0.1513 -0.1035
  710POPS   C4A10874  13.498   5.846   7.581  0.1661  0.1955  0.0878
  710POPS   C1B10875  13.721   4.643   6.100 -0.2395  0.0038  0.3713
  710POPS   C2B10876  13.243   4.411   6.236 -0.2461  0.2624 -0.0878
  710POPS   C3B10877  13.007   4.099   6.526  0.0353 -0.1872 -0.0459
  710POPS   C4B10878  12.589   4.021   6.695  0.1533  0.0329 -0.1063
  711POPS   CNO10879   0.140   6.534   6.283  0.2046  0.1381 -0.1786
  711POPS   PO410880  -0.214   6.657   6.181  0.1605  0.4105  0.3299
  711POPS   GL110881  -0.410   6.767   6.530  0.0709  0.1103  0.5012
  711POPS   GL210882  -0.435   6.648   6.823 -0.1438  0.1223 -0.0876
  711POPS   C1A10883  -0.849   6.870   6.770 -0.1079 -0.0984  0.4442
  711POPS   D2A10884  -1.170   7.227   6.817 -0.0499  0.1568  0.2021
  711POPS   C3A10885  -1.093   7.631   7.022  0.1349  0.0197 -0.0139
  711POPS   C4A10886  -1.007   8.090   6.973  0.3511 -0.0429 -0.2555
  711POPS   C1B10887  -0.560   6.774   7.217  0.3521  0.2860  0.1264
  711POPS   C2B10888  -0.896   6.657   7.428 -0.1190 -0.2310  0.3295
  711POPS   C3B10889  -1.249   6.370   7.510 -0.3295  0.0852 -0.0809
  711POPS   C4B10890  -1.581   6.232   7.868 -0.2267 -0.3658 -0.2501
  712POPS   CNO10891  11.627   7.769   5.137 -0.2220  0.2087  0.0879
  712POPS   PO410892  11.232   7.931   5.272 -0.0226 -0.0315  0.2289
  712POPS   GL110893  11.612   8.075   5.617 -0.1112  0.2227  0.0185
  712POPS   GL210894  11.874   7.825   5.608  0.2360  0.1226 -0.1080
  712POPS   C1A10895  11.722   7.962   6.086 -0.1919 -0.2911  0.3280
  712POPS   D2A10896  11.669   8.145   6.342 -0.2140  0.3779 -0.1439
  712POPS   C3A10897  11.617   7.971   6.723  0.1905 -0.0034  0.0393
  712POPS   C4A10898  11.625   8.045   7.238  0.1093  0.1043  0.1277
  712POPS   C1B10899  11.503   7.647   5.785  0.3392  0.0406 -0.0319
  712POPS   C2B10900  11.366   7.668   6.215  0.0860  0.1930 -0.0449
  712POPS   C3B10901  11.139   7.854   6.510  0.1500  0.3463 -0.1389
  712POPS   C4B10902  10.922   7.986   6.882  0.1047  0.1074  0.3137
  713POPS   CNO10903   5.921   0.773   5.354  0.0743  0.1617 -0.1135
  713POPS   PO410904   6.160   0.847   5.779  0.0602  0.0057 -0.1460
  713POPS   GL110905   6.160   1.005   6.155 -0.2254 -0.0089 -0.0857
  713POPS   GL210906   6.162   1.365   6.200  0.4419  0.2206 -0.2276
  713POPS   C1A10907   6.340   1.179   6.602 -0.0345 -0.0145  0.0205
  713POPS   D2A10908   6.603   1.293   7.023  0.1669  0.2996  0.0350
  713POPS   C3A10909   7.007   1.307   7.133  0.0013  0.2194  0.1302
  713POPS   C4A10910   7.242   1.157   7.465 -0.0567  0.2301 -0.1029
  713POPS   C1B10911   5.768   1.256   6.456  0.3899 -0.0004  0.0641
  713POPS   C2B10912   5.726   1.072   6.814 -0.0348 -0.2148 -0.0572
  713POPS   C3B10913   5.455   0.784   6.987  0.4218 -0.0617  0.2146
  713POPS   C4B10914   5.094   0.454   7.165  0.0652 -0.0949 -0.3199
  714POPS   CNO10915  10.940  15.000   5.070 -0.1423 -0.4140 -0.2012
  714POPS   PO410916  11.005  15.406   4.992  0.1840 -0.0725 -0.0636
  714POPS   GL110917  11.340  15.248   5.310  0.1934 -0.1405  0.1143
  714POPS   GL210918  11.275  14.934   5.515  0.3697 -0.0343  0.0360
  714POPS   C1A10919  11.544  15.375   5.663  0.2111  0.2905  0.1535
  714POPS   D2A10920  11.553  15.421   6.047  0.0409  0.0394 -0.0505
  714POPS   C3A10921  11.150  15.564   6.352 -0.1316  0.1484  0.0158
  714POPS   C4A10922  11.046  15.776   6.768 -0.0133 -0.2464 -0.0374
  714POPS   C1B10923  11.149  15.115   5.943  0.1065  0.0648  0.0255
  714POPS   C2B10924  11.131  15.071   6.346 -0.0614 -0.0014 -0.1984
  714POPS   C3B10925  11.118  14.708   6.509  0.5420  0.0205 -0.1926
  714POPS   C4B10926  11.432  14.395   6.489 -0.3648  0.0127 -0.2523
  715POPS   CNO10927  13.304  18.587   5.101  0.2686  0.1999 -0.0351
  715POPS   PO410928  13.158  18.163   5.188 -0.0936 -0.0359  0.0402
  715POPS   GL110929  13.132  18.068   5.614  0.0998 -0.1216  0.1695
  715POPS   GL210930  13.235  17.793   5.755  0.0416 -0.0090 -0.3284
  715POPS   C1A10931  13.605  18.149   5.957 -0.2715 -0.2494 -0.0258
  715POPS   D2A10932  13.778  18.190   6.376  0.4081 -0.1624 -0.2507
  715POPS   C3A10933  13.442  18.108   6.761 -0.1609 -0.0496  0.0214
  715POPS   C4A10934  13.037  18.401   6.668 -0.1115  0.0462 -0.2348
  715POPS   C1B10935  13.323  17.632   6.128 -0.0350 -0.4274  0.0666
  715POPS   C2B10936  13.219  17.700   6.593 -0.0891 -0.2157 -0.2193
  715POPS   C3B10937  13.276  17.698   6.988  0.4743  0.1458  0.1014
  715POPS   C4B10938  13.183  17.527   7.410  0.2732 -0.1742 -0.1357
  716POPS   CNO10939  11.202  16.542   4.825 -0.1053 -0.0499 -0.0969
  716POPS   PO410940  10.901  16.820   4.964 -0.1176  0.1450 -0.0299
  716POPS   GL110941  10.941  16.615   5.269  0.0948  0.0808 -0.0863
  716POPS   GL210942  10.847  16.312   5.234 -0.0185 -0.1822  0.0733
  716POPS   C1A10943  10.832  16.713   5.740 -0.4654 -0.0522  0.0940
  716POPS   D2A10944  10.979  16.628   6.198 -0.0996  0.2108 -0.0963
  716POPS   C3A10945  10.866  16.774   6.617 -0.2689 -0.1763  0.1696
  716POPS   C4A10946  10.661  16.889   6.936  0.1014  0.5447  0.3458
  716POPS   C1B10947  11.017  16.239   5.652  0.1090 -0.0122  0.2310
  716POPS   C2B10948  11.065  16.113   6.154  0.0358 -0.3161  0.1617
  716POPS   C3B10949  10.850  16.198   6.470  0.1016 -0.2758  0.4201
  716POPS   C4B10950  10.817  16.297   6.882  0.0040  0.2149  0.1320
  717POPS   CNO10951  14.440  18.531   5.358  0.1044  0.3512  0.0408
  717POPS   PO410952  14.630  18.171   5.398 -0.1041  0.1489  0.1765
  717POPS   GL110953  14.720  18.382   5.781 -0.0242 -0.2360  0.2157
  717POPS   GL210954  14.545  18.574   5.899  0.2359 -0.1178  0.4133
  717POPS   C1A10955  15.054  18.520   5.967  0.0383  0.1502  0.0796
  717POPS   D2A10956  15.398  18.621   6.121 -0.1819 -0.0672 -0.0696
  717POPS   C3A10957  15.482  18.491   6.501 -0.0801  0.0326 -0.2871
  717POPS   C4A10958  15.756  18.161   6.688  0.0699 -0.2264  0.0760
  717POPS   C1B10959  14.555  18.628   6.350  0.0360 -0.1746  0.1154
  717POPS   C2B10960  14.597  18.873   6.660 -0.2573  0.1123  0.0195
  717POPS   C3B10961  15.050  19.081   6.788 -0.1066  0.2198  0.1877
  717POPS   C4B10962  15.367  19.028   7.025 -0.1009  0.2910 -0.1687
  718POPS   CNO10963  17.166   1.475   4.946 -0.0364 -0.1831  0.0859
  718POPS   PO410964  17.062   0.984   4.926 -0.1163  0.0480 -0.1406
  718POPS   GL110965  16.951   0.760   5.373 -0.1342 -0.1557  0.0290
  718POPS   GL210966  16.710   0.562   5.449  0.0520 -0.1513 -0.0808
  718POPS   C1A10967  17.137   0.532   5.673 -0.0879  0.0095 -0.1650
  718POPS   D2A10968  17.413   0.380   6.074 -0.2111 -0.3538 -0.3445
  718POPS   C3A10969  16.987   0.109   6.179  0.4163 -0.0640  0.0473
  718POPS   C4A10970  16.978  -0.280   6.154  0.0935 -0.0691 -0.1244
  718POPS   C1B10971  16.726   0.217   5.708  0.0617 -0.1513  0.0992
  718POPS   C2B10972  16.522  -0.045   6.014 -0.0272  0.0935  0.1770
  718POPS   C3B10973  16.339  -0.209   6.425  0.1777 -0.0163  0.2080
  718POPS   C4B10974  16.199  -0.065   6.819  0.2206  0.0605 -0.1910
  719POPS   CNO10975  11.779   9.594   4.875 -0.2090 -0.0920  0.1291
  719POPS   PO410976  11.746   9.656   5.299 -0.1215  0.4947 -0.2196
  719POPS   GL110977  11.597   9.702   5.603  0.1729 -0.0801 -0.1452
  719POPS   GL210978  11.235   9.798   5.519  0.3423 -0.0393  0.3477
  719POPS   C1A10979  11.392   9.719   5.974 -0.1037  0.2855  0.0989
  719POPS   D2A10980  11.292   9.338   6.202 -0.2549 -0.0799  0.1000
  719POPS   C3A10981  11.657   9.232   6.504 -0.2714  0.0089 -0.0070
  719POPS   C4A10982  12.025   9.218   6.360  0.0525  0.3625 -0.1888
  719POPS   C1B10983  10.900   9.909   5.818 -0.1382  0.0677  0.1321
  719POPS   C2B10984  10.994   9.915   6.248 -0.0926 -0.0816 -0.0162
  719POPS   C3B10985  11.281   9.801   6.509  0.0633  0.0166 -0.0623
  719POPS   C4B10986  11.538   9.879   6.895  0.0747  0.1856 -0.0469
  720POPS   CNO10987  15.251   0.309   4.910 -0.0515  0.0505  0.0761
  720POPS   PO410988  15.567   0.367   5.188 -0.1578  0.0708 -0.2741
  720POPS   GL110989  15.639   0.586   5.525 -0.0863 -0.0117  0.1748
  720POPS   GL210990  15.355   0.739   5.564 -0.3288  0.3216 -0.4460
  720POPS   C1A10991  15.729   0.555   5.961 -0.1398 -0.2791 -0.2239
  720POPS   D2A10992  15.590   0.464   6.433  0.1633 -0.0697 -0.1549
  720POPS   C3A10993  15.633   0.720   6.717  0.1118 -0.1087  0.1560
  720POPS   C4A10994  15.531   0.941   7.167  0.0853  0.0017 -0.1444
  720POPS   C1B10995  15.276   0.806   6.034 -0.1716 -0.2808 -0.0993
  720POPS   C2B10996  15.244   0.825   6.405 -0.1404 -0.3798 -0.0683
  720POPS   C3B10997  15.089   0.986   6.801 -0.1560 -0.0316  0.0678
  720POPS   C4B10998  14.678   0.998   7.115 -0.2023 -0.2096 -0.2884
  721POPS   CNO10999  12.491  16.224   5.010 -0.2561  0.1301  0.1964
  721POPS   PO411000  12.883  16.438   5.074  0.1749 -0.1392  0.0594
  721POPS   GL111001  12.774  16.162   5.438  0.1287  0.0452 -0.2369
  721POPS   GL211002  13.065  16.054   5.516  0.1600 -0.1505  0.0498
  721POPS   C1A11003  12.324  15.950   5.611 -0.1857  0.1052  0.3227
  721POPS   D2A11004  12.361  15.802   6.053  0.1363  0.1785 -0.1263
  721POPS   C3A11005  12.315  16.005   6.505 -0.1014 -0.0871  0.0095
  721POPS   C4A11006  12.254  16.077   6.932 -0.3690  0.2096  0.1190
  721POPS   C1B11007  12.784  15.741   5.699  0.0805 -0.0352  0.0160
  721POPS   C2B11008  12.855  15.757   6.202 -0.0946 -0.2017  0.0576
  721POPS   C3B11009  12.829  15.887   6.650  0.1171 -0.3843 -0.1455
  721POPS   C4B11010  12.688  15.681   6.979  0.0184  0.1266  0.1962
  722POPS   CNO11011   3.442  18.151   5.232  0.2560 -0.0234 -0.3571
  722POPS   PO411012   3.695  18.156   5.588  0.1030 -0.1216 -0.0343
  722POPS   GL111013   3.617  17.981   5.924  0.0008 -0.2684 -0.5557
  722POPS   GL211014   3.380  17.720   5.986  0.0178  0.0714 -0.1734
  722POPS   C1A11015   3.506  17.889   6.407 -0.0209  0.2976  0.2162
  722POPS   D2A11016   3.373  17.738   6.797  0.3134  0.2009  0.5632
  722POPS   C3A11017   3.173  17.411   7.063  0.1600 -0.1325  0.3948
  722POPS   C4A11018   3.112  17.410   7.521  0.3137 -0.6729  0.0136
  722POPS   C1B11019   3.048  17.757   6.234 -0.0022 -0.0428  0.0214
  722POPS   C2B11020   2.647  17.702   6.257 -0.1891 -0.1470  0.2841
  722POPS   C3B11021   2.443  17.248   6.144  0.0451  0.2397  0.0133
  722POPS   C4B11022   2.067  17.207   6.291  0.1675  0.2455  0.2658
  723POPS   CNO11023  10.723   8.842   5.188  0.1325 -0.3902  0.1956
  723POPS   PO411024  10.417   8.939   5.500  0.1369 -0.0275  0.2065
  723POPS   GL111025  10.461   9.043   5.916  0.1791 -0.4939  0.0952
  723POPS   GL211026  10.480   8.835   6.108 -0.0361  0.1687 -0.0064
  723POPS   C1A11027  10.813   9.145   6.333 -0.1147 -0.0166 -0.0264
  723POPS   D2A11028  11.122   9.302   6.663  0.0159  0.0295  0.1429
  723POPS   C3A11029  11.413   9.030   6.976  0.1184  0.2022 -0.1557
  723POPS   C4A11030  11.889   8.990   7.049  0.0060  0.0456  0.0490
  723POPS   C1B11031  10.031   8.893   6.113  0.3344 -0.1961  0.3181
  723POPS   C2B11032   9.653   8.771   6.404 -0.2207  0.1000  0.0226
  723POPS   C3B11033   9.312   8.687   6.563 -0.1338 -0.3021 -0.0758
  723POPS   C4B11034   8.879   8.722   6.413 -0.1317 -0.0590 -0.1954
  724POPS   CNO11035   2.023  14.654   5.173  0.0848 -0.3559  0.1186
  724POPS   PO411036   1.843  14.259   5.128  0.2347  0.0785 -0.1224
  724POPS   GL111037   1.798  14.355   5.610 -0.3628  0.0789 -0.2219
  724POPS   GL211038   2.002  14.634   5.634 -0.1281 -0.1914  0.2988
  724POPS   C1A11039   1.499  14.388   5.920  0.0444 -0.0736  0.1261
  724POPS   D2A11040   1.103  14.561   6.008  0.3535 -0.2349  0.1261
  724POPS   C3A11041   1.163  15.044   6.152  0.3946  0.1832 -0.3043
  724POPS   C4A11042   1.033  15.481   6.322 -0.2142  0.1048 -0.1534
  724POPS   C1B11043   1.877  14.769   5.915 -0.2987 -0.0843 -0.0367
  724POPS   C2B11044   1.541  14.732   6.234  0.0624 -0.1797  0.0507
  724POPS   C3B11045   1.342  14.751   6.603  0.0502  0.0861 -0.1474
  724POPS   C4B11046   1.064  14.675   6.951  0.1011  0.1623 -0.2334
  725POPS   CNO11047   2.735   2.344   5.519  0.2904  0.3633 -0.2618
  725POPS   PO411048   2.840   2.034   5.760 -0.1218  0.1595  0.1901
  725POPS   GL111049   2.695   1.870   6.214 -0.2924 -0.1270 -0.1030
  725POPS   GL211050   2.810   1.631   6.329  0.0631 -0.0431  0.0619
  725POPS   C1A11051   2.484   1.888   6.671  0.1831 -0.3781  0.0809
  725POPS   D2A11052   2.708   1.765   7.094  0.1358  0.3699  0.0995
  725POPS   C3A11053   2.610   1.672   7.514 -0.1366  0.2737 -0.1581
  725POPS   C4A11054   2.448   1.732   7.889  0.0838  0.2768 -0.1190
  725POPS   C1B11055   2.901   1.457   6.794  0.2790  0.1716 -0.0965
  725POPS   C2B11056   2.929   1.378   7.208 -0.1706  0.1245  0.0806
  725POPS   C3B11057   2.902   1.291   7.623 -0.0001  0.1637 -0.4776
  725POPS   C4B11058   3.251   1.145   7.903 -0.0635  0.1295 -0.2850
  726POPS   CNO11059  18.262   1.653   5.415  0.0719  0.1164  0.1953
  726POPS   PO411060  18.543   1.496   5.784  0.2449 -0.3847 -0.2029
  726POPS   GL111061  18.090   1.242   5.915 -0.3309 -0.0544 -0.1082
  726POPS   GL211062  17.774   1.443   6.107  0.0275  0.0259  0.0521
  726POPS   C1A11063  17.947   0.986   6.289 -0.1271 -0.1023  0.0853
  726POPS   D2A11064  18.060   0.929   6.686 -0.2404  0.2040 -0.0617
  726POPS   C3A11065  18.119   1.140   7.065  0.0083 -0.2447 -0.0572
  726POPS   C4A11066  17.872   1.527   7.196 -0.2298 -0.0009  0.2392
  726POPS   C1B11067  17.464   1.432   6.423  0.1281  0.0647 -0.1545
  726POPS   C2B11068  17.397   1.531   6.850  0.0195 -0.0120  0.1191
  726POPS   C3B11069  17.432   1.707   7.219 -0.0853  0.2336  0.0923
  726POPS   C4B11070  17.166   1.934   7.559 -0.1263  0.2290  0.0476
  727POPS   CNO11071  16.980   6.337   5.533 -0.0435 -0.1712 -0.0581
  727POPS   PO411072  16.706   6.009   5.664 -0.5223 -0.0976 -0.1352
  727POPS   GL111073  16.688   5.742   6.028  0.1733 -0.0612  0.0037
  727POPS   GL211074  16.511   5.367   6.119  0.3484  0.1227  0.0189
  727POPS   C1A11075  16.495   5.808   6.303  0.0171 -0.1024 -0.1772
  727POPS   D2A11076  16.545   6.189   6.506 -0.1929 -0.0466  0.1177
  727POPS   C3A11077  16.119   6.484   6.570 -0.2936  0.1601 -0.0527
  727POPS   C4A11078  15.711   6.481   6.449 -0.0390 -0.1712  0.4238
  727POPS   C1B11079  16.232   5.363   6.502  0.2204 -0.1860  0.2840
  727POPS   C2B11080  16.222   5.128   6.873 -0.2339 -0.1158 -0.0171
  727POPS   C3B11081  16.339   5.016   7.244  0.0045 -0.1239  0.0064
  727POPS   C4B11082  16.590   5.230   7.553 -0.0471 -0.1396 -0.2271
  728POPS   CNO11083  16.345  15.643   4.759  0.0466  0.0087  0.1602
  728POPS   PO411084  16.575  15.708   5.176 -0.1253  0.1542 -0.0164
  728POPS   GL111085  16.476  15.883   5.596  0.0251 -0.1149 -0.1070
  728POPS   GL211086  16.219  15.717   5.722  0.0407 -0.4492  0.0715
  728POPS   C1A11087  16.357  16.125   5.920  0.1447 -0.2978 -0.0116
  728POPS   D2A11088  16.190  16.212   6.369  0.1573 -0.2026 -0.1362
  728POPS   C3A11089  16.196  16.109   6.762 -0.0288  0.3055  0.0589
  728POPS   C4A11090  16.337  16.101   7.155 -0.1276  0.1491  0.3023
  728POPS   C1B11091  16.509  15.632   6.009  0.1819 -0.2785  0.0331
  728POPS   C2B11092  16.549  15.884   6.419  0.0591 -0.0490  0.1494
  728POPS   C3B11093  16.839  15.992   6.700 -0.0694  0.0983 -0.1997
  728POPS   C4B11094  16.763  16.344   7.051  0.1086  0.1890 -0.1170
  729POPS   CNO11095   2.514  13.391   5.048 -0.1787 -0.1115 -0.1591
  729POPS   PO411096   2.392  13.223   5.472  0.0868  0.1377  0.1149
  729POPS   GL111097   2.212  13.388   5.815  0.0247 -0.1448 -0.0525
  729POPS   GL211098   2.417  13.519   6.056 -0.0503  0.0496 -0.0279
  729POPS   C1A11099   1.975  13.311   6.100 -0.1679  0.2074  0.1907
  729POPS   D2A11100   1.536  13.217   6.011  0.1684 -0.1849  0.0984
  729POPS   C3A11101   1.151  13.280   6.248  0.2746 -0.1397  0.2352
  729POPS   C4A11102   0.789  13.019   6.292  0.2485  0.1283  0.0255
  729POPS   C1B11103   2.287  13.897   6.324  0.0957  0.2564 -0.3633
  729POPS   C2B11104   2.304  14.012   6.650  0.3829  0.0497  0.0081
  729POPS   C3B11105   2.395  14.316   7.011  0.0786 -0.1079 -0.0895
  729POPS   C4B11106   2.078  14.705   7.097  0.0359  0.0376 -0.3727
  730POPS   CNO11107  18.253  17.538   4.585  0.2874  0.1082 -0.1267
  730POPS   PO411108  18.149  17.347   4.882 -0.1351 -0.5421  0.0959
  730POPS   GL111109  18.101  17.390   5.350 -0.1469 -0.0982  0.2966
  730POPS   GL211110  18.459  17.479   5.672  0.3639 -0.1561  0.0352
  730POPS   C1A11111  17.911  17.361   5.808 -0.0124 -0.0856 -0.2924
  730POPS   D2A11112  17.715  17.143   6.053 -0.1345  0.1234  0.1631
  730POPS   C3A11113  17.693  17.241   6.329  0.0719 -0.4134  0.1107
  730POPS   C4A11114  17.769  17.220   6.777 -0.2102 -0.1196 -0.0141
  730POPS   C1B11115  18.294  17.671   5.999  0.2354  0.1288  0.1765
  730POPS   C2B11116  17.952  17.688   6.263  0.1529 -0.0109 -0.1093
  730POPS   C3B11117  17.663  17.673   6.590  0.0213  0.0957  0.2868
  730POPS   C4B11118  17.520  17.583   7.065 -0.0932  0.2230  0.5234
  731POPS   CNO11119   7.207  10.141   5.242  0.1101  0.1887  0.4270
  731POPS   PO411120   7.320  10.550   5.196 -0.2117 -0.1061 -0.0197
  731POPS   GL111121   7.320  10.790   5.571 -0.0086  0.0362  0.1010
  731POPS   GL211122   7.291  11.161   5.606 -0.1121  0.1273 -0.0744
  731POPS   C1A11123   7.399  10.740   6.032  0.1269 -0.1427 -0.0395
  731POPS   D2A11124   7.549  10.732   6.457 -0.0910 -0.4122  0.0809
  731POPS   C3A11125   7.519  10.489   6.833  0.2824  0.3188  0.0514
  731POPS   C4A11126   7.445  10.088   6.952  0.0040  0.0620  0.1003
  731POPS   C1B11127   7.110  11.161   5.923 -0.0432 -0.4055  0.0119
  731POPS   C2B11128   6.901  11.277   6.294 -0.1891 -0.1620  0.0543
  731POPS   C3B11129   6.753  11.598   6.518 -0.0797  0.3208  0.1605
  731POPS   C4B11130   6.801  11.917   6.696 -0.0471 -0.0116 -0.0583
  732POPS   CNO11131  17.682  10.630   4.959  0.2827 -0.0754  0.1470
  732POPS   PO411132  17.614  10.896   5.271 -0.2063  0.0267  0.0058
  732POPS   GL111133  17.605  11.135   5.607  0.2982 -0.0159  0.0059
  732POPS   GL211134  17.563  10.828   5.746 -0.0362 -0.1341  0.4814
  732POPS   C1A11135  17.735  11.524   5.876  0.0890 -0.0377  0.0661
  732POPS   D2A11136  17.492  11.744   6.170 -0.1049  0.3213  0.0551
  732POPS   C3A11137  17.691  12.024   6.292 -0.2609 -0.3470 -0.1748
  732POPS   C4A11138  17.965  12.272   6.219  0.1019 -0.1048 -0.0566
  732POPS   C1B11139  17.483  10.575   6.055 -0.0605  0.2023 -0.0495
  732POPS   C2B11140  17.539  10.534   6.493 -0.0731  0.0695  0.0519
  732POPS   C3B11141  17.377  10.475   6.913 -0.0756  0.2059  0.3919
  732POPS   C4B11142  17.026  10.547   7.113 -0.0590 -0.2393  0.1315
  733POPS   CNO11143  12.615   7.522   5.165  0.0766 -0.4126 -0.1530
  733POPS   PO411144  12.909   7.404   5.583 -0.0456  0.1078  0.1038
  733POPS   GL111145  12.870   7.246   5.908  0.2912  0.2019 -0.0970
  733POPS   GL211146  12.589   7.191   6.031 -0.1423 -0.1895  0.2767
  733POPS   C1A11147  12.881   7.320   6.416  0.1338  0.0945  0.1419
  733POPS   D2A11148  13.270   7.378   6.693  0.0200 -0.3507 -0.0660
  733POPS   C3A11149  13.633   7.490   6.511  0.2790 -0.2077 -0.0810
  733POPS   C4A11150  14.070   7.496   6.549 -0.1364  0.3249 -0.3580
  733POPS   C1B11151  12.521   7.593   6.118  0.0905  0.2191 -0.3533
  733POPS   C2B11152  12.236   7.957   6.071  0.0801 -0.1857  0.2599
  733POPS   C3B11153  12.073   8.382   6.251  0.0582  0.0918  0.0767
  733POPS   C4B11154  12.100   8.578   6.725  0.0104 -0.0547 -0.2486
  734POPS   CNO11155   1.911  16.140   5.489  0.4025  0.1966 -0.0896
  734POPS   PO411156   2.231  16.364   5.642  0.1349  0.0399 -0.3357
  734POPS   GL111157   2.215  15.971   5.910  0.0865  0.0753 -0.1050
  734POPS   GL211158   2.492  15.687   5.885 -0.1426 -0.0345  0.2928
  734POPS   C1A11159   2.142  15.861   6.294  0.0240 -0.4429 -0.0330
  734POPS   D2A11160   2.155  15.994   6.714 -0.3707  0.1880 -0.1958
  734POPS   C3A11161   2.410  15.980   7.015  0.1654 -0.0260  0.0092
  734POPS   C4A11162   2.571  16.059   7.439  0.1626 -0.2581 -0.1182
  734POPS   C1B11163   2.554  15.637   6.293 -0.2038 -0.1289  0.0511
  734POPS   C2B11164   2.618  15.506   6.748 -0.0796  0.0807 -0.0819
  734POPS   C3B11165   2.800  15.431   7.111 -0.0552  0.1736  0.1669
  734POPS   C4B11166   3.168  15.315   7.347  0.0482  0.1414 -0.3041
  735POPS   CNO11167  11.175  16.025   4.919  0.1249  0.3119  0.1138
  735POPS   PO411168  11.595  16.053   4.874  0.1073 -0.0153 -0.1186
  735POPS   GL111169  11.487  16.261   5.306 -0.1293 -0.1383 -0.1267
  735POPS   GL211170  11.413  16.591   5.350 -0.0360 -0.3495  0.3779
  735POPS   C1A11171  11.670  16.171   5.627  0.1712 -0.2798 -0.1224
  735POPS   D2A11172  11.516  15.953   5.846  0.1771  0.0030  0.2478
  735POPS   C3A11173  11.119  15.663   5.866  0.0018 -0.1622  0.0756
  735POPS   C4A11174  10.764  15.412   5.942 -0.2620  0.1739  0.0097
  735POPS   C1B11175  11.390  16.564   5.814 -0.0620 -0.0618 -0.0409
  735POPS   C2B11176  11.438  16.394   6.244  0.0854 -0.0802  0.1266
  735POPS   C3B11177  11.305  16.484   6.644  0.2027 -0.1484 -0.3102
  735POPS   C4B11178  11.280  16.410   7.132 -0.2691 -0.0005 -0.1243
  736POPS   CNO11179  10.608  17.995   4.364  0.4184  0.0151  0.0699
  736POPS   PO411180  10.576  17.799   4.747 -0.2852  0.0076 -0.0690
  736POPS   GL111181  10.599  17.662   5.174  0.0866 -0.0926  0.0382
  736POPS   GL211182  10.340  17.791   5.394 -0.3221  0.0692 -0.1288
  736POPS   C1A11183  10.779  17.495   5.455  0.0913 -0.1498 -0.0554
  736POPS   D2A11184  10.793  17.208   5.770 -0.0420 -0.2407  0.1976
  736POPS   C3A11185  10.552  17.085   6.132 -0.1315 -0.1759 -0.0927
  736POPS   C4A11186  10.260  17.012   6.486  0.1877 -0.0635  0.0112
  736POPS   C1B11187  10.347  18.199   5.544  0.1126 -0.3241  0.0876
  736POPS   C2B11188  10.490  18.583   5.676  0.0216 -0.1979 -0.0101
  736POPS   C3B11189  10.609  18.856   6.088 -0.3683  0.0101 -0.1088
  736POPS   C4B11190  11.026  18.758   6.294  0.4920 -0.0899 -0.3901
  737POPS   CNO11191  14.330   0.367   4.833 -0.1031  0.1418  0.0888
  737POPS   PO411192  14.459   0.397   5.288 -0.1071  0.0757  0.1349
  737POPS   GL111193  14.534   0.548   5.800 -0.1664 -0.2559 -0.1040
  737POPS   GL211194  14.895   0.550   5.909 -0.1665 -0.2382 -0.1783
  737POPS   C1A11195  14.491   0.410   6.222 -0.0514  0.0479  0.1824
  737POPS   D2A11196  14.091   0.389   6.186  0.0815  0.0315  0.1088
  737POPS   C3A11197  13.726   0.529   6.394 -0.2238 -0.2158  0.1070
  737POPS   C4A11198  13.375   0.790   6.510  0.2282 -0.0808 -0.0352
  737POPS   C1B11199  14.755   0.802   6.359  0.5536  0.0114  0.4761
  737POPS   C2B11200  14.776   0.605   6.765  0.0550  0.0956  0.2866
  737POPS   C3B11201  14.989   0.563   7.189 -0.2853  0.1321 -0.0900
  737POPS   C4B11202  15.059   0.888   7.505 -0.1439 -0.2893  0.1863
  738POPS   CNO11203  11.808  11.992   4.699  0.1167  0.0155  0.1970
  738POPS   PO411204  11.712  12.203   4.975 -0.1497 -0.2306  0.1569
  738POPS   GL111205  11.663  12.272   5.386  0.0154 -0.1026  0.0743
  738POPS   GL211206  11.972  12.293   5.596 -0.4413  0.1474  0.0637
  738POPS   C1A11207  11.401  12.169   5.768  0.3118  0.3126  0.1013
  738POPS   D2A11208  11.359  11.778   6.077 -0.0037  0.1611  0.0466
  738POPS   C3A11209  11.168  11.951   6.513  0.0362  0.2454  0.4056
  738POPS   C4A11210  10.817  12.185   6.623 -0.2594  0.0777  0.0840
  738POPS   C1B11211  11.862  12.654   5.859 -0.0944 -0.0142 -0.4383
  738POPS   C2B11212  11.863  13.018   6.094 -0.0720  0.2025 -0.0315
  738POPS   C3B11213  11.696  13.252   6.245  0.0415  0.1452  0.2675
  738POPS   C4B11214  11.310  13.364   6.255 -0.0875  0.2155  0.1246
  739POPS   CNO11215  14.911   2.353   5.277 -0.1590  0.2037 -0.1213
  739POPS   PO411216  15.216   2.630   5.344 -0.1041  0.0308  0.2869
  739POPS   GL111217  15.273   2.644   5.774 -0.0137 -0.1175  0.1358
  739POPS   GL211218  15.130   2.564   5.873  0.0124  0.0181  0.2366
  739POPS   C1A11219  15.600   2.682   6.094 -0.2428 -0.2334  0.1741
  739POPS   D2A11220  15.829   2.915   6.494 -0.2794  0.1594 -0.2869
  739POPS   C3A11221  15.982   2.854   6.767 -0.0179  0.0661 -0.0135
  739POPS   C4A11222  16.362   2.785   6.939 -0.3238  0.3244  0.2964
  739POPS   C1B11223  15.135   2.506   6.302 -0.1824 -0.0414  0.0273
  739POPS   C2B11224  15.288   2.648   6.705 -0.0867 -0.0850  0.3341
  739POPS   C3B11225  15.410   2.903   6.842 -0.2332 -0.0863  0.0705
  739POPS   C4B11226  15.558   2.908   7.281 -0.0610 -0.0693 -0.1485
  740POPS   CNO11227   8.707  14.638   5.054  0.5027 -0.0120 -0.2739
  740POPS   PO411228   9.062  14.714   5.087  0.1736  0.0646 -0.0139
  740POPS   GL111229   9.086  14.768   5.496  0.3497  0.1293 -0.0170
  740POPS   GL211230   9.385  14.886   5.620  0.3686 -0.4662  0.3720
  740POPS   C1A11231   9.148  14.491   5.862  0.0794 -0.4867  0.0696
  740POPS   D2A11232   9.205  14.573   6.342 -0.0624  0.0221  0.2350
  740POPS   C3A11233   9.019  14.378   6.765 -0.1670 -0.3881  0.0657
  740POPS   C4A11234   8.656  14.253   7.070 -0.1584  0.1206  0.0073
  740POPS   C1B11235   9.586  14.842   6.054 -0.0936  0.2029 -0.1602
  740POPS   C2B11236   9.610  14.839   6.475 -0.0998 -0.0292 -0.0736
  740POPS   C3B11237   9.863  14.884   6.839  0.1381  0.1785 -0.1434
  740POPS   C4B11238  10.094  15.217   7.187  0.0034 -0.0750 -0.0554
  741POPS   CNO11239   1.192   3.683   6.101 -0.3454 -0.0249 -0.1883
  741POPS   PO411240   1.438   3.295   5.978 -0.1419  0.1733  0.0370
  741POPS   GL111241   1.584   3.108   6.406  0.0049  0.3331 -0.3241
  741POPS   GL211242   1.875   2.969   6.313  0.0461  0.0862 -0.0636
  741POPS   C1A11243   1.523   3.143   6.898 -0.0677 -0.2986 -0.0081
  741POPS   D2A11244   1.366   3.111   7.157 -0.1619  0.0591 -0.1288
  741POPS   C3A11245   1.119   3.454   7.390 -0.0890  0.3421 -0.0804
  741POPS   C4A11246   1.014   3.481   7.741 -0.2740  0.1375 -0.1591
  741POPS   C1B11247   1.949   2.977   6.812 -0.0447  0.0089 -0.4050
  741POPS   C2B11248   2.073   3.030   7.225  0.3262 -0.0368  0.0163
  741POPS   C3B11249   2.274   3.259   7.534  0.0063  0.2706  0.3131
  741POPS   C4B11250   2.506   3.517   7.880 -0.0103 -0.2257  0.2046
  742POPS   CNO11251  13.090   4.397   4.839 -0.2077  0.0695 -0.0578
  742POPS   PO411252  13.003   4.253   5.313 -0.1865  0.0112  0.0419
  742POPS   GL111253  12.860   4.157   5.683  0.3806 -0.1435  0.1041
  742POPS   GL211254  13.146   3.893   5.861 -0.3115 -0.0419  0.0920
  742POPS   C1A11255  12.764   4.274   6.106  0.1157 -0.0931  0.0855
  742POPS   D2A11256  12.754   4.651   6.307 -0.1724 -0.1033 -0.1477
  742POPS   C3A11257  12.935   4.565   6.631  0.0938 -0.0849  0.2638
  742POPS   C4A11258  13.083   4.654   7.144 -0.0213 -0.2419  0.0378
  742POPS   C1B11259  13.357   3.765   6.161  0.5473  0.0299  0.0855
  742POPS   C2B11260  13.435   3.825   6.635  0.1669  0.0192  0.3796
  742POPS   C3B11261  13.127   3.990   7.004  0.0104  0.1458  0.1706
  742POPS   C4B11262  12.751   4.174   7.204  0.2105  0.0799 -0.3209
  743POPS   CNO11263   9.612  11.739   4.820 -0.0318  0.2349  0.0504
  743POPS   PO411264   9.445  11.898   5.221 -0.2088 -0.0654 -0.2991
  743POPS   GL111265   9.376  11.976   5.641  0.0502 -0.2902 -0.2667
  743POPS   GL211266   9.030  11.969   5.779  0.2543  0.0710  0.1354
  743POPS   C1A11267   9.568  11.784   6.152  0.0991  0.1815  0.1690
  743POPS   D2A11268   9.527  11.919   6.457 -0.1287  0.0333 -0.1390
  743POPS   C3A11269   9.782  11.715   6.761 -0.0656  0.0745 -0.0962
  743POPS   C4A11270   9.909  11.357   7.000 -0.1314 -0.0414 -0.1101
  743POPS   C1B11271   8.999  11.804   6.193 -0.5187  0.1231  0.0716
  743POPS   C2B11272   9.040  11.828   6.684  0.0981 -0.0108 -0.0939
  743POPS   C3B11273   9.338  11.876   6.994 -0.1879 -0.0712  0.1774
  743POPS   C4B11274   9.738  11.839   7.264  0.0962 -0.1598 -0.1105
  744POPS   CNO11275  11.102   6.030   5.041 -0.1960  0.0663 -0.0244
  744POPS   PO411276  11.138   5.899   5.348  0.2069 -0.1243 -0.0442
  744POPS   GL111277  10.961   6.046   5.703  0.3137  0.2651 -0.4582
  744POPS   GL211278  10.961   5.774   5.946 -0.3065  0.1909 -0.0491
  744POPS   C1A11279  11.026   6.222   6.139 -0.1374 -0.0720 -0.3337
  744POPS   D2A11280  10.646   6.440   6.383 -0.4001 -0.3067 -0.0406
  744POPS   C3A11281  10.290   6.629   6.309  0.0374 -0.2851 -0.3061
  744POPS   C4A11282  10.013   6.643   6.604 -0.0404  0.0797  0.2550
  744POPS   C1B11283  11.263   5.819   6.206  0.1342  0.0919 -0.2404
  744POPS   C2B11284  11.591   5.534   6.285  0.1863  0.0308  0.2953
  744POPS   C3B11285  11.748   5.244   6.406 -0.0894  0.2721 -0.2410
  744POPS   C4B11286  11.759   4.955   6.663 -0.0401  0.4029  0.3779
  745POPS   CNO11287   7.883  16.050   5.067  0.2632  0.0498 -0.3005
  745POPS   PO411288   7.693  15.621   4.922 -0.1212  0.3395 -0.2799
  745POPS   GL111289   7.534  15.579   5.317 -0.3170  0.1747  0.1537
  745POPS   GL211290   7.655  15.882   5.479 -0.2013 -0.2886 -0.0542
  745POPS   C1A11291   7.354  15.452   5.660 -0.1076  0.2593 -0.3292
  745POPS   D2A11292   7.229  15.187   5.954 -0.1976  0.0286  0.0024
  745POPS   C3A11293   7.139  14.815   5.774 -0.0075  0.0747 -0.2766
  745POPS   C4A11294   7.256  14.395   5.800  0.1794  0.4083 -0.0719
  745POPS   C1B11295   7.746  15.864   5.906  0.2163 -0.2841  0.1834
  745POPS   C2B11296   7.843  15.825   6.388  0.7031 -0.2226 -0.0218
  745POPS   C3B11297   7.981  15.891   6.870 -0.2761  0.0496  0.3529
  745POPS   C4B11298   8.346  16.048   6.999  0.1208  0.2576  0.0713
  746POPS   CNO11299   4.922   6.698   5.442  0.0979  0.0638  0.0744
  746POPS   PO411300   4.589   6.577   5.678  0.3031 -0.3442  0.0120
  746POPS   GL111301   4.588   6.704   6.038 -0.0741 -0.3537  0.2757
  746POPS   GL211302   4.297   6.886   6.179 -0.0834  0.2838  0.0241
  746POPS   C1A11303   4.755   6.682   6.437  0.0149  0.1859  0.2266
  746POPS   D2A11304   4.606   6.478   6.743  0.0873  0.0642  0.1219
  746POPS   C3A11305   4.859   6.314   6.920 -0.1781  0.2260 -0.1862
  746POPS   C4A11306   5.149   6.226   7.191  0.1344  0.0114  0.2717
  746POPS   C1B11307   4.102   6.766   6.616 -0.0043 -0.0616 -0.1745
  746POPS   C2B11308   3.967   6.744   7.008 -0.1415  0.1324 -0.0441
  746POPS   C3B11309   4.225   6.896   7.471 -0.1445  0.0212 -0.1339
  746POPS   C4B11310   4.505   7.263   7.475  0.2541 -0.3986 -0.2054
  747POPS   CNO11311  10.194  11.051   4.779 -0.1561  0.1550  0.2234
  747POPS   PO411312   9.974  11.021   5.113 -0.1717 -0.2257 -0.0432
  747POPS   GL111313   9.971  11.370   5.507  0.0350 -0.1989 -0.3009
  747POPS   GL211314  10.237  11.419   5.612 -0.1997 -0.0324  0.0155
  747POPS   C1A11315   9.943  11.500   5.988 -0.1325  0.0112 -0.1398
  747POPS   D2A11316  10.099  11.656   6.348  0.2781  0.0928 -0.0158
  747POPS   C3A11317  10.286  11.382   6.664 -0.1500  0.1435  0.1162
  747POPS   C4A11318  10.705  11.222   6.581 -0.1736  0.2290  0.2922
  747POPS   C1B11319  10.519  11.332   6.082 -0.3265  0.1486 -0.2963
  747POPS   C2B11320  10.683  11.676   6.258 -0.2062  0.0198  0.1672
  747POPS   C3B11321  10.890  12.075   5.975 -0.2004 -0.1531  0.4322
  747POPS   C4B11322  11.173  12.353   6.153  0.1566 -0.1008  0.0252
  748POPS   CNO11323  15.426  14.724   5.100 -0.2539 -0.1447  0.0707
  748POPS   PO411324  15.334  14.584   5.579 -0.0631 -0.0169 -0.2868
  748POPS   GL111325  15.429  14.642   5.912 -0.0284  0.1341  0.5920
  748POPS   GL211326  15.725  14.725   5.897  0.0147  0.0778 -0.1900
  748POPS   C1A11327  15.438  14.482   6.331  0.0460 -0.2955 -0.1648
  748POPS   D2A11328  15.278  14.619   6.739  0.1518 -0.0538 -0.0422
  748POPS   C3A11329  15.140  14.281   6.938 -0.0623  0.1195 -0.1925
  748POPS   C4A11330  15.288  13.920   7.048 -0.1112 -0.0145  0.0965
  748POPS   C1B11331  15.731  14.891   6.264 -0.1023 -0.0596 -0.0712
  748POPS   C2B11332  15.858  15.257   6.526  0.3795 -0.4336 -0.1794
  748POPS   C3B11333  15.700  15.499   6.745  0.3738 -0.0573 -0.0229
  748POPS   C4B11334  15.635  15.399   7.135 -0.1452 -0.0124  0.1742
  749POPS   CNO11335  13.044   8.753   5.573 -0.0227 -0.0008  0.1477
  749POPS   PO411336  12.951   9.188   5.351  0.1955  0.0677 -0.1135
  749POPS   GL111337  12.854   9.217   5.830 -0.0401  0.3904 -0.1043
  749POPS   GL211338  13.103   9.168   5.951 -0.1090  0.0626 -0.1494
  749POPS   C1A11339  12.669   9.638   5.985  0.0296  0.2103  0.1294
  749POPS   D2A11340  12.359   9.632   6.310 -0.0548  0.1892 -0.1325
  749POPS   C3A11341  12.542   9.577   6.766  0.2951 -0.1058  0.2947
  749POPS   C4A11342  12.462   9.797   7.077 -0.0340  0.0344 -0.1826
  749POPS   C1B11343  13.083   9.434   6.369 -0.0061 -0.4512 -0.0469
  749POPS   C2B11344  13.225   9.501   6.719  0.0195 -0.1994  0.0056
  749POPS   C3B11345  13.525   9.717   6.938  0.3250 -0.0609  0.2011
  749POPS   C4B11346  13.685   9.974   7.221  0.1787  0.1265  0.0408
  750POPS   CNO11347   7.055   7.194   5.345  0.1802  0.1844 -0.2322
  750POPS   PO411348   7.048   7.190   5.808 -0.1414  0.1241 -0.0720
  750POPS   GL111349   6.894   7.414   6.063  0.0600  0.4336  0.2404
  750POPS   GL211350   7.034   7.254   6.358  0.4619  0.1229  0.1854
  750POPS   C1A11351   6.704   7.722   6.301  0.1193 -0.0652  0.1437
  750POPS   D2A11352   6.351   7.856   6.651 -0.3311 -0.4082 -0.0863
  750POPS   C3A11353   6.285   8.127   6.932  0.1701  0.1272 -0.2415
  750POPS   C4A11354   6.114   8.546   6.992 -0.2908  0.1445  0.2253
  750POPS   C1B11355   7.336   7.217   6.631  0.0441 -0.0419 -0.0637
  750POPS   C2B11356   7.260   7.077   6.983 -0.1044  0.0979 -0.0205
  750POPS   C3B11357   7.331   6.751   7.169 -0.4181  0.1255  0.2339
  750POPS   C4B11358   7.400   6.420   7.564  0.2500 -0.2022 -0.4347
  751POPS   CNO11359  14.085  13.680   4.788  0.0828  0.2021  0.1692
  751POPS   PO411360  14.157  13.244   4.821  0.0879  0.1177 -0.1612
  751POPS   GL111361  13.974  13.438   5.204 -0.1685  0.0871  0.0986
  751POPS   GL211362  14.038  13.721   5.368  0.2545 -0.1655 -0.2186
  751POPS   C1A11363  13.932  13.198   5.622  0.2503  0.2103 -0.1612
  751POPS   D2A11364  13.816  12.710   5.467 -0.0156 -0.2493  0.1939
  751POPS   C3A11365  14.070  12.346   5.424 -0.3963  0.3917  0.3228
  751POPS   C4A11366  14.112  11.937   5.567  0.0497 -0.1881  0.0767
  751POPS   C1B11367  13.671  13.609   5.596 -0.1114  0.2148 -0.1679
  751POPS   C2B11368  13.249  13.610   5.645 -0.1787 -0.0968  0.0573
  751POPS   C3B11369  12.820  13.492   5.448 -0.2056 -0.0506  0.1730
  751POPS   C4B11370  12.474  13.456   5.063  0.0368 -0.3428 -0.0852
  752POPS   CNO11371  12.923   2.044   4.999  0.2170 -0.1841 -0.0818
  752POPS   PO411372  12.759   2.342   5.065 -0.3852 -0.0066  0.1536
  752POPS   GL111373  12.857   2.139   5.504  0.1399  0.0170  0.0012
  752POPS   GL211374  13.202   2.255   5.683 -0.0092  0.3412 -0.2825
  752POPS   C1A11375  12.642   1.991   5.803 -0.2288  0.0077  0.1944
  752POPS   D2A11376  12.321   1.622   5.770 -0.0215 -0.2857 -0.3147
  752POPS   C3A11377  11.776   1.746   5.793  0.0877  0.0352  0.3175
  752POPS   C4A11378  11.316   1.946   5.890  0.2187  0.1268 -0.3411
  752POPS   C1B11379  13.016   2.327   6.109 -0.2253  0.3132 -0.1002
  752POPS   C2B11380  12.738   2.107   6.350  0.0110 -0.2571  0.0218
  752POPS   C3B11381  12.341   2.106   6.498  0.2534  0.2473 -0.3424
  752POPS   C4B11382  11.994   2.003   6.712  0.3505  0.3678 -0.1191
  753POPS   CNO11383   7.938   0.946   5.228 -0.0577 -0.2438  0.1612
  753POPS   PO411384   8.131   0.605   5.473 -0.1056 -0.0579  0.0277
  753POPS   GL111385   7.885   0.292   5.683 -0.1112  0.1150  0.1323
  753POPS   GL211386   7.938   0.441   5.946 -0.0425  0.0389 -0.0522
  753POPS   C1A11387   7.723  -0.077   5.865  0.1135  0.0057 -0.1691
  753POPS   D2A11388   7.678  -0.014   6.300 -0.2319 -0.0613 -0.0512
  753POPS   C3A11389   7.431   0.180   6.561  0.1675  0.0077 -0.0238
  753POPS   C4A11390   7.244   0.696   6.598 -0.0798 -0.0005  0.3723
  753POPS   C1B11391   7.770   0.507   6.406  0.2342  0.2485 -0.0286
  753POPS   C2B11392   7.838   0.590   6.890 -0.2026  0.4373  0.0784
  753POPS   C3B11393   7.635   0.924   7.095  0.1560  0.0011  0.2510
  753POPS   C4B11394   7.492   1.334   7.033  0.1340 -0.0954 -0.0674
  754POPS   CNO11395   8.148  16.128   4.640  0.2252 -0.2254  0.0401
  754POPS   PO411396   8.391  16.087   4.931  0.1635 -0.2160  0.1642
  754POPS   GL111397   8.318  15.870   5.331  0.4823 -0.4182 -0.1010
  754POPS   GL211398   8.484  16.029   5.641 -0.3222  0.1276 -0.4705
  754POPS   C1A11399   8.087  15.634   5.588 -0.1226 -0.1306 -0.0286
  754POPS   D2A11400   7.902  15.378   5.740 -0.0911 -0.0314  0.0131
  754POPS   C3A11401   7.910  15.096   6.126  0.1214  0.0043 -0.1543
  754POPS   C4A11402   7.563  15.093   6.369  0.1128  0.0961 -0.0306
  754POPS   C1B11403   8.303  15.898   5.944  0.2108  0.1763  0.2504
  754POPS   C2B11404   8.205  15.576   6.196 -0.1360 -0.3607 -0.1926
  754POPS   C3B11405   8.008  15.395   6.532  0.2461 -0.0312  0.0348
  754POPS   C4B11406   7.952  15.036   6.690 -0.0492  0.0527  0.1879
  755POPS   CNO11407  18.780  14.530   5.209  0.0005  0.2391  0.0984
  755POPS   PO411408  18.445  14.485   4.993  0.0475 -0.0952  0.1502
  755POPS   GL111409  18.306  14.132   5.250  0.3183  0.3863 -0.0583
  755POPS   GL211410  18.145  14.107   5.590  0.1369 -0.3004 -0.0601
  755POPS   C1A11411  18.511  13.737   5.481  0.0773  0.1895 -0.0500
  755POPS   D2A11412  18.651  13.488   5.824  0.1526  0.1369 -0.3639
  755POPS   C3A11413  18.634  12.999   5.682  0.3004 -0.2900  0.0778
  755POPS   C4A11414  18.578  12.720   5.905  0.2038  0.0469  0.0615
  755POPS   C1B11415  18.508  13.940   5.979 -0.0823 -0.2445 -0.1343
  755POPS   C2B11416  18.818  13.919   6.114  0.0306  0.0214  0.1394
  755POPS   C3B11417  19.131  14.001   6.445  0.0845  0.2122  0.2395
  755POPS   C4B11418  19.560  13.859   6.550  0.5634 -0.0122  0.3810
  756POPS   CNO11419   3.652  16.091   5.417 -0.1301 -0.1559  0.0864
  756POPS   PO411420   3.242  15.879   5.277  0.1091 -0.1977  0.2363
  756POPS   GL111421   3.362  15.896   5.784  0.1357  0.2127  0.1292
  756POPS   GL211422   3.443  16.250   5.870  0.4572 -0.0380 -0.0917
  756POPS   C1A11423   3.097  15.811   6.128  0.0976 -0.0656  0.1001
  756POPS   D2A11424   3.162  15.940   6.513 -0.1238  0.3625  0.0034
  756POPS   C3A11425   3.093  15.798   6.895 -0.2015 -0.2954 -0.1741
  756POPS   C4A11426   3.010  15.820   7.268 -0.2089  0.3247 -0.3358
  756POPS   C1B11427   3.235  16.295   6.167 -0.0611  0.0596 -0.0583
  756POPS   C2B11428   3.418  16.376   6.628  0.1046  0.2096  0.0748
  756POPS   C3B11429   3.677  16.370   6.908 -0.2786  0.3021  0.0041
  756POPS   C4B11430   4.125  16.558   7.172  0.0929  0.0699 -0.1702
  757POPS   CNO11431   2.418   4.955   5.530 -0.2925  0.1523 -0.1316
  757POPS   PO411432   2.071   5.098   5.785  0.4196 -0.1737 -0.0570
  757POPS   GL111433   1.848   4.959   6.153  0.0717 -0.3959  0.0512
  757POPS   GL211434   1.931   4.661   6.478  0.1650 -0.0384 -0.3953
  757POPS   C1A11435   1.662   5.087   6.456 -0.2713  0.0990  0.0738
  757POPS   D2A11436   1.181   5.123   6.453  0.2039 -0.1575 -0.2270
  757POPS   C3A11437   1.073   5.176   6.897 -0.4155 -0.1359  0.0177
  757POPS   C4A11438   0.672   5.515   7.027 -0.0923 -0.2940  0.0357
  757POPS   C1B11439   2.023   4.861   6.785  0.1792 -0.2697  0.2747
  757POPS   C2B11440   1.790   5.224   6.947 -0.1102 -0.2831 -0.0666
  757POPS   C3B11441   1.422   5.450   7.080  0.0948  0.1961 -0.1593
  757POPS   C4B11442   1.140   5.485   7.332 -0.2148  0.0528 -0.2440
  758POPS   CNO11443   5.910   1.967   5.598 -0.0301 -0.0473 -0.0980
  758POPS   PO411444   6.290   1.732   5.455 -0.0744 -0.0002 -0.0011
  758POPS   GL111445   6.282   1.818   5.957  0.1180  0.2112  0.0390
  758POPS   GL211446   6.208   2.113   6.087  0.2857  0.1638 -0.0351
  758POPS   C1A11447   6.562   1.866   6.316 -0.1637  0.0616  0.1609
  758POPS   D2A11448   6.767   1.664   6.539  0.2528 -0.1180 -0.0822
  758POPS   C3A11449   7.132   1.573   6.459 -0.1193 -0.5857 -0.0630
  758POPS   C4A11450   7.467   1.427   6.531 -0.0565  0.4154 -0.0110
  758POPS   C1B11451   6.176   2.328   6.493 -0.1052 -0.0808  0.1201
  758POPS   C2B11452   6.161   2.372   6.948  0.1130  0.1439 -0.3050
  758POPS   C3B11453   6.095   2.543   7.361  0.0764  0.0371  0.3208
  758POPS   C4B11454   5.984   2.940   7.599  0.0478  0.1296  0.1025
  759POPS   CNO11455   4.173   7.882   5.067 -0.2446  0.2658  0.4247
  759POPS   PO411456   4.308   7.519   5.314  0.2074 -0.0225  0.0108
  759POPS   GL111457   4.428   7.593   5.721  0.0476  0.1458  0.0239
  759POPS   GL211458   4.588   7.867   5.848 -0.1231 -0.1004  0.2274
  759POPS   C1A11459   4.368   7.561   6.204  0.3048  0.2867 -0.2137
  759POPS   D2A11460   4.192   7.282   6.375  0.0147 -0.1683 -0.0001
  759POPS   C3A11461   3.836   7.143   6.321  0.2764  0.3108 -0.1574
  759POPS   C4A11462   3.653   6.728   6.254  0.1853  0.1851 -0.0360
  759POPS   C1B11463   4.723   7.952   6.253 -0.1570 -0.0759 -0.0513
  759POPS   C2B11464   4.715   7.931   6.698  0.2055  0.0286 -0.1045
  759POPS   C3B11465   4.487   7.723   6.979  0.0485  0.0837 -0.2394
  759POPS   C4B11466   4.370   7.765   7.372  0.0018 -0.0064 -0.2073
  760POPS   CNO11467  12.383  17.633   5.391 -0.3878 -0.0655  0.1822
  760POPS   PO411468  12.703  17.792   5.437  0.0001 -0.2344 -0.2581
  760POPS   GL111469  12.658  17.750   5.836  0.1013 -0.0022  0.0951
  760POPS   GL211470  12.816  18.018   5.982  0.2314  0.0437 -0.2262
  760POPS   C1A11471  12.717  17.495   6.272 -0.3494  0.2486  0.2238
  760POPS   D2A11472  12.531  17.290   6.599 -0.2894 -0.1608  0.0421
  760POPS   C3A11473  12.147  16.960   6.625  0.0442 -0.0024 -0.0547
  760POPS   C4A11474  12.107  16.538   6.692 -0.2181  0.1366 -0.1111
  760POPS   C1B11475  12.776  17.951   6.465 -0.0904  0.2656  0.0210
  760POPS   C2B11476  12.627  17.789   6.897  0.3236  0.3143  0.1286
  760POPS   C3B11477  12.622  17.577   7.344 -0.0042  0.1113 -0.0165
  760POPS   C4B11478  12.690  17.389   7.694 -0.0042 -0.1230 -0.1607
  761POPS   CNO11479   5.225  17.041   4.867 -0.1070 -0.1877  0.1351
  761POPS   PO411480   5.190  17.211   5.255 -0.1488  0.3253 -0.2181
  761POPS   GL111481   5.278  17.393   5.580  0.3213  0.0445  0.0371
  761POPS   GL211482   5.037  17.660   5.580  0.2205 -0.0708  0.1211
  761POPS   C1A11483   5.426  17.376   6.017  0.0348 -0.0634 -0.2452
  761POPS   D2A11484   5.341  17.155   6.360  0.2285 -0.0655  0.3817
  761POPS   C3A11485   5.218  17.191   6.737 -0.2724  0.0578 -0.3243
  761POPS   C4A11486   4.790  17.067   6.964  0.0237  0.0325 -0.0190
  761POPS   C1B11487   4.871  17.512   5.911  0.0924  0.3019 -0.1734
  761POPS   C2B11488   4.955  17.477   6.296 -0.3673 -0.1728  0.2754
  761POPS   C3B11489   4.920  17.553   6.703  0.0711 -0.1132 -0.0103
  761POPS   C4B11490   5.042  17.474   7.113 -0.0038 -0.1217  0.3444
  762POPS   CNO11491  16.865   9.099   5.266  0.2202  0.2841 -0.2958
  762POPS   PO411492  16.781   8.695   5.462  0.1201 -0.1601  0.2850
  762POPS   GL111493  16.766   8.932   5.778  0.0773  0.0187 -0.0647
  762POPS   GL211494  16.857   9.264   5.829  0.0371  0.4024  0.1625
  762POPS   C1A11495  16.824   8.981   6.233  0.2078  0.1349 -0.0745
  762POPS   D2A11496  16.851   9.380   6.534  0.0803 -0.1273  0.2381
  762POPS   C3A11497  16.709   9.373   6.899 -0.0083 -0.0052  0.0963
  762POPS   C4A11498  16.716   9.574   7.192  0.0173 -0.0829 -0.2549
  762POPS   C1B11499  16.414   9.392   5.878 -0.1432  0.1007 -0.0304
  762POPS   C2B11500  16.479   9.530   6.290  0.0019 -0.2448  0.1047
  762POPS   C3B11501  16.391   9.778   6.758  0.1822 -0.4300 -0.0921
  762POPS   C4B11502  16.243   9.932   7.172  0.0703 -0.1587 -0.2571
  763POPS   CNO11503   8.763  18.965   4.798 -0.0891  0.2554  0.2275
  763POPS   PO411504   8.668  19.084   5.245  0.2269  0.0475  0.1265
  763POPS   GL111505   8.528  18.785   5.639  0.0493  0.0551 -0.2443
  763POPS   GL211506   8.872  18.768   5.603  0.0349 -0.2360  0.1176
  763POPS   C1A11507   8.466  18.583   6.109 -0.2076  0.2044  0.0379
  763POPS   D2A11508   8.393  18.606   6.521  0.6096 -0.0663 -0.0234
  763POPS   C3A11509   8.189  18.844   6.866 -0.2464 -0.0996  0.0796
  763POPS   C4A11510   8.153  18.920   7.355  0.0926  0.1086  0.2382
  763POPS   C1B11511   8.904  18.487   5.905 -0.1732 -0.1850  0.0202
  763POPS   C2B11512   9.018  18.248   6.282 -0.1318 -0.2081  0.0943
  763POPS   C3B11513   9.399  18.070   6.581  0.0579  0.1822 -0.3441
  763POPS   C4B11514   9.294  17.891   6.945 -0.0401  0.0772 -0.1088
  764POPS   CNO11515   1.767   2.071   6.009  0.1876  0.0942  0.3209
  764POPS   PO411516   1.851   1.771   5.767  0.0147 -0.1733  0.0102
  764POPS   GL111517   1.690   1.518   6.031  0.1401 -0.0621 -0.2614
  764POPS   GL211518   1.368   1.660   6.119 -0.0825 -0.1535  0.1251
  764POPS   C1A11519   1.752   1.599   6.477  0.1008  0.1310  0.2224
  764POPS   D2A11520   1.999   1.528   6.806  0.0896 -0.1067  0.0920
  764POPS   C3A11521   1.768   1.640   7.088  0.0932  0.1923 -0.0894
  764POPS   C4A11522   1.441   1.922   7.154  0.0368  0.0455  0.1655
  764POPS   C1B11523   1.152   1.409   6.376 -0.1472  0.1832  0.2930
  764POPS   C2B11524   1.114   1.276   6.848 -0.2950 -0.2299 -0.2476
  764POPS   C3B11525   1.087   1.577   7.249  0.2628 -0.0827  0.0615
  764POPS   C4B11526   1.112   1.967   7.499  0.2408 -0.2390  0.2873
  765POPS   CNO11527   0.494   5.749   5.226 -0.1166  0.1172  0.3884
  765POPS   PO411528   0.670   5.871   5.690 -0.0284  0.1418 -0.2786
  765POPS   GL111529   0.526   6.031   6.154 -0.2353  0.2985  0.2022
  765POPS   GL211530   0.128   6.013   6.284 -0.3137 -0.0216  0.3789
  765POPS   C1A11531   0.529   6.337   6.486 -0.1278 -0.1414 -0.0411
  765POPS   D2A11532   0.414   6.536   6.893 -0.1060 -0.0523  0.3834
  765POPS   C3A11533   0.438   6.948   7.181 -0.0512  0.0670 -0.1816
  765POPS   C4A11534   0.314   7.106   7.614  0.0577  0.1097  0.1587
  765POPS   C1B11535  -0.029   5.752   6.545 -0.0354  0.1913 -0.2251
  765POPS   C2B11536   0.063   5.716   6.983 -0.0824 -0.0330  0.0443
  765POPS   C3B11537   0.332   5.797   7.375  0.1339  0.0884  0.2355
  765POPS   C4B11538   0.449   5.493   7.858 -0.1287 -0.0501 -0.1072
  766POPS   CNO11539   2.395  11.831   5.413  0.1397  0.1870  0.1572
  766POPS   PO411540   2.548  11.359   5.321  0.0491 -0.2476 -0.0828
  766POPS   GL111541   2.271  11.321   5.648 -0.2509 -0.1539  0.0029
  766POPS   GL211542   1.893  11.324   5.699 -0.2946  0.0820 -0.0655
  766POPS   C1A11543   2.260  11.498   6.007  0.1393 -0.4138  0.2462
  766POPS   D2A11544   2.573  11.637   6.336 -0.4606  0.0439 -0.0277
  766POPS   C3A11545   2.419  11.641   6.753  0.2384  0.1224  0.0451
  766POPS   C4A11546   2.680  11.615   7.079  0.0970  0.1720  0.2518
  766POPS   C1B11547   1.655  11.510   6.085 -0.1337  0.0057  0.0391
  766POPS   C2B11548   1.512  11.772   6.512  0.2556  0.3070  0.1106
  766POPS   C3B11549   1.325  11.783   6.905  0.1712 -0.4338 -0.3016
  766POPS   C4B11550   1.397  11.619   7.355 -0.2357  0.0015 -0.0587
  767POPS   CNO11551   1.492  16.884   5.497  0.0678  0.0206 -0.2424
  767POPS   PO411552   1.250  17.281   5.421  0.1179 -0.0787 -0.0460
  767POPS   GL111553   1.260  17.481   5.807 -0.2102  0.3920 -0.2431
  767POPS   GL211554   0.990  17.618   5.853 -0.0664  0.1506 -0.0409
  767POPS   C1A11555   1.266  17.311   6.209  0.1899 -0.0681 -0.0513
  767POPS   D2A11556   1.220  17.138   6.626  0.0731  0.2848  0.1485
  767POPS   C3A11557   1.533  17.130   6.992 -0.2777 -0.2671  0.1791
  767POPS   C4A11558   1.808  17.267   7.206  0.3306 -0.5632 -0.0230
  767POPS   C1B11559   0.851  17.712   6.283  0.1066 -0.0278 -0.2818
  767POPS   C2B11560   0.696  17.693   6.696  0.0741 -0.0044 -0.3261
  767POPS   C3B11561   0.341  17.685   7.037  0.3880 -0.1380  0.1256
  767POPS   C4B11562   0.306  17.438   7.438  0.1288  0.0146 -0.1614
  768POPS   CNO11563   5.324  10.364   5.015 -0.1844  0.2526 -0.0188
  768POPS   PO411564   5.487  10.427   5.461  0.0311 -0.0553 -0.3109
  768POPS   GL111565   5.484  10.538   5.823  0.1220 -0.1003 -0.0942
  768POPS   GL211566   5.256  10.361   5.902 -0.1825  0.1306 -0.2016
  768POPS   C1A11567   5.378  10.891   6.141  0.2522 -0.0143 -0.1685
  768POPS   D2A11568   5.356  11.147   6.495  0.1644  0.0457  0.0038
  768POPS   C3A11569   5.537  11.052   6.730  0.2932 -0.0947 -0.1392
  768POPS   C4A11570   5.481  10.788   7.077  0.3349  0.0683  0.2522
  768POPS   C1B11571   5.117  10.535   6.347 -0.0470  0.2425 -0.1299
  768POPS   C2B11572   5.203  10.336   6.846  0.3485 -0.0049  0.1064
  768POPS   C3B11573   5.438   9.944   6.793 -0.1871  0.0589 -0.1758
  768POPS   C4B11574   5.783   9.813   7.089  0.1318  0.1298 -0.0470
  769POPS   CNO11575  16.727   3.179   5.100 -0.1895 -0.2667 -0.2132
  769POPS   PO411576  16.867   2.801   5.256 -0.2022  0.0736 -0.2788
  769POPS   GL111577  16.968   2.627   5.653  0.4538  0.2028 -0.0766
  769POPS   GL211578  17.196   2.850   5.869 -0.0371  0.2126 -0.0160
  769POPS   C1A11579  16.834   2.427   6.036  0.1579 -0.1354  0.3676
  769POPS   D2A11580  16.758   2.620   6.395  0.1405 -0.0030 -0.0911
  769POPS   C3A11581  16.356   2.448   6.551 -0.3181 -0.2459  0.1180
  769POPS   C4A11582  16.405   2.140   6.860 -0.2889  0.0158 -0.2510
  769POPS   C1B11583  17.234   2.685   6.279 -0.2105 -0.0258 -0.1565
  769POPS   C2B11584  17.232   2.669   6.694  0.0300 -0.2511  0.3149
  769POPS   C3B11585  17.315   2.931   7.083  0.0653 -0.1124  0.1589
  769POPS   C4B11586  17.661   3.219   7.220 -0.0817 -0.3224 -0.0457
  770POPS   CNO11587   3.831  13.765   4.880  0.3339  0.1032  0.0992
  770POPS   PO411588   3.634  13.737   5.339  0.0385 -0.0050 -0.0014
  770POPS   GL111589   3.982  13.938   5.769  0.3295 -0.0286  0.0147
  770POPS   GL211590   4.314  14.002   5.732  0.1827 -0.2465 -0.0632
  770POPS   C1A11591   3.816  14.198   6.051 -0.1367  0.0246 -0.1615
  770POPS   D2A11592   3.537  14.612   6.035  0.1930  0.1009 -0.0470
  770POPS   C3A11593   3.290  14.885   6.386  0.1889 -0.1001 -0.2386
  770POPS   C4A11594   3.427  15.402   6.416 -0.1747  0.1892  0.1031
  770POPS   C1B11595   4.435  13.923   6.101  0.0712 -0.0054 -0.1869
  770POPS   C2B11596   4.601  14.178   6.411  0.2779 -0.0497 -0.3054
  770POPS   C3B11597   4.884  14.265   6.816 -0.0359 -0.0677  0.0982
  770POPS   C4B11598   4.853  14.513   7.031  0.0427 -0.0586  0.0008
  771YOPS   CNO11599  19.053   7.721   5.661 -0.1440 -0.3303  0.1022
  771YOPS   PO411600  19.242   7.493   6.061  0.0208 -0.4207  0.2111
  771YOPS   GL111601  19.591   7.634   6.186  0.1404 -0.0207 -0.0176
  771YOPS   GL211602  19.747   7.393   6.357  0.1816  0.0952  0.3052
  771YOPS   C1A11603  19.832   7.793   6.552 -0.0479  0.0895  0.1875
  771YOPS   D2A11604  20.230   7.652   6.807  0.1835  0.1501  0.0125
  771YOPS   C3A11605  20.657   7.438   6.710  0.0570  0.1230  0.0692
  771YOPS   C4A11606  20.913   7.455   7.113 -0.4817 -0.0357 -0.0747
  771YOPS   C1B11607  19.584   7.416   6.721 -0.1358 -0.1072 -0.3444
  771YOPS   C2B11608  19.726   7.498   7.134  0.0618 -0.0983 -0.0139
  771YOPS   D3B11609  19.911   7.520   7.494 -0.0575 -0.0614 -0.0134
  771YOPS   C4B11610  19.748   7.493   7.859 -0.2275  0.0289  0.0480
  772YOPS   CNO11611   9.613   0.076   5.308  0.0051 -0.1480 -0.1133
  772YOPS   PO411612   9.586  -0.280   5.138  0.1506 -0.1474 -0.2008
  772YOPS   GL111613   9.605  -0.375   5.514  0.1619 -0.0209 -0.0826
  772YOPS   GL211614   9.915  -0.292   5.571  0.2115 -0.3028 -0.0869
  772YOPS   C1A11615   9.370  -0.603   5.823 -0.0964  0.0250 -0.0962
  772YOPS   D2A11616   9.433  -1.075   5.920  0.0817 -0.1571 -0.2862
  772YOPS   C3A11617   9.542  -1.301   5.659 -0.0060 -0.1161  0.2735
  772YOPS   C4A11618   9.645  -1.762   5.822  0.0130  0.0834 -0.1756
  772YOPS   C1B11619  10.097  -0.328   6.031  0.2482  0.0022 -0.0672
  772YOPS   C2B11620  10.041  -0.527   6.412 -0.0472  0.1314 -0.3229
  772YOPS   D3B11621  10.092  -0.514   6.878 -0.0879 -0.0061 -0.1284
  772YOPS   C4B11622  10.136  -0.114   6.930  0.0462 -0.1746 -0.1470
  773YOPS   CNO11623  16.056   0.146   5.054 -0.1248  0.1504 -0.3958
  773YOPS   PO411624  16.440   0.351   5.086  0.0133 -0.1089  0.1679
  773YOPS   GL111625  16.177   0.537   5.427 -0.1617 -0.1080  0.0616
  773YOPS   GL211626  16.048   0.838   5.610 -0.0437  0.0883 -0.3016
  773YOPS   C1A11627  16.301   0.572   5.894  0.4786  0.6595  0.1867
  773YOPS   D2A11628  16.499   0.439   6.304 -0.1790 -0.0803  0.4547
  773YOPS   C3A11629  16.576   0.588   6.617  0.0505  0.1968 -0.1683
  773YOPS   C4A11630  16.810   0.482   6.862 -0.1570  0.0675 -0.4243
  773YOPS   C1B11631  15.720   1.131   5.786 -0.3114 -0.1686 -0.2381
  773YOPS   C2B11632  15.520   1.371   6.070 -0.1208 -0.3007 -0.0312
  773YOPS   D3B11633  15.406   1.386   6.478  0.1448 -0.2148  0.0182
  773YOPS   C4B11634  15.735   1.217   6.715  0.0155  0.3082 -0.2158
  774YOPS   CNO11635  16.214  10.015   4.674  0.0809  0.2210  0.4590
  774YOPS   PO411636  16.308  10.340   5.147  0.0235  0.3169 -0.0511
  774YOPS   GL111637  16.338  10.658   5.395 -0.0235  0.0050  0.0219
  774YOPS   GL211638  16.248  10.891   5.360  0.1926  0.1576  0.2582
  774YOPS   C1A11639  16.382  10.576   5.888  0.1740  0.0715 -0.1039
  774YOPS   D2A11640  16.102  10.483   6.281  0.1646  0.2267  0.1392
  774YOPS   C3A11641  16.198  10.537   6.620 -0.1013  0.2412  0.1281
  774YOPS   C4A11642  16.031  10.893   6.877 -0.3050 -0.1708  0.0897
  774YOPS   C1B11643  16.044  11.340   5.625  0.1100 -0.2110  0.1896
  774YOPS   C2B11644  15.698  11.313   5.817  0.0893 -0.2132  0.0762
  774YOPS   D3B11645  15.224  11.506   6.016 -0.0741  0.2645 -0.1579
  774YOPS   C4B11646  14.815  11.365   6.021  0.3066  0.0774 -0.1261
  775YOPS   CNO11647   4.428   4.548   6.241  0.1986  0.1176  0.1027
  775YOPS   PO411648   4.798   4.339   6.006 -0.3973  0.1267  0.0239
  775YOPS   GL111649   5.078   4.739   6.236  0.0430  0.1822 -0.1380
  775YOPS   GL211650   4.774   4.854   6.272 -0.0756 -0.1475 -0.0744
  775YOPS   C1A11651   5.181   5.073   6.381 -0.0720 -0.2620 -0.2392
  775YOPS   D2A11652   5.333   5.164   6.811  0.2700  0.3064  0.3067
  775YOPS   C3A11653   5.185   5.321   7.175 -0.1195 -0.1401 -0.1570
  775YOPS   C4A11654   4.871   5.118   7.335  0.3997 -0.1494 -0.1987
  775YOPS   C1B11655   4.498   4.958   6.703  0.0085 -0.0667  0.1075
  775YOPS   C2B11656   4.492   5.035   7.059  0.0521  0.0272 -0.2120
  775YOPS   D3B11657   4.428   5.517   7.219 -0.0906 -0.0661 -0.0750
  775YOPS   C4B11658   4.487   5.680   7.619 -0.0771 -0.1931  0.1532
  776YOPS   CNO11659  18.241   9.861   6.014 -0.3291 -0.2045  0.0254
  776YOPS   PO411660  18.143  10.108   5.623  0.0239 -0.0228 -0.1329
  776YOPS   GL111661  18.385  10.383   5.935  0.2161  0.1345  0.2115
  776YOPS   GL211662  18.665  10.232   5.850  0.1845 -0.2055 -0.2337
  776YOPS   C1A11663  18.579  10.716   6.178  0.1177  0.3914  0.3332
  776YOPS   D2A11664  18.827  11.125   6.052 -0.1287  0.4161  0.1718
  776YOPS   C3A11665  18.950  11.381   6.307  0.0422 -0.3471 -0.0676
  776YOPS   C4A11666  18.845  11.822   6.395 -0.0038  0.1310  0.1921
  776YOPS   C1B11667  18.953  10.471   5.932  0.0661  0.0452  0.1927
  776YOPS   C2B11668  19.111  10.755   6.128 -0.2694  0.0048 -0.1805
  776YOPS   D3B11669  19.572  10.782   6.257  0.3385 -0.3480  0.0197
  776YOPS   C4B11670  19.760  10.999   6.303  0.0039 -0.1060 -0.2230
  777YOPS   CNO11671  13.669   3.981   5.643  0.1318 -0.3333 -0.2677
  777YOPS   PO411672  13.823   4.296   5.342  0.1016 -0.1010 -0.2280
  777YOPS   GL111673  14.137   4.445   5.684 -0.1805 -0.1247 -0.0070
  777YOPS   GL211674  14.491   4.199   5.714  0.3048 -0.1642 -0.1203
  777YOPS   C1A11675  14.278   4.515   6.090  0.3877 -0.1904  0.0925
  777YOPS   D2A11676  14.110   4.316   6.448 -0.0899  0.1326  0.0853
  777YOPS   C3A11677  13.671   4.213   6.452 -0.2456  0.2643 -0.0510
  777YOPS   C4A11678  13.355   4.422   6.785 -0.0516  0.1878  0.1666
  777YOPS   C1B11679  14.216   4.044   5.981  0.4579 -0.2342  0.0070
  777YOPS   C2B11680  13.837   3.921   6.086 -0.0385  0.2835 -0.1572
  777YOPS   D3B11681  13.733   3.447   6.355 -0.0955 -0.2997 -0.0635
  777YOPS   C4B11682  13.626   3.348   6.805 -0.1233  0.1417  0.0776
  778YOPS   CNO11683  11.561   3.512   5.398  0.0753  0.1149 -0.0828
  778YOPS   PO411684  11.274   3.793   5.069 -0.0100  0.0252 -0.2012
  778YOPS   GL111685  11.144   3.790   5.477  0.0787  0.0343 -0.0847
  778YOPS   GL211686  10.854   3.881   5.674  0.1556 -0.0677 -0.1098
  778YOPS   C1A11687  11.224   3.444   5.730 -0.0784 -0.0602  0.1188
  778YOPS   D2A11688  11.048   3.277   6.092  0.0100 -0.2995  0.1020
  778YOPS   C3A11689  11.167   3.155   6.414  0.1417 -0.0942 -0.1013
  778YOPS   C4A11690  11.256   2.686   6.521  0.1247 -0.3666 -0.0151
  778YOPS   C1B11691  11.132   3.864   6.065  0.1061 -0.2861 -0.0479
  778YOPS   C2B11692  11.311   3.647   6.423 -0.0664 -0.1157 -0.0062
  778YOPS   D3B11693  11.613   3.595   6.808 -0.0345  0.1704  0.1676
  778YOPS   C4B11694  11.494   3.449   7.222  0.0782  0.0856  0.4495
  779YOPS   CNO11695  17.825  15.876   5.169  0.1230 -0.0881  0.1066
  779YOPS   PO411696  18.180  15.758   5.432  0.0176 -0.0532 -0.1120
  779YOPS   GL111697  18.282  15.372   5.635  0.1309  0.1727 -0.1082
  779YOPS   GL211698  18.385  15.170   5.545  0.0590  0.1162 -0.2964
  779YOPS   C1A11699  18.430  15.537   5.995  0.2830 -0.0320  0.0830
  779YOPS   D2A11700  18.624  15.694   6.225  0.2811  0.0331  0.3909
  779YOPS   C3A11701  18.760  15.702   6.528 -0.2134 -0.1034 -0.1276
  779YOPS   C4A11702  18.677  15.316   6.743 -0.1565  0.1828 -0.0297
  779YOPS   C1B11703  18.257  14.937   5.955 -0.1390  0.0220 -0.1479
  779YOPS   C2B11704  18.008  14.916   6.231 -0.0778  0.1838  0.0377
  779YOPS   D3B11705  17.666  14.853   6.335  0.0690 -0.2081 -0.3627
  779YOPS   C4B11706  17.382  15.265   6.396 -0.0201  0.2025  0.0677
  780YOPS   CNO11707   7.342  19.067   5.000  0.3410 -0.1416 -0.1943
  780YOPS   PO411708   7.250  18.620   4.958  0.0522  0.1455 -0.2252
  780YOPS   GL111709   7.431  18.273   5.246  0.3057  0.2795 -0.0303
  780YOPS   GL211710   7.176  18.087   5.406  0.0457 -0.2170 -0.2656
  780YOPS   C1A11711   7.678  17.969   5.222  0.0031 -0.1939  0.1242
  780YOPS   D2A11712   7.838  17.611   5.509 -0.0091  0.5148 -0.2205
  780YOPS   C3A11713   8.019  17.358   5.850  0.1379  0.5651  0.0528
  780YOPS   C4A11714   8.133  17.440   6.236 -0.0501  0.0475 -0.4476
  780YOPS   C1B11715   7.341  17.720   5.563  0.2219 -0.0128 -0.2351
  780YOPS   C2B11716   7.474  17.427   5.993 -0.0708  0.3596 -0.0080
  780YOPS   D3B11717   7.372  17.187   6.389 -0.2214  0.0410 -0.1369
  780YOPS   C4B11718   7.035  17.174   6.539 -0.1017 -0.0039  0.0558
  781YOPS   CNO11719   6.389   5.185   5.611  0.0378 -0.2154 -0.2501
  781YOPS   PO411720   6.008   4.995   5.480 -0.0688 -0.0064 -0.2935
  781YOPS   GL111721   6.187   4.981   5.980  0.0393  0.0491  0.2469
  781YOPS   GL211722   6.594   4.934   6.024 -0.2386  0.0291 -0.4236
  781YOPS   C1A11723   6.070   4.788   6.453 -0.1909 -0.2242  0.2102
  781YOPS   D2A11724   6.064   4.600   6.832  0.2523  0.1453 -0.1123
  781YOPS   C3A11725   6.148   4.324   7.093 -0.0587  0.1043 -0.0603
  781YOPS   C4A11726   5.858   4.355   7.356  0.0398  0.3031 -0.0677
  781YOPS   C1B11727   6.718   5.046   6.416  0.0001  0.0158 -0.0599
  781YOPS   C2B11728   6.668   5.246   6.821  0.1018  0.2004 -0.2014
  781YOPS   D3B11729   6.476   5.668   6.845  0.1458 -0.2008  0.3181
  781YOPS   C4B11730   6.195   5.800   6.584  0.0058  0.0135 -0.0676
  782YOPS   CNO11731   5.953   9.734   5.413 -0.3344  0.0131 -0.1796
  782YOPS   PO411732   5.603   9.625   5.250  0.1529  0.2256  0.1128
  782YOPS   GL111733   5.702   9.392   5.644  0.1442  0.2111 -0.2293
  782YOPS   GL211734   5.981   9.459   5.861  0.0790  0.0153  0.2074
  782YOPS   C1A11735   5.637   9.231   6.068 -0.3371 -0.3413  0.1005
  782YOPS   D2A11736   5.378   9.023   6.411 -0.1819  0.1517 -0.0119
  782YOPS   C3A11737   5.092   9.033   6.704  0.2104  0.1540 -0.0307
  782YOPS   C4A11738   5.086   8.904   7.048  0.0558 -0.1039 -0.0500
  782YOPS   C1B11739   5.988   9.623   6.301 -0.0733  0.5522 -0.0874
  782YOPS   C2B11740   5.975   9.904   6.581 -0.0800  0.2875 -0.0998
  782YOPS   D3B11741   6.137  10.127   6.855 -0.0517 -0.1808  0.0027
  782YOPS   C4B11742   6.176  10.101   7.247  0.0243 -0.1078 -0.3276
  783YOPS   CNO11743  17.252  11.277   5.174 -0.0821  0.2208  0.0828
  783YOPS   PO411744  16.806  11.082   5.071  0.1894 -0.1339 -0.0094
  783YOPS   GL111745  16.792  11.029   5.483 -0.0584  0.2412  0.0905
  783YOPS   GL211746  17.148  10.992   5.560  0.1765  0.2129  0.1833
  783YOPS   C1A11747  16.529  11.057   5.805 -0.2156 -0.6566 -0.0154
  783YOPS   D2A11748  16.324  11.017   6.124 -0.5171  0.1957  0.0870
  783YOPS   C3A11749  16.358  11.035   6.566  0.0746  0.3230 -0.1106
  783YOPS   C4A11750  16.750  11.175   6.583  0.2019  0.0041  0.2925
  783YOPS   C1B11751  17.098  10.978   6.036  0.1796 -0.1842  0.1315
  783YOPS   C2B11752  16.824  10.948   6.155 -0.1070 -0.0778 -0.0076
  783YOPS   D3B11753  16.616  10.622   6.389  0.0545 -0.0097  0.0472
  783YOPS   C4B11754  16.685  10.771   6.838  0.0900 -0.2550 -0.1164
  784YOPS   CNO11755   8.177   1.901   5.354 -0.1817 -0.0413 -0.1996
  784YOPS   PO411756   8.461   1.767   5.531 -0.3295 -0.0547  0.1308
  784YOPS   GL111757   8.768   1.707   5.806 -0.3564  0.0659  0.1284
  784YOPS   GL211758   8.913   1.403   5.823  0.1415  0.0934 -0.0956
  784YOPS   C1A11759   8.735   1.789   6.265 -0.1561  0.1161 -0.2167
  784YOPS   D2A11760   8.552   1.933   6.638  0.0366  0.1223 -0.0933
  784YOPS   C3A11761   8.333   1.782   7.055 -0.0580 -0.0436  0.1535
  784YOPS   C4A11762   8.574   1.963   7.359  0.2213 -0.2499  0.3376
  784YOPS   C1B11763   9.149   1.377   6.274 -0.1083 -0.0200 -0.2150
  784YOPS   C2B11764   9.030   1.251   6.727 -0.1167 -0.2297 -0.1271
  784YOPS   D3B11765   8.840   0.817   6.772 -0.1937  0.3636  0.0717
  784YOPS   C4B11766   8.740   0.578   6.397 -0.0064  0.0479  0.3482
  785YOPS   CNO11767   6.180   7.186   5.351 -0.0517 -0.0529  0.3965
  785YOPS   PO411768   6.279   6.930   5.754  0.1133  0.3263  0.3395
  785YOPS   GL111769   6.171   6.804   6.050  0.2299  0.1004  0.0564
  785YOPS   GL211770   5.787   6.727   6.106  0.0269  0.0863 -0.0263
  785YOPS   C1A11771   6.245   6.666   6.505 -0.1540 -0.0925 -0.1629
  785YOPS   D2A11772   6.440   6.668   6.867 -0.0978  0.0068  0.1069
  785YOPS   C3A11773   6.883   6.683   7.211  0.2139 -0.2705 -0.0946
  785YOPS   C4A11774   6.889   7.014   7.571  0.2007  0.2498 -0.0508
  785YOPS   C1B11775   5.810   6.900   6.515 -0.0470 -0.1755 -0.3264
  785YOPS   C2B11776   5.971   6.772   6.947 -0.0632  0.1353  0.0154
  785YOPS   D3B11777   6.157   7.035   7.178 -0.1996  0.2220  0.4667
  785YOPS   C4B11778   6.419   6.902   7.473 -0.1244  0.1895  0.4565
  786YOPS   CNO11779   4.542   9.555   5.581 -0.1170 -0.1650  0.0809
  786YOPS   PO411780   4.945   9.208   5.687  0.2226  0.0393  0.0045
  786YOPS   GL111781   5.093   9.411   6.009 -0.1559  0.0098  0.0185
  786YOPS   GL211782   5.324   9.611   6.105  0.0384  0.2001 -0.2663
  786YOPS   C1A11783   4.958   9.339   6.376 -0.1440  0.2420 -0.0071
  786YOPS   D2A11784   4.926   9.476   6.932 -0.0840  0.3035  0.0672
  786YOPS   C3A11785   4.875   9.297   7.329 -0.0201 -0.0847 -0.2450
  786YOPS   C4A11786   5.156   9.558   7.648  0.0786 -0.3966  0.0831
  786YOPS   C1B11787   5.493   9.519   6.516  0.0458  0.1075  0.1830
  786YOPS   C2B11788   5.719   9.415   6.815  0.2158  0.0492 -0.3375
  786YOPS   D3B11789   5.458   9.426   7.107  0.0122  0.2692 -0.1187
  786YOPS   C4B11790   5.310   9.104   7.444 -0.1787 -0.2579  0.1414
  787YOPS   CNO11791  17.080  13.111   5.378 -0.0436  0.0697 -0.3317
  787YOPS   PO411792  16.836  13.548   5.517  0.0910 -0.1251  0.1752
  787YOPS   GL111793  16.612  13.399   5.844 -0.3602  0.1025  0.0168
  787YOPS   GL211794  16.210  13.294   5.794  0.0394 -0.0472 -0.0197
  787YOPS   C1A11795  16.403  13.379   6.232  0.3642 -0.3814 -0.1568
  787YOPS   D2A11796  16.428  13.017   6.521  0.2847 -0.1757 -0.2581
  787YOPS   C3A11797  16.644  12.812   6.778  0.1233  0.1057  0.3501
  787YOPS   C4A11798  17.100  12.851   6.586  0.0530  0.1775  0.0802
  787YOPS   C1B11799  15.951  13.173   6.093 -0.3285 -0.0768  0.1824
  787YOPS   C2B11800  15.930  13.201   6.575  0.3097  0.1226 -0.2779
  787YOPS   D3B11801  15.711  13.193   6.926  0.0024 -0.0909  0.3235
  787YOPS   C4B11802  15.896  13.314   7.203 -0.1991 -0.2085  0.1412
  788YOPS   CNO11803   8.682  10.260   5.151  0.1307 -0.0280 -0.0305
  788YOPS   PO411804   8.818   9.958   5.338 -0.1200  0.3115  0.0756
  788YOPS   GL111805   8.579  10.154   5.638 -0.0475 -0.2285  0.2249
  788YOPS   GL211806   8.538   9.821   5.764 -0.1592 -0.1019 -0.0350
  788YOPS   C1A11807   8.533  10.372   6.062  0.0856  0.1812  0.0862
  788YOPS   D2A11808   8.309  10.692   6.313 -0.2972  0.2164  0.1839
  788YOPS   C3A11809   8.029  10.928   6.392  0.0694  0.1315  0.1003
  788YOPS   C4A11810   8.059  11.190   6.684 -0.2876  0.0537  0.0985
  788YOPS   C1B11811   8.557   9.531   6.132  0.2319  0.0429 -0.1326
  788YOPS   C2B11812   8.377   9.474   6.468  0.1307  0.1003  0.0228
  788YOPS   D3B11813   8.234   9.747   6.720 -0.1134  0.1190 -0.0722
  788YOPS   C4B11814   8.266   9.676   7.188  0.0589 -0.0612 -0.2021
  789YOPS   CNO11815   1.751  11.378   4.820  0.0903  0.0197 -0.0400
  789YOPS   PO411816   1.657  11.167   5.223 -0.4339  0.0780  0.0214
  789YOPS   GL111817   1.319  11.281   5.524 -0.1539  0.0535 -0.0991
  789YOPS   GL211818   1.402  11.559   5.680 -0.1078 -0.0488 -0.0597
  789YOPS   C1A11819   1.154  11.142   5.906 -0.0768  0.0961 -0.0625
  789YOPS   D2A11820   1.300  11.150   6.245 -0.4314 -0.1933 -0.1763
  789YOPS   C3A11821   1.033  11.212   6.667 -0.0587 -0.1934  0.0962
  789YOPS   C4A11822   1.323  11.050   7.039  0.1298  0.1304  0.1070
  789YOPS   C1B11823   1.169  11.653   6.094 -0.1323  0.5357 -0.0069
  789YOPS   C2B11824   1.070  12.071   6.293  0.0514 -0.1160  0.1236
  789YOPS   D3B11825   1.098  12.203   6.566  0.0235 -0.3605  0.2787
  789YOPS   C4B11826   1.366  12.317   6.948 -0.0854 -0.0110  0.0184
  790YOPS   CNO11827   6.142  16.081   5.022 -0.3498 -0.0822 -0.1826
  790YOPS   PO411828   6.498  16.405   4.974 -0.2756 -0.2355  0.2749
  790YOPS   GL111829   6.301  16.663   5.378  0.0179  0.0287  0.0421
  790YOPS   GL211830   6.069  16.425   5.429  0.4814  0.2331  0.2914
  790YOPS   C1A11831   6.309  16.592   5.811  0.4505  0.0182 -0.3735
  790YOPS   D2A11832   6.433  16.271   6.152  0.0229 -0.1699 -0.2087
  790YOPS   C3A11833   6.333  16.013   6.534 -0.1926  0.0174  0.0942
  790YOPS   C4A11834   6.793  15.802   6.761  0.2737 -0.2011  0.0169
  790YOPS   C1B11835   5.764  16.465   5.764 -0.1310  0.2630 -0.1404
  790YOPS   C2B11836   5.938  16.421   6.200  0.1106 -0.0310  0.2357
  790YOPS   D3B11837   5.896  16.163   6.581 -0.0641  0.2225  0.0485
  790YOPS   C4B11838   5.866  15.886   6.909  0.0872 -0.2922  0.0598
  791YOPS   CNO11839  10.773   9.587   5.424  0.1760 -0.1124  0.1464
  791YOPS   PO411840  11.069   9.316   5.344  0.1806 -0.0234  0.0757
  791YOPS   GL111841  10.996   9.098   5.657 -0.0631  0.3098 -0.4378
  791YOPS   GL211842  10.978   9.374   5.832  0.2652 -0.1954  0.2717
  791YOPS   C1A11843  11.101   8.723   6.018 -0.1647  0.2687 -0.2032
  791YOPS   D2A11844  11.124   8.815   6.510  0.0081  0.1713 -0.1695
  791YOPS   C3A11845  10.989   8.840   6.891  0.1592  0.0647 -0.3050
  791YOPS   C4A11846  10.618   9.085   7.030 -0.0531  0.0187 -0.0929
  791YOPS   C1B11847  10.581   9.538   5.928  0.1111  0.0701 -0.0141
  791YOPS   C2B11848  10.378   9.333   6.301  0.1147 -0.0798 -0.2799
  791YOPS   D3B11849  10.350   9.543   6.762 -0.1903  0.2729  0.0034
  791YOPS   C4B11850  10.651   9.711   7.062 -0.0464  0.1533  0.0022
  792YOPS   CNO11851  18.212  12.335   4.898 -0.1664 -0.2761  0.4359
  792YOPS   PO411852  18.256  12.466   5.303 -0.1359 -0.3725  0.0841
  792YOPS   GL111853  18.220  12.290   5.690  0.0656  0.0144  0.0503
  792YOPS   GL211854  17.939  12.293   5.701 -0.0488  0.1540  0.0444
  792YOPS   C1A11855  18.138  11.914   5.853 -0.1460 -0.1357 -0.1088
  792YOPS   D2A11856  18.064  11.676   6.223  0.0052  0.1138  0.0404
  792YOPS   C3A11857  17.836  11.525   6.465 -0.1586 -0.0315  0.1780
  792YOPS   C4A11858  17.619  11.491   6.669 -0.0203 -0.5627  0.2826
  792YOPS   C1B11859  17.468  12.331   5.919  0.3789 -0.2269 -0.2382
  792YOPS   C2B11860  16.954  12.482   5.875  0.0052  0.0581 -0.0069
  792YOPS   D3B11861  16.563  12.529   5.697 -0.0942 -0.0428 -0.1299
  792YOPS   C4B11862  16.489  12.908   6.051  0.2250 -0.0721 -0.0110
  793YOPS   CNO11863  13.926  14.800   5.201  0.2869  0.0072  0.0264
  793YOPS   PO411864  14.172  14.499   4.961 -0.1032 -0.1379  0.1340
  793YOPS   GL111865  13.951  14.215   5.214  0.0030  0.0901 -0.1462
  793YOPS   GL211866  14.223  14.417   5.457 -0.1908  0.0034  0.2013
  793YOPS   C1A11867  13.628  14.381   5.543  0.0390  0.4310  0.1176
  793YOPS   D2A11868  13.766  14.632   5.969  0.1727 -0.0503 -0.0958
  793YOPS   C3A11869  13.934  14.717   6.387 -0.0674  0.0131  0.0854
  793YOPS   C4A11870  13.896  14.542   6.946 -0.1584  0.3228 -0.0821
  793YOPS   C1B11871  14.011  14.217   5.816 -0.0859  0.2563  0.2911
  793YOPS   C2B11872  13.698  14.086   6.084 -0.2247 -0.0748  0.3492
  793YOPS   D3B11873  13.762  13.753   6.366  0.4234 -0.1024 -0.1966
  793YOPS   C4B11874  13.798  13.813   6.824 -0.1166 -0.0322 -0.0637
  794YOPS   CNO11875  14.007   2.979   4.650  0.1337 -0.0906 -0.2335
  794YOPS   PO411876  13.876   2.771   5.071  0.0831  0.1823 -0.1025
  794YOPS   GL111877  14.019   2.553   5.427 -0.4273  0.0785 -0.3597
  794YOPS   GL211878  13.953   2.706   5.706  0.1419 -0.1282  0.0148
  794YOPS   C1A11879  14.033   2.256   5.912 -0.5880 -0.3556 -0.1292
  794YOPS   D2A11880  13.960   1.942   6.210 -0.6192  0.1828 -0.2551
  794YOPS   C3A11881  13.628   1.683   6.429  0.3466 -0.0152  0.2604
  794YOPS   C4A11882  13.239   1.857   6.542  0.0211 -0.1029 -0.0711
  794YOPS   C1B11883  14.171   2.904   6.023 -0.1589 -0.3317 -0.0805
  794YOPS   C2B11884  14.051   2.981   6.519  0.0429  0.3328  0.0366
  794YOPS   D3B11885  14.058   2.997   6.935  0.1532 -0.1315 -0.1654
  794YOPS   C4B11886  13.662   2.963   7.099 -0.0139 -0.1449 -0.2607
  795YOPS   CNO11887   7.938   6.942   5.403 -0.2779 -0.1137  0.0231
  795YOPS   PO411888   7.823   6.453   5.585  0.0925 -0.3885 -0.0682
  795YOPS   GL111889   7.545   6.410   5.877 -0.0738  0.2282  0.1870
  795YOPS   GL211890   7.733   6.440   6.118  0.4193  0.0635  0.0172
  795YOPS   C1A11891   7.195   6.426   6.208  0.0014  0.1958 -0.0889
  795YOPS   D2A11892   7.034   6.368   6.729  0.3402 -0.0427  0.3654
  795YOPS   C3A11893   7.126   6.179   7.072 -0.0529 -0.2647 -0.0364
  795YOPS   C4A11894   6.880   5.780   7.224 -0.1443 -0.0409  0.4546
  795YOPS   C1B11895   8.104   6.573   6.213  0.3100  0.0634  0.3283
  795YOPS   C2B11896   8.322   6.777   6.576 -0.0193 -0.2356 -0.1665
  795YOPS   D3B11897   8.588   6.915   6.797  0.2310  0.3983 -0.2205
  795YOPS   C4B11898   8.638   7.094   7.263 -0.1179 -0.2073 -0.1667
  796YOPS   CNO11899   8.889  16.052   4.991 -0.2556  0.0403 -0.2378
  796YOPS   PO411900   9.180  15.620   5.047 -0.0439  0.0786 -0.2276
  796YOPS   GL111901   9.342  15.444   5.454 -0.2089  0.2754  0.3060
  796YOPS   GL211902   9.559  15.667   5.601 -0.1043 -0.1660  0.3384
  796YOPS   C1A11903   9.363  15.291   5.857  0.2385 -0.2240 -0.1631
  796YOPS   D2A11904   9.342  15.189   6.305 -0.3281 -0.2352  0.4133
  796YOPS   C3A11905   9.308  15.331   6.722  0.2789  0.2752  0.0874
  796YOPS   C4A11906   9.580  15.249   6.991  0.0045 -0.1121  0.0341
  796YOPS   C1B11907   9.276  15.821   5.970  0.3268 -0.1469 -0.0690
  796YOPS   C2B11908   9.230  15.795   6.419 -0.1169  0.6227 -0.1438
  796YOPS   D3B11909   8.919  15.643   6.682  0.0841 -0.6641 -0.0934
  796YOPS   C4B11910   8.800  15.784   7.048 -0.1297  0.0129 -0.0017
  797YOPS   CNO11911  18.890  11.799   4.773  0.2797  0.2612 -0.0001
  797YOPS   PO411912  18.674  11.538   5.082  0.2518 -0.2664  0.0241
  797YOPS   GL111913  18.467  11.472   5.382  0.0203 -0.3824 -0.0814
  797YOPS   GL211914  18.594  11.719   5.571 -0.0932 -0.2643 -0.0865
  797YOPS   C1A11915  18.250  11.431   5.780  0.0143  0.1779  0.2946
  797YOPS   D2A11916  17.980  11.146   5.980  0.0626  0.4081 -0.4009
  797YOPS   C3A11917  17.517  11.179   6.176 -0.2946 -0.1596  0.4813
  797YOPS   C4A11918  17.207  11.353   6.449 -0.2628 -0.0247 -0.0875
  797YOPS   C1B11919  18.646  11.616   6.002  0.0655 -0.0699 -0.0427
  797YOPS   C2B11920  18.490  11.277   6.333  0.3112  0.1175  0.1597
  797YOPS   D3B11921  18.680  11.007   6.628 -0.3697 -0.2255  0.2949
  797YOPS   C4B11922  18.467  10.806   7.047 -0.1894  0.2429 -0.3139
  798YOPS   CNO11923  12.006   3.296   5.267 -0.0240 -0.1625  0.2757
  798YOPS   PO411924  11.741   2.952   5.088 -0.0424  0.1355  0.1112
  798YOPS   GL111925  12.002   2.698   5.308  0.0399 -0.0666  0.0081
  798YOPS   GL211926  12.051   2.820   5.607 -0.1335 -0.3740 -0.1769
  798YOPS   C1A11927  12.207   2.382   5.673 -0.0805 -0.1954 -0.2008
  798YOPS   D2A11928  12.079   2.181   6.049 -0.0912 -0.3765 -0.1098
  798YOPS   C3A11929  12.083   1.754   6.156  0.1944 -0.2223  0.1599
  798YOPS   C4A11930  12.289   1.285   6.084 -0.4426  0.0414  0.1220
  798YOPS   C1B11931  11.849   2.629   5.985 -0.2313 -0.1273  0.0649
  798YOPS   C2B11932  11.701   2.469   6.405 -0.2620  0.1221  0.0988
  798YOPS   D3B11933  11.664   2.561   6.814 -0.1470 -0.1506 -0.2292
  798YOPS   C4B11934  11.713   2.901   7.229  0.1016  0.0990  0.3239
  799YOPS   CNO11935  18.213  18.959   4.806 -0.3348  0.1448  0.0728
  799YOPS   PO411936  17.942  18.865   5.182 -0.2745 -0.1315  0.2205
  799YOPS   GL111937  17.722  18.781   5.567 -0.2400  0.0590 -0.0286
  799YOPS   GL211938  18.018  18.706   5.768 -0.1081 -0.3441 -0.0016
  799YOPS   C1A11939  17.563  19.062   5.997  0.0211  0.2482  0.0213
  799YOPS   D2A11940  17.449  19.219   6.387  0.2958 -0.2444 -0.2739
  799YOPS   C3A11941  17.123  19.212   6.682  0.0654 -0.0941  0.0177
  799YOPS   C4A11942  16.690  19.282   6.558 -0.2631 -0.0296 -0.1748
  799YOPS   C1B11943  17.796  18.625   6.106  0.0736  0.2258  0.1680
  799YOPS   C2B11944  17.470  18.641   6.381 -0.1678  0.1959 -0.2161
  799YOPS   D3B11945  17.100  18.589   6.771 -0.2510  0.0267  0.1633
  799YOPS   C4B11946  17.049  18.891   7.056  0.0948 -0.3134  0.0416
  800YOPS   CNO11947   9.751   2.453   4.979 -0.3071  0.1343 -0.0982
  800YOPS   PO411948   9.751   2.481   5.383 -0.0329  0.1393 -0.0860
  800YOPS   GL111949   9.916   2.392   5.805 -0.1947  0.0568 -0.1061
  800YOPS   GL211950   9.641   2.618   5.869 -0.2356 -0.0860  0.1290
  800YOPS   C1A11951  10.148   2.453   6.200  0.0744 -0.0188 -0.0224
  800YOPS   D2A11952  10.213   2.606   6.485 -0.0280 -0.3353  0.0464
  800YOPS   C3A11953  10.364   2.562   6.877 -0.1957 -0.3149  0.1830
  800YOPS   C4A11954  10.839   2.511   7.060 -0.0832  0.0645 -0.3651
  800YOPS   C1B11955   9.676   2.441   6.271 -0.0617 -0.0784 -0.0728
  800YOPS   C2B11956   9.886   2.311   6.637 -0.2680 -0.0139 -0.0174
  800YOPS   D3B11957   9.715   1.940   6.823  0.0719  0.0916  0.1205
  800YOPS   C4B11958   9.469   1.969   7.148 -0.1587 -0.2625  0.2556
  801POPE   NH311959   0.961   4.451   5.281  0.1780 -0.1872 -0.1422
  801POPE   PO411960   0.822   4.478   5.746  0.1251 -0.2450  0.1065
  801POPE   GL111961   0.933   4.381   6.175 -0.0400 -0.0644 -0.2812
  801POPE   GL211962   1.167   4.105   6.370  0.0698 -0.3470  0.1504
  801POPE   C1A11963   0.894   4.593   6.582 -0.1441  0.1877  0.1889
  801POPE   D2A11964   0.930   4.744   6.975  0.2522 -0.1796 -0.0622
  801POPE   C3A11965   0.711   5.037   7.169 -0.2353  0.4108  0.1213
  801POPE   C4A11966   0.669   5.216   7.497  0.0938  0.1902  0.1279
  801POPE   C1B11967   1.185   4.234   6.757  0.0099 -0.0587 -0.1179
  801POPE   C2B11968   1.304   4.227   7.137 -0.4710 -0.0651 -0.1956
  801POPE   C3B11969   1.236   3.947   7.413 -0.1869  0.0791  0.1581
  801POPE   C4B11970   1.449   3.683   7.660  0.2578  0.2835  0.0162
  802POPE   NH311971   9.148  19.133   5.416  0.1289 -0.2544  0.4050
  802POPE   PO411972   9.108  19.565   5.395 -0.0028 -0.0750 -0.0373
  802POPE   GL111973   8.920  19.539   5.745  0.0297  0.3494 -0.2046
  802POPE   GL211974   8.695  19.257   5.750 -0.0943 -0.0572  0.1285
  802POPE   C1A11975   8.921  19.391   6.211  0.1162  0.0702  0.0171
  802POPE   D2A11976   8.956  19.483   6.697 -0.3540  0.0506 -0.0430
  802POPE   C3A11977   8.558  19.533   6.903 -0.0790 -0.3083  0.0563
  802POPE   C4A11978   8.205  19.328   7.090 -0.3474 -0.0613 -0.0362
  802POPE   C1B11979   8.623  19.045   6.092 -0.1743  0.1670  0.0386
  802POPE   C2B11980   8.604  19.038   6.442  0.1151  0.0332  0.0800
  802POPE   C3B11981   8.709  19.009   6.888  0.1039  0.1817  0.0529
  802POPE   C4B11982   8.843  19.244   7.277 -0.0203 -0.3338  0.1460
  803POPE   NH311983  17.076   8.305   5.682 -0.2089  0.2749 -0.0920
  803POPE   PO411984  17.388   8.146   5.975 -0.0072 -0.1963  0.0625
  803POPE   GL111985  17.650   8.317   6.271  0.0733  0.4606 -0.2264
  803POPE   GL211986  17.922   8.248   6.165 -0.2602  0.2369 -0.0201
  803POPE   C1A11987  17.592   8.403   6.762 -0.2228 -0.1787  0.1089
  803POPE   D2A11988  17.604   8.857   6.818  0.0764  0.1334 -0.3562
  803POPE   C3A11989  17.526   8.684   7.192  0.3445  0.0154  0.1898
  803POPE   C4A11990  17.321   8.660   7.563  0.2430  0.3257  0.0884
  803POPE   C1B11991  18.129   8.408   6.535 -0.1254  0.0934  0.0145
  803POPE   C2B11992  18.037   8.599   6.950  0.0496  0.1945 -0.1256
  803POPE   C3B11993  18.069   8.973   7.179 -0.1255  0.0569 -0.0398
  803POPE   C4B11994  18.286   9.299   7.351 -0.1506  0.0011  0.1324
  804POPE   NH311995  16.741   1.292   5.187 -0.3187  0.1443  0.0069
  804POPE   PO411996  16.635   1.761   5.175  0.1817 -0.0203  0.1953
  804POPE   GL111997  16.591   1.874   5.591 -0.5168  0.0223 -0.1857
  804POPE   GL211998  16.849   1.996   5.771  0.1419  0.1374  0.0326
  804POPE   C1A11999  16.491   1.698   5.911 -0.2698  0.2356 -0.1180
  804POPE   D2A12000  15.991   1.756   5.890 -0.1557 -0.0711  0.0838
  804POPE   C3A12001  15.882   1.880   6.249 -0.1205  0.0036 -0.3062
  804POPE   C4A12002  15.932   1.876   6.782  0.2098  0.0053  0.1640
  804POPE   C1B12003  16.961   1.901   6.117 -0.0434 -0.2834  0.0096
  804POPE   C2B12004  16.732   2.134   6.477 -0.0947  0.4397 -0.0105
  804POPE   C3B12005  16.808   2.545   6.865  0.2576 -0.0880  0.0056
  804POPE   C4B12006  16.986   2.476   7.288  0.1727  0.2090 -0.6804
  805POPE   NH312007   2.527   3.869   5.849  0.0744  0.0605 -0.1024
  805POPE   PO412008   2.413   3.360   5.651  0.1464 -0.0774 -0.1555
  805POPE   GL112009   2.805   3.195   5.890  0.1231  0.1528  0.0533
  805POPE   GL212010   2.838   2.913   6.048 -0.2189  0.2154 -0.0197
  805POPE   C1A12011   3.040   3.361   6.205  0.1054  0.1370  0.1080
  805POPE   D2A12012   3.176   3.619   6.477  0.2279 -0.0061 -0.0083
  805POPE   C3A12013   3.282   3.701   6.872 -0.1511  0.0246  0.1181
  805POPE   C4A12014   3.432   4.018   7.190 -0.0274  0.3110  0.2663
  805POPE   C1B12015   2.917   2.874   6.548 -0.1639  0.2739 -0.2471
  805POPE   C2B12016   3.020   2.711   6.787  0.1106  0.2298  0.1056
  805POPE   C3B12017   3.428   2.759   7.038  0.1476  0.4625 -0.0914
  805POPE   C4B12018   3.673   3.018   7.024  0.0859 -0.4821  0.1088
  806POPE   NH312019   5.699   4.175   5.591 -0.2072  0.0294 -0.1190
  806POPE   PO412020   5.465   4.386   5.958 -0.1063 -0.1615 -0.1062
  806POPE   GL112021   5.720   4.414   6.331 -0.2534  0.3055  0.0035
  806POPE   GL212022   5.618   4.677   6.535 -0.1704  0.4172  0.1152
  806POPE   C1A12023   5.696   4.225   6.801 -0.0342  0.2639 -0.1603
  806POPE   D2A12024   5.417   4.183   7.105  0.0311  0.1912 -0.1028
  806POPE   C3A12025   5.212   4.515   7.327  0.1442  0.1226 -0.0717
  806POPE   C4A12026   5.321   4.928   7.425  0.0836  0.0227  0.3210
  806POPE   C1B12027   5.598   4.768   6.991  0.1927 -0.3907 -0.3826
  806POPE   C2B12028   5.832   4.887   7.246 -0.1711 -0.0317 -0.0477
  806POPE   C3B12029   5.992   5.118   7.534 -0.0992  0.0789  0.1158
  806POPE   C4B12030   5.832   5.093   7.831 -0.1023 -0.6002 -0.2156
  807POPE   NH312031   8.642   4.714   5.961 -0.0867  0.3202  0.0101
  807POPE   PO412032   8.502   4.273   5.872  0.3286 -0.0151 -0.0453
  807POPE   GL112033   8.422   4.450   6.355 -0.2858  0.0541 -0.1537
  807POPE   GL212034   8.478   4.875   6.400 -0.0471 -0.4045 -0.1360
  807POPE   C1A12035   8.264   4.554   6.729 -0.0884 -0.2370  0.1128
  807POPE   D2A12036   8.047   4.520   7.054 -0.3573  0.0761  0.1879
  807POPE   C3A12037   8.223   4.387   7.480  0.0011  0.4333  0.3680
  807POPE   C4A12038   8.474   4.108   7.706 -0.3518 -0.2882 -0.0117
  807POPE   C1B12039   8.702   5.018   6.823 -0.1510  0.1194  0.0478
  807POPE   C2B12040   9.007   4.709   7.032  0.1812  0.1075  0.3660
  807POPE   C3B12041   9.149   4.742   7.447 -0.0444  0.3152  0.0514
  807POPE   C4B12042   8.939   4.936   7.824  0.3305  0.2981  0.1299
  808POPE   NH312043  16.399   8.264   5.552 -0.0396 -0.0625  0.0362
  808POPE   PO412044  16.694   8.026   5.752  0.1523  0.1583  0.2029
  808POPE   GL112045  16.512   8.029   6.109  0.0061 -0.0174  0.0914
  808POPE   GL212046  16.830   8.157   6.261  0.3715 -0.1978 -0.1489
  808POPE   C1A12047  16.498   7.885   6.535 -0.3102 -0.0182 -0.3107
  808POPE   D2A12048  16.535   7.629   6.893  0.0185 -0.1558  0.0647
  808POPE   C3A12049  16.164   7.641   7.110 -0.0164  0.1597  0.0881
  808POPE   C4A12050  15.751   7.392   7.046 -0.1097  0.2180  0.1951
  808POPE   C1B12051  16.697   8.451   6.611  0.3148 -0.0325 -0.2997
  808POPE   C2B12052  16.754   8.487   7.035  0.0473  0.1741 -0.2807
  808POPE   C3B12053  16.511   8.574   7.427 -0.0569  0.2279 -0.1221
  808POPE   C4B12054  16.236   8.632   7.927  0.2401  0.0003 -0.2018
  809POPE   NH312055   8.695   2.843   5.803  0.0019  0.0279 -0.0214
  809POPE   PO412056   8.923   3.171   5.678  0.1086 -0.0239  0.0147
  809POPE   GL112057   9.169   2.933   6.100 -0.1040 -0.0539 -0.1341
  809POPE   GL212058   8.856   2.815   6.274  0.0973 -0.0102 -0.2458
  809POPE   C1A12059   9.308   2.773   6.444  0.2743 -0.3114 -0.0375
  809POPE   D2A12060   9.483   2.480   6.709 -0.0049 -0.2241 -0.1082
  809POPE   C3A12061   9.299   2.154   6.545  0.2002  0.1043 -0.2020
  809POPE   C4A12062   9.086   1.788   6.628 -0.2150  0.0649  0.1975
  809POPE   C1B12063   8.933   2.888   6.722 -0.2591  0.2181  0.0286
  809POPE   C2B12064   8.779   3.212   6.892 -0.0860  0.3298 -0.1015
  809POPE   C3B12065   8.520   3.605   6.899  0.1164  0.3346 -0.2808
  809POPE   C4B12066   8.352   4.005   7.052  0.0386  0.4768 -0.0726
  810POPE   NH312067  10.213  11.684   5.201 -0.1877  0.2075 -0.1307
  810POPE   PO412068  10.620  11.491   5.288  0.4682  0.0434 -0.2552
  810POPE   GL112069  10.769  11.676   5.596  0.0853  0.2087  0.1505
  810POPE   GL212070  11.025  11.522   5.854 -0.3646 -0.1690 -0.2576
  810POPE   C1A12071  11.071  11.939   5.468  0.3971  0.2728 -0.0348
  810POPE   D2A12072  11.036  12.405   5.441 -0.2040  0.0132 -0.4864
  810POPE   C3A12073  11.332  12.624   5.716  0.1484  0.1286  0.3178
  810POPE   C4A12074  11.490  12.690   6.236 -0.3440 -0.4184 -0.0271
  810POPE   C1B12075  11.098  11.453   6.307 -0.0033 -0.0102 -0.0426
  810POPE   C2B12076  11.210  11.215   6.719  0.1766  0.1161 -0.2276
  810POPE   C3B12077  11.271  10.755   6.903  0.0454 -0.1373  0.1679
  810POPE   C4B12078  11.191  10.522   7.265  0.0856  0.0151 -0.0398
  811POPE   NH312079   1.774   6.839   5.777  0.2169 -0.2914  0.0895
  811POPE   PO412080   1.713   6.377   5.752 -0.0680 -0.0370  0.5980
  811POPE   GL112081   1.786   6.160   6.029  0.0666  0.1424  0.2056
  811POPE   GL212082   1.550   5.977   6.171  0.0059 -0.2327 -0.0851
  811POPE   C1A12083   2.043   5.854   6.339 -0.2535 -0.0905  0.2628
  811POPE   D2A12084   2.450   5.849   6.567  0.5695 -0.0876  0.3864
  811POPE   C3A12085   2.617   5.545   6.536 -0.2828 -0.1545 -0.2594
  811POPE   C4A12086   2.328   5.180   6.538 -0.1617  0.0194  0.1249
  811POPE   C1B12087   1.679   5.973   6.604 -0.0531  0.0533  0.1621
  811POPE   C2B12088   1.607   5.903   7.058  0.1725  0.1794 -0.1633
  811POPE   C3B12089   1.262   5.950   7.364 -0.1597 -0.3470 -0.0424
  811POPE   C4B12090   0.960   6.367   7.599  0.1474  0.0927 -0.0279
  812POPE   NH312091   3.868  18.319   5.146 -0.0288 -0.1165 -0.0583
  812POPE   PO412092   4.014  17.813   5.274 -0.1510 -0.0322 -0.0245
  812POPE   GL112093   4.100  17.808   5.716  0.2159 -0.5051 -0.2400
  812POPE   GL212094   4.455  17.818   5.676 -0.0586  0.0091 -0.1573
  812POPE   C1A12095   4.057  17.835   6.171  0.0571 -0.0703 -0.1025
  812POPE   D2A12096   3.929  17.760   6.622  0.4971 -0.1632  0.2163
  812POPE   C3A12097   3.956  17.951   7.091 -0.1440  0.3202 -0.2646
  812POPE   C4A12098   3.755  18.213   7.511 -0.0930 -0.0407  0.2373
  812POPE   C1B12099   4.396  17.474   5.987 -0.0833  0.1277 -0.2379
  812POPE   C2B12100   4.371  17.053   6.035 -0.1388 -0.1484 -0.4158
  812POPE   C3B12101   4.323  16.759   6.262 -0.2797 -0.0485 -0.0903
  812POPE   C4B12102   4.406  16.794   6.784 -0.1323  0.0836 -0.0140
  813POPE   NH312103   4.520  15.811   5.208  0.3441 -0.1587 -0.0446
  813POPE   PO412104   4.379  15.356   5.261  0.1314 -0.2540  0.0768
  813POPE   GL112105   4.466  15.364   5.619  0.4630 -0.0478 -0.2508
  813POPE   GL212106   4.774  15.542   5.594 -0.0912 -0.3752  0.1056
  813POPE   C1A12107   4.394  15.155   5.916 -0.2182 -0.2455 -0.3663
  813POPE   D2A12108   4.400  14.876   6.222  0.1660 -0.3183  0.1987
  813POPE   C3A12109   4.561  14.982   6.744  0.1517  0.1199 -0.0508
  813POPE   C4A12110   4.958  14.972   6.909  0.2666  0.1885 -0.1577
  813POPE   C1B12111   4.913  15.376   6.063 -0.1587  0.2062 -0.0337
  813POPE   C2B12112   4.992  15.331   6.541  0.1293 -0.0651 -0.0703
  813POPE   C3B12113   4.898  15.502   6.861 -0.2026 -0.0455 -0.1926
  813POPE   C4B12114   4.693  15.759   7.207  0.0018 -0.1348 -0.0384
  814POPE   NH312115  15.503  15.082   5.457 -0.3367 -0.2679  0.1170
  814POPE   PO412116  15.308  15.318   5.215 -0.0908  0.2671  0.2138
  814POPE   GL112117  15.080  15.385   5.630 -0.0059 -0.0426 -0.1867
  814POPE   GL212118  14.780  15.244   5.484  0.2630  0.0892  0.0784
  814POPE   C1A12119  14.939  15.424   5.974 -0.4244 -0.0706  0.0194
  814POPE   D2A12120  14.878  15.557   6.445  0.0197 -0.0731 -0.0201
  814POPE   C3A12121  15.000  15.371   6.842  0.0098  0.1726  0.0492
  814POPE   C4A12122  15.069  15.447   7.260  0.0720  0.0771 -0.0077
  814POPE   C1B12123  14.510  15.294   5.808 -0.0790  0.0204 -0.1441
  814POPE   C2B12124  14.470  15.339   6.238  0.1966  0.2365 -0.1604
  814POPE   C3B12125  14.424  15.525   6.724  0.2107  0.0133  0.0146
  814POPE   C4B12126  14.607  15.255   7.098 -0.0733  0.2955  0.0970
  815POPE   NH312127   9.062   5.662   5.465  0.0743 -0.2206 -0.3579
  815POPE   PO412128   9.405   5.383   5.492  0.1575 -0.4314  0.1361
  815POPE   GL112129   9.281   5.302   5.936 -0.0296  0.1558  0.2689
  815POPE   GL212130   9.296   4.925   6.066  0.1391  0.3415 -0.2627
  815POPE   C1A12131   9.379   5.426   6.216 -0.1495  0.1943 -0.3605
  815POPE   D2A12132   9.605   5.216   6.518  0.2026 -0.1424 -0.4780
  815POPE   C3A12133   9.333   4.915   6.606 -0.0654  0.0892  0.0471
  815POPE   C4A12134   8.962   4.624   6.475 -0.1478  0.3912 -0.0722
  815POPE   C1B12135   8.974   5.159   6.321  0.0220  0.1034 -0.1595
  815POPE   C2B12136   9.063   5.424   6.639 -0.1871  0.1607  0.0277
  815POPE   C3B12137   9.343   5.405   6.910  0.4672  0.0777 -0.0281
  815POPE   C4B12138   9.532   5.613   7.224 -0.1201  0.2011 -0.0684
  816POPE   NH312139   4.627  13.781   5.439 -0.0619  0.0692  0.0783
  816POPE   PO412140   4.764  13.456   5.470 -0.2023 -0.1826 -0.0170
  816POPE   GL112141   4.377  13.433   5.718 -0.0460  0.1622  0.1606
  816POPE   GL212142   4.596  13.448   5.973 -0.1803  0.0187  0.1906
  816POPE   C1A12143   4.042  13.655   6.144 -0.0789 -0.0814  0.1923
  816POPE   D2A12144   3.665  13.791   6.348  0.0288 -0.1787 -0.4025
  816POPE   C3A12145   3.597  13.785   6.736  0.2516 -0.1554 -0.0474
  816POPE   C4A12146   3.390  14.030   7.167 -0.1069  0.0912 -0.2353
  816POPE   C1B12147   4.524  13.303   6.404  0.1767  0.0697 -0.2941
  816POPE   C2B12148   4.343  13.388   6.839  0.0818  0.1534  0.0812
  816POPE   C3B12149   4.403  13.566   7.257 -0.1088 -0.0614  0.0013
  816POPE   C4B12150   4.862  13.968   7.224  0.0203 -0.2407  0.1528
  817POPE   NH312151   5.337  11.574   5.241  0.2842 -0.3125  0.0383
  817POPE   PO412152   5.312  12.067   5.415 -0.0067  0.2226 -0.3173
  817POPE   GL112153   5.277  12.262   5.716  0.1704 -0.0131 -0.2947
  817POPE   GL212154   5.073  12.311   5.903 -0.0394  0.1063 -0.1992
  817POPE   C1A12155   5.538  12.408   5.976  0.1694  0.0329  0.1118
  817POPE   D2A12156   5.758  12.899   6.003  0.1300 -0.1357 -0.0157
  817POPE   C3A12157   5.450  13.273   6.254  0.1324  0.0333  0.1206
  817POPE   C4A12158   5.203  13.391   6.428  0.1856 -0.2237 -0.4237
  817POPE   C1B12159   4.824  12.424   6.243 -0.0905 -0.0486 -0.4170
  817POPE   C2B12160   4.776  12.330   6.713 -0.1461 -0.0934  0.1427
  817POPE   C3B12161   4.761  12.002   6.991 -0.0692  0.1427  0.0569
  817POPE   C4B12162   4.412  11.896   7.334  0.0363 -0.1456 -0.0502
  818POPE   NH312163  14.531   9.969   5.606 -0.1552 -0.3662 -0.4970
  818POPE   PO412164  14.136  10.271   5.571  0.0389  0.0695 -0.0504
  818POPE   GL112165  14.416  10.465   5.845  0.0071 -0.0040 -0.0795
  818POPE   GL212166  14.673  10.292   6.029 -0.0813 -0.0497  0.0612
  818POPE   C1A12167  14.329  10.576   6.273 -0.2798  0.2153 -0.0588
  818POPE   D2A12168  14.039  10.397   6.473 -0.0880 -0.0518 -0.4466
  818POPE   C3A12169  13.798  10.413   6.879  0.1435  0.1153  0.1846
  818POPE   C4A12170  13.890  10.698   7.233 -0.2715 -0.2305 -0.0827
  818POPE   C1B12171  14.511  10.056   6.380 -0.0115  0.0178  0.2364
  818POPE   C2B12172  14.497   9.744   6.716  0.0646  0.0364  0.0030
  818POPE   C3B12173  14.515   9.842   7.131 -0.1094 -0.0508  0.0947
  818POPE   C4B12174  14.698   9.732   7.609 -0.1316 -0.4130  0.0463
  819POPE   NH312175   1.348   2.808   6.112  0.3240 -0.1038  0.5072
  819POPE   PO412176   1.274   2.486   5.792 -0.1790  0.0717  0.1296
  819POPE   GL112177   1.265   2.330   6.201 -0.0429  0.1265  0.0873
  819POPE   GL212178   1.128   2.433   6.395 -0.1512 -0.1447  0.1261
  819POPE   C1A12179   1.394   2.056   6.461 -0.0806  0.2853  0.2721
  819POPE   D2A12180   1.380   1.760   6.727 -0.1847  0.1895  0.2546
  819POPE   C3A12181   1.005   1.711   6.753  0.1041 -0.1011 -0.1074
  819POPE   C4A12182   0.710   1.385   6.683  0.2128 -0.0611 -0.0548
  819POPE   C1B12183   1.024   2.293   6.782 -0.0391  0.2093  0.1681
  819POPE   C2B12184   0.793   2.139   7.123 -0.1941  0.4019  0.0035
  819POPE   C3B12185   0.564   2.141   7.509 -0.2548 -0.1340  0.1544
  819POPE   C4B12186   0.252   2.384   7.638 -0.3997  0.3481  0.3371
  820POPE   NH312187  15.377   9.130   5.360  0.2241 -0.0703  0.0457
  820POPE   PO412188  15.040   8.762   5.275 -0.4356  0.4105 -0.0671
  820POPE   GL112189  15.174   8.853   5.791 -0.2065 -0.0912 -0.3072
  820POPE   GL212190  15.236   9.132   5.898  0.2447  0.0276 -0.3401
  820POPE   C1A12191  15.176   8.731   6.216  0.2003 -0.3385  0.0280
  820POPE   D2A12192  15.100   8.307   6.391  0.1452 -0.0277  0.1647
  820POPE   C3A12193  15.149   8.130   6.793 -0.0119  0.2440  0.1586
  820POPE   C4A12194  15.313   7.835   6.980 -0.0863  0.0532  0.1034
  820POPE   C1B12195  15.599   9.051   6.158 -0.2129  0.1630  0.0077
  820POPE   C2B12196  15.883   9.081   6.537 -0.1304 -0.1419 -0.1788
  820POPE   C3B12197  15.790   9.107   6.873 -0.0528  0.0735 -0.0493
  820POPE   C4B12198  16.038   9.414   7.281 -0.2610 -0.0096  0.0277
  821POPE   NH312199  16.706   4.733   5.771  0.0618 -0.1136  0.0017
  821POPE   PO412200  16.503   5.091   5.724  0.2023  0.1652  0.3133
  821POPE   GL112201  16.149   4.968   6.007 -0.0337 -0.1779  0.0208
  821POPE   GL212202  16.261   4.679   5.940  0.0682  0.0655  0.0008
  821POPE   C1A12203  15.860   4.958   6.426 -0.2710 -0.1236  0.0383
  821POPE   D2A12204  15.613   5.084   6.762 -0.0746 -0.0706  0.2623
  821POPE   C3A12205  15.763   5.109   7.134  0.1313  0.1463  0.1076
  821POPE   C4A12206  15.974   5.315   7.393 -0.0036  0.2005 -0.2135
  821POPE   C1B12207  16.243   4.477   6.428 -0.5654 -0.5057 -0.1308
  821POPE   C2B12208  16.162   4.275   6.791 -0.1314 -0.1261  0.0145
  821POPE   C3B12209  15.797   4.262   7.165  0.2206  0.2994 -0.0099
  821POPE   C4B12210  15.615   4.204   7.522 -0.1740 -0.1369  0.1760
  822POPE   NH312211   8.582  18.606   5.134  0.1191 -0.0008  0.2089
  822POPE   PO412212   8.168  18.778   5.344 -0.2923  0.2376  0.2650
  822POPE   GL112213   7.988  18.847   5.618  0.4397  0.1503 -0.1453
  822POPE   GL212214   8.185  19.127   5.806 -0.1081  0.0315  0.0717
  822POPE   C1A12215   7.905  18.504   5.963 -0.3577 -0.0226  0.1975
  822POPE   D2A12216   8.034  18.350   6.292 -0.0987  0.2265  0.3195
  822POPE   C3A12217   7.780  18.039   6.310 -0.1258  0.0227 -0.2153
  822POPE   C4A12218   7.805  17.743   6.134 -0.0423 -0.4122  0.2336
  822POPE   C1B12219   8.135  18.903   6.178 -0.2455 -0.2211  0.0746
  822POPE   C2B12220   7.880  18.784   6.475  0.2801  0.0700 -0.2933
  822POPE   C3B12221   7.769  18.535   6.748  0.1176 -0.2219 -0.1111
  822POPE   C4B12222   8.114  18.229   6.785 -0.3436 -0.0846 -0.2192
  823POPE   NH312223  18.363  16.296   5.273  0.2745  0.3335  0.0637
  823POPE   PO412224  18.123  16.610   5.374  0.0435 -0.1937  0.0211
  823POPE   GL112225  17.986  16.553   5.766 -0.0364 -0.1958  0.0029
  823POPE   GL212226  17.836  16.602   6.022 -0.1143  0.0975 -0.1006
  823POPE   C1A12227  18.260  16.461   6.098 -0.2578  0.0568 -0.0948
  823POPE   D2A12228  18.486  16.239   6.292 -0.2489  0.0635 -0.2563
  823POPE   C3A12229  18.457  16.058   6.724 -0.0770 -0.1760  0.1904
  823POPE   C4A12230  18.547  16.115   7.279  0.0972 -0.1995  0.0629
  823POPE   C1B12231  17.857  16.784   6.431 -0.0199 -0.1446 -0.0709
  823POPE   C2B12232  17.579  16.659   6.913 -0.1621 -0.0294 -0.2284
  823POPE   C3B12233  17.640  16.234   7.146 -0.0544 -0.2245  0.4024
  823POPE   C4B12234  17.724  15.918   7.435  0.2915 -0.3239  0.4750
  824POPE   NH312235  15.588   8.483   5.418  0.3218  0.0555  0.3941
  824POPE   PO412236  16.038   8.575   5.584  0.1220  0.0818 -0.1194
  824POPE   GL112237  16.136   8.775   5.991 -0.1921  0.2796  0.0416
  824POPE   GL212238  16.250   8.572   6.126  0.2635  0.1125 -0.0959
  824POPE   C1A12239  16.336   9.054   6.337 -0.0850 -0.1948 -0.2827
  824POPE   D2A12240  16.338   9.159   6.682  0.1165  0.3373  0.0092
  824POPE   C3A12241  16.734   8.899   6.768  0.1825  0.0050  0.1072
  824POPE   C4A12242  17.185   9.016   6.623  0.1997  0.0687  0.0180
  824POPE   C1B12243  16.183   8.644   6.605  0.0780 -0.1943  0.2440
  824POPE   C2B12244  16.119   8.629   7.079 -0.1735 -0.1417 -0.1461
  824POPE   C3B12245  16.026   8.797   7.506 -0.0575 -0.3272  0.1808
  824POPE   C4B12246  15.997   9.146   7.818  0.0108 -0.0856  0.1615
  825POPE   NH312247  12.552  18.927   5.324  0.3431 -0.2663 -0.1187
  825POPE   PO412248  12.272  18.550   5.432  0.1472 -0.0316 -0.0585
  825POPE   GL112249  12.263  18.764   5.789  0.0635 -0.5327  0.1247
  825POPE   GL212250  12.029  18.579   5.895  0.1187  0.1077  0.2589
  825POPE   C1A12251  12.487  18.950   6.084  0.2590 -0.1893  0.1274
  825POPE   D2A12252  12.555  19.168   6.198  0.0577 -0.0229 -0.0395
  825POPE   C3A12253  12.863  19.469   6.058 -0.4065  0.0113 -0.0003
  825POPE   C4A12254  12.898  19.790   6.214  0.3534 -0.0289 -0.1955
  825POPE   C1B12255  12.054  18.620   6.277  0.0261  0.1997  0.0379
  825POPE   C2B12256  11.871  18.722   6.686 -0.1029 -0.1683  0.0480
  825POPE   C3B12257  11.944  18.921   7.028  0.0083 -0.1178 -0.1067
  825POPE   C4B12258  12.101  19.434   7.173 -0.0086 -0.1225  0.2190
  826POPE   NH312259   0.261   9.864   5.226 -0.2655  0.0453 -0.1125
  826POPE   PO412260   0.578  10.084   5.211 -0.0114  0.0858  0.3693
  826POPE   GL112261   0.629  10.069   5.662  0.0175  0.0579 -0.0344
  826POPE   GL212262   0.857  10.286   5.713 -0.0512  0.0071 -0.0479
  826POPE   C1A12263   0.462  10.192   6.145 -0.0852  0.2999 -0.1535
  826POPE   D2A12264   0.740  10.349   6.468  0.1018  0.1649 -0.1432
  826POPE   C3A12265   0.655  10.227   6.842  0.3053  0.0101  0.1872
  826POPE   C4A12266   0.523  10.417   7.344  0.2023 -0.1528 -0.0775
  826POPE   C1B12267   0.909  10.012   6.172  0.3940 -0.2232  0.1833
  826POPE   C2B12268   1.125   9.879   6.383 -0.2509  0.2834 -0.0430
  826POPE   C3B12269   1.211  10.188   6.747 -0.0551 -0.0930 -0.1219
  826POPE   C4B12270   1.361  10.255   7.144  0.1337 -0.0424  0.0707
  827POPE   NH312271  11.734  16.518   4.859  0.1324 -0.1078 -0.0235
  827POPE   PO412272  12.086  16.789   4.900  0.3279  0.0428 -0.0634
  827POPE   GL112273  11.883  16.717   5.314  0.2056 -0.0713 -0.2627
  827POPE   GL212274  12.165  16.700   5.623 -0.1500  0.4603  0.1671
  827POPE   C1A12275  11.753  16.866   5.760  0.0652  0.1717 -0.1897
  827POPE   D2A12276  11.917  16.835   6.113  0.3158 -0.4270  0.2817
  827POPE   C3A12277  11.674  16.749   6.482 -0.0364  0.3125  0.2924
  827POPE   C4A12278  11.748  16.865   6.907  0.1269  0.1675 -0.2163
  827POPE   C1B12279  12.015  16.385   5.873  0.0655 -0.3075 -0.0512
  827POPE   C2B12280  11.980  16.192   6.161  0.0002 -0.0885 -0.1028
  827POPE   C3B12281  11.758  16.174   6.558  0.5065 -0.0547  0.0662
  827POPE   C4B12282  11.728  16.212   7.014 -0.1242 -0.1214  0.1499
  828POPE   NH312283  18.711   3.063   5.605 -0.0175 -0.2975  0.0943
  828POPE   PO412284  19.017   3.231   5.766  0.3734 -0.0639 -0.0757
  828POPE   GL112285  18.890   3.337   6.145  0.3678  0.3152 -0.1875
  828POPE   GL212286  19.021   3.042   6.316  0.1051 -0.0313  0.1079
  828POPE   C1A12287  19.079   3.393   6.599 -0.1128  0.2828 -0.2729
  828POPE   D2A12288  19.001   3.604   7.053 -0.1882  0.2559  0.1598
  828POPE   C3A12289  18.534   3.651   7.285  0.0398  0.0078  0.0110
  828POPE   C4A12290  18.338   3.573   7.634 -0.3641  0.0811 -0.0830
  828POPE   C1B12291  18.931   2.773   6.683 -0.0323  0.0618 -0.1054
  828POPE   C2B12292  18.906   2.267   6.716 -0.5433  0.0114 -0.3504
  828POPE   C3B12293  19.103   1.850   6.812  0.0734  0.0486  0.0801
  828POPE   C4B12294  19.008   1.438   6.874  0.1761 -0.1244 -0.0077
  829POPE   NH312295  13.659  14.324   4.659 -0.0747 -0.1044 -0.0293
  829POPE   PO412296  13.206  14.435   4.564  0.0814  0.0278  0.0304
  829POPE   GL112297  13.168  14.437   5.017 -0.0088 -0.0254  0.0376
  829POPE   GL212298  13.396  14.313   5.131  0.0788 -0.0508  0.4208
  829POPE   C1A12299  12.942  14.371   5.385  0.2191 -0.3988  0.1276
  829POPE   D2A12300  12.778  14.811   5.699 -0.0387 -0.1693 -0.3465
  829POPE   C3A12301  12.374  15.053   5.616  0.4561  0.0545 -0.1053
  829POPE   C4A12302  12.397  15.450   5.584  0.0375 -0.3491  0.1781
  829POPE   C1B12303  13.280  14.046   5.495  0.0906 -0.0507 -0.0657
  829POPE   C2B12304  13.184  14.037   5.963 -0.3652 -0.1294  0.0707
  829POPE   C3B12305  12.819  13.981   6.334  0.0129 -0.2643  0.2209
  829POPE   C4B12306  12.391  13.787   6.398  0.1149 -0.1769 -0.0440
  830POPE   NH312307  13.393   7.226   5.534  0.4542  0.4720 -0.1302
  830POPE   PO412308  13.474   6.674   5.554 -0.2022  0.0585 -0.0439
  830POPE   GL112309  13.515   6.438   5.947 -0.0344  0.2897 -0.0786
  830POPE   GL212310  13.724   6.501   6.223 -0.0082  0.2198  0.1879
  830POPE   C1A12311  13.269   6.047   6.078 -0.0620 -0.1339  0.0354
  830POPE   D2A12312  13.259   5.849   6.515 -0.0577 -0.0593  0.2007
  830POPE   C3A12313  13.060   5.444   6.755  0.1526  0.0473 -0.1457
  830POPE   C4A12314  12.869   5.083   6.731 -0.3676  0.0406  0.2439
  830POPE   C1B12315  13.443   6.312   6.482  0.0990  0.0073 -0.2871
  830POPE   C2B12316  13.186   6.377   6.889  0.0893 -0.1387  0.0872
  830POPE   C3B12317  13.010   6.550   7.241  0.1154 -0.1911  0.0137
  830POPE   C4B12318  13.149   6.868   7.472  0.4987 -0.0082  0.0427
  831YOPE   NH312319   7.535   1.722   5.658 -0.3033 -0.0606  0.3050
  831YOPE   PO412320   7.763   2.115   5.582 -0.0468 -0.0110  0.3280
  831YOPE   GL112321   7.775   2.178   6.041 -0.0110 -0.0815 -0.1854
  831YOPE   GL212322   7.462   1.992   6.066  0.6020  0.3128 -0.0025
  831YOPE   C1A12323   7.921   1.848   6.400 -0.0395 -0.6626  0.1205
  831YOPE   D2A12324   7.969   1.760   6.664 -0.1185 -0.1168 -0.2773
  831YOPE   C3A12325   7.768   1.807   7.077  0.2023 -0.3386  0.0094
  831YOPE   C4A12326   8.014   1.728   7.450  0.2518 -0.0484 -0.0563
  831YOPE   C1B12327   7.104   2.074   6.305  0.1045  0.0095  0.0227
  831YOPE   C2B12328   7.083   2.204   6.709 -0.0467  0.1482  0.0065
  831YOPE   D3B12329   7.171   2.480   7.107  0.2574  0.1254  0.4231
  831YOPE   C4B12330   7.467   2.721   7.291  0.0801 -0.1404 -0.1904
  832YOPE   NH312331  14.946  10.476   4.997  0.0438  0.0394  0.1332
  832YOPE   PO412332  14.882  10.247   5.403 -0.1386  0.2535  0.2040
  832YOPE   GL112333  15.124  10.256   5.817 -0.1748 -0.0698  0.0558
  832YOPE   GL212334  15.289   9.976   5.925  0.0444  0.2101  0.0500
  832YOPE   C1A12335  15.123  10.407   6.234 -0.0655  0.1641  0.1319
  832YOPE   D2A12336  15.263  10.243   6.605  0.0448  0.1443 -0.1194
  832YOPE   C3A12337  14.958  10.073   6.875  0.3686 -0.1539  0.0998
  832YOPE   C4A12338  14.800  10.302   7.318 -0.0227  0.1067  0.0898
  832YOPE   C1B12339  15.549   9.922   6.314  0.0867  0.1833  0.1114
  832YOPE   C2B12340  15.774  10.069   6.576 -0.1403  0.0023 -0.0982
  832YOPE   D3B12341  15.792  10.341   6.825  0.0335  0.1085 -0.1113
  832YOPE   C4B12342  16.144  10.465   7.174 -0.1717 -0.0349 -0.1928
  833YOPE   NH312343  15.349   9.960   5.437  0.1839 -0.0963 -0.4467
  833YOPE   PO412344  15.752   9.591   5.273  0.1853 -0.6219  0.3053
  833YOPE   GL112345  16.029   9.584   5.611 -0.0737 -0.1444 -0.4235
  833YOPE   GL212346  16.252   9.800   5.631  0.5040 -0.1042 -0.1501
  833YOPE   C1A12347  15.931   9.526   6.091 -0.0837 -0.1732 -0.1570
  833YOPE   D2A12348  16.046   9.591   6.513  0.3027 -0.3023  0.2490
  833YOPE   C3A12349  15.873   9.635   6.903 -0.2913  0.2146  0.1760
  833YOPE   C4A12350  15.705   9.951   7.173 -0.1382 -0.1863 -0.0289
  833YOPE   C1B12351  16.704   9.785   5.880  0.2014 -0.0262 -0.0482
  833YOPE   C2B12352  17.059   9.657   6.033  0.0704  0.0707 -0.0481
  833YOPE   D3B12353  17.316   9.244   6.281 -0.3093 -0.0629 -0.1083
  833YOPE   C4B12354  17.378   9.461   6.670  0.3968  0.2994  0.0708
  834YOPE   NH312355  18.939   1.840   5.611  0.2978 -0.1149 -0.1016
  834YOPE   PO412356  19.209   2.334   5.655 -0.1083 -0.0195  0.4398
  834YOPE   GL112357  19.331   2.136   6.057 -0.1908 -0.0636 -0.1337
  834YOPE   GL212358  19.642   2.213   6.231  0.0280  0.1359 -0.4347
  834YOPE   C1A12359  19.101   1.899   6.269 -0.0305 -0.2934  0.0342
  834YOPE   D2A12360  19.064   1.434   6.258  0.0425  0.1304  0.0652
  834YOPE   C3A12361  19.233   1.112   6.556 -0.0113 -0.0378 -0.0045
  834YOPE   C4A12362  19.224   0.682   6.613 -0.0022  0.0893  0.0565
  834YOPE   C1B12363  19.425   2.256   6.640  0.1542 -0.0384 -0.3058
  834YOPE   C2B12364  19.281   2.467   7.024  0.1490 -0.3762 -0.0473
  834YOPE   D3B12365  18.937   2.580   7.264 -0.2233  0.1856  0.2520
  834YOPE   C4B12366  18.909   2.813   7.674  0.1108 -0.0732  0.1764
  835YOPE   NH312367  18.864  12.777   5.091 -0.0916  0.0460  0.0453
  835YOPE   PO412368  19.206  12.998   5.380 -0.2785 -0.2049  0.4406
  835YOPE   GL112369  19.095  12.762   5.772  0.3722 -0.1661  0.1071
  835YOPE   GL212370  19.269  12.503   5.610  0.0226 -0.1575  0.1140
  835YOPE   C1A12371  19.108  12.658   6.256 -0.3521  0.1819  0.3808
  835YOPE   D2A12372  18.980  12.937   6.662  0.2923  0.1380 -0.1982
  835YOPE   C3A12373  18.771  13.346   6.751 -0.1605 -0.1520  0.1985
  835YOPE   C4A12374  18.615  13.523   6.425 -0.2103 -0.0018  0.0815
  835YOPE   C1B12375  19.403  12.268   6.016  0.2853  0.1595  0.1638
  835YOPE   C2B12376  19.207  12.151   6.471 -0.1381 -0.1666 -0.0761
  835YOPE   D3B12377  19.023  12.021   6.887 -0.4672 -0.3881 -0.2072
  835YOPE   C4B12378  18.785  11.675   6.934 -0.3287  0.2471 -0.0188
  836YOPE   NH312379   7.424  14.611   5.047  0.2500  0.1700 -0.0766
  836YOPE   PO412380   7.155  14.260   4.971  0.1353 -0.2191  0.1771
  836YOPE   GL112381   7.226  13.996   5.341 -0.1951  0.0796 -0.2124
  836YOPE   GL212382   7.623  13.881   5.374 -0.3838  0.1363 -0.1754
  836YOPE   C1A12383   7.025  13.958   5.717 -0.2694  0.0871 -0.3168
  836YOPE   D2A12384   6.688  13.909   5.979  0.0927 -0.0187 -0.3819
  836YOPE   C3A12385   6.328  13.917   5.762 -0.0108  0.0679  0.1754
  836YOPE   C4A12386   5.970  14.055   5.703 -0.0307 -0.0617 -0.2167
  836YOPE   C1B12387   7.573  13.946   5.863 -0.4154 -0.1251  0.0736
  836YOPE   C2B12388   7.555  14.085   6.239  0.0796  0.0101 -0.2072
  836YOPE   D3B12389   7.488  14.005   6.642 -0.2423  0.1955  0.0345
  836YOPE   C4B12390   7.460  14.219   6.950 -0.2252 -0.1818  0.2459
  837YOPE   NH312391   3.325   9.404   5.275  0.0704  0.0949  0.5583
  837YOPE   PO412392   2.947   9.269   5.306 -0.0455 -0.0593 -0.1343
  837YOPE   GL112393   2.942   9.320   5.780  0.3137 -0.1409  0.0383
  837YOPE   GL212394   2.901   9.588   6.023 -0.0293 -0.2248 -0.1729
  837YOPE   C1A12395   3.048   8.923   5.983  0.4573  0.0508  0.2303
  837YOPE   D2A12396   3.061   8.614   6.366  0.0303  0.2387 -0.1848
  837YOPE   C3A12397   3.132   8.753   6.816 -0.0286 -0.3988  0.3551
  837YOPE   C4A12398   3.108   8.869   7.257 -0.0712  0.0111  0.1404
  837YOPE   C1B12399   2.862   9.595   6.364  0.2145 -0.3559 -0.2678
  837YOPE   C2B12400   2.564   9.510   6.595  0.1439  0.0938 -0.3242
  837YOPE   D3B12401   2.220   9.680   6.815  0.1176  0.0307  0.2411
  837YOPE   C4B12402   1.924   9.665   7.185  0.3103  0.1421  0.0574
  838YOPE   NH312403  15.213  16.168   4.974  0.1189  0.0429 -0.2753
  838YOPE   PO412404  15.525  15.931   5.228  0.2585  0.3011  0.1373
  838YOPE   GL112405  15.351  15.740   5.471 -0.3156  0.1461  0.1421
  838YOPE   GL212406  15.682  15.771   5.642 -0.0596  0.1554  0.3544
  838YOPE   C1A12407  15.283  15.834   5.908  0.0345  0.1121 -0.1170
  838YOPE   D2A12408  15.464  16.111   6.138  0.3536 -0.0274 -0.1771
  838YOPE   C3A12409  15.129  16.209   6.434  0.1385 -0.1139 -0.4059
  838YOPE   C4A12410  15.019  16.312   6.822  0.1339 -0.1320 -0.3109
  838YOPE   C1B12411  15.804  15.798   5.987 -0.0280  0.2684 -0.3182
  838YOPE   C2B12412  16.075  15.680   6.338 -0.0740  0.0248  0.1135
  838YOPE   D3B12413  16.331  15.416   6.436  0.0125 -0.1603 -0.0141
  838YOPE   C4B12414  16.656  15.136   6.155  0.0975 -0.0754  0.0777
  839YOPE   NH312415   5.808  12.300   5.273  0.0462  0.0204 -0.0574
  839YOPE   PO412416   5.784  11.874   5.354 -0.0708  0.1038 -0.0218
  839YOPE   GL112417   5.782  12.039   5.799  0.1722  0.1884  0.2485
  839YOPE   GL212418   5.876  11.761   6.085  0.3708 -0.2008  0.1551
  839YOPE   C1A12419   6.044  12.256   5.976 -0.2016  0.0158 -0.2906
  839YOPE   D2A12420   6.129  12.559   6.209  0.1036 -0.0392  0.0791
  839YOPE   C3A12421   6.046  12.308   6.620 -0.0214 -0.1594 -0.1434
  839YOPE   C4A12422   5.857  11.997   6.897 -0.0427 -0.1008  0.1057
  839YOPE   C1B12423   6.005  11.805   6.413 -0.0628 -0.2791  0.2112
  839YOPE   C2B12424   6.318  11.766   6.727 -0.0211  0.1047 -0.0680
  839YOPE   D3B12425   6.449  11.938   7.064  0.4950  0.1234  0.1611
  839YOPE   C4B12426   6.320  12.281   7.137 -0.1266 -0.0240  0.1865
  840YOPE   NH312427   8.066  14.044   4.773 -0.1546 -0.1296 -0.0440
  840YOPE   PO412428   8.336  13.684   4.758 -0.0105  0.0658  0.2454
  840YOPE   GL112429   8.534  13.675   5.211 -0.0971  0.2412 -0.0433
  840YOPE   GL212430   8.767  13.410   5.350  0.2516  0.2206  0.1963
  840YOPE   C1A12431   8.723  13.807   5.580 -0.0525 -0.0238 -0.0561
  840YOPE   D2A12432   8.974  13.970   5.918 -0.1719 -0.0687 -0.2075
  840YOPE   C3A12433   9.008  14.073   6.302 -0.2007 -0.2157 -0.0748
  840YOPE   C4A12434   9.312  14.002   6.555 -0.0441 -0.0391  0.5596
  840YOPE   C1B12435   8.460  13.360   5.747  0.0450  0.4089  0.1952
  840YOPE   C2B12436   8.280  13.347   6.167 -0.0424 -0.2779 -0.2550
  840YOPE   D3B12437   8.581  13.381   6.485 -0.0594  0.1950  0.1943
  840YOPE   C4B12438   8.850  13.463   6.954 -0.2067  0.0428  0.2434
  841YOPE   NH312439  11.242  13.799   4.990  0.2103 -0.0498 -0.2681
  841YOPE   PO412440  11.223  14.227   4.898 -0.1849 -0.0668  0.1337
  841YOPE   GL112441  11.293  14.300   5.338  0.0610  0.1430 -0.0266
  841YOPE   GL212442  11.669  14.553   5.517  0.1780  0.4352  0.1888
  841YOPE   C1A12443  11.584  14.135   5.761 -0.0005  0.0429 -0.2985
  841YOPE   D2A12444  11.796  14.354   6.099  0.1661  0.0954 -0.1125
  841YOPE   C3A12445  12.176  14.472   6.216 -0.1003  0.1079  0.2941
  841YOPE   C4A12446  12.333  14.717   6.452 -0.0023 -0.0504 -0.0122
  841YOPE   C1B12447  12.062  14.161   5.639 -0.1085 -0.0006  0.0988
  841YOPE   C2B12448  12.125  14.008   5.952 -0.1854 -0.2072  0.3372
  841YOPE   D3B12449  12.628  14.276   5.996  0.4471  0.0565 -0.2164
  841YOPE   C4B12450  12.706  14.642   6.189  0.0236 -0.0758  0.0542
  842YOPE   NH312451  18.891  16.288   5.482 -0.0236 -0.2306 -0.2748
  842YOPE   PO412452  19.212  16.034   5.548  0.1410 -0.1808  0.0187
  842YOPE   GL112453  19.182  16.332   5.895 -0.2781  0.0180 -0.2655
  842YOPE   GL212454  18.907  16.166   5.964  0.2314 -0.0809  0.0779
  842YOPE   C1A12455  19.338  16.373   6.281  0.0492  0.0539  0.1310
  842YOPE   D2A12456  19.549  16.188   6.569 -0.0747 -0.1037  0.4294
  842YOPE   C3A12457  19.508  15.970   6.938 -0.2508  0.0114 -0.3616
  842YOPE   C4A12458  19.725  15.849   7.310  0.3599  0.0374  0.3429
  842YOPE   C1B12459  18.902  16.154   6.504  0.2173 -0.2891  0.1226
  842YOPE   C2B12460  18.883  16.049   6.937 -0.1242 -0.2922  0.2375
  842YOPE   D3B12461  18.484  15.690   7.006  0.3071  0.5870  0.0249
  842YOPE   C4B12462  17.938  15.622   7.113 -0.0184  0.0259 -0.0897
  843YOPE   NH312463   9.322   8.868   5.365 -0.3337  0.4346  0.1307
  843YOPE   PO412464   9.020   8.575   5.466 -0.2064  0.1052  0.1789
  843YOPE   GL112465   9.002   8.319   5.786 -0.4011 -0.0778  0.0728
  843YOPE   GL212466   9.089   8.654   5.964 -0.0026 -0.3096 -0.0999
  843YOPE   C1A12467   8.978   8.139   6.061  0.0089 -0.2399  0.2290
  843YOPE   D2A12468   8.902   8.252   6.395  0.3564 -0.1206  0.0307
  843YOPE   C3A12469   9.245   8.203   6.692 -0.2342  0.3025  0.1870
  843YOPE   C4A12470   9.040   8.029   7.109 -0.0582  0.1202 -0.3222
  843YOPE   C1B12471   9.373   8.417   6.199 -0.0485 -0.2757  0.3435
  843YOPE   C2B12472   9.460   8.063   6.240 -0.3024 -0.2942 -0.2885
  843YOPE   D3B12473   9.160   7.708   6.275  0.0917 -0.0181  0.0171
  843YOPE   C4B12474   8.951   7.402   6.014 -0.3803  0.2909 -0.0367
  844YOPE   NH312475  14.416  17.116   5.012  0.3129  0.3882 -0.0013
  844YOPE   PO412476  14.549  17.485   5.123  0.0589 -0.0618  0.0009
  844YOPE   GL112477  14.380  17.485   5.571 -0.0141  0.0158  0.0631
  844YOPE   GL212478  14.541  17.707   5.694  0.0435  0.0170 -0.0315
  844YOPE   C1A12479  14.315  17.290   5.960  0.1533 -0.0828 -0.1418
  844YOPE   D2A12480  14.501  17.434   6.313  0.0901 -0.1792 -0.0228
  844YOPE   C3A12481  14.179  17.360   6.591 -0.2410  0.0145 -0.0442
  844YOPE   C4A12482  13.870  17.033   6.708  0.0857  0.0809 -0.1396
  844YOPE   C1B12483  14.834  17.336   5.884  0.2505 -0.0146  0.1744
  844YOPE   C2B12484  14.750  17.024   6.119 -0.0614  0.2128  0.2252
  844YOPE   D3B12485  14.776  16.722   6.286  0.0749 -0.0865  0.1076
  844YOPE   C4B12486  14.816  16.755   6.814  0.1105 -0.0834 -0.0558
  845YOPE   NH312487  15.614  13.398   5.216  0.2354  0.3091 -0.0420
  845YOPE   PO412488  15.647  13.828   5.252 -0.0634  0.0039 -0.1037
  845YOPE   GL112489  15.399  13.976   5.524  0.2056  0.0790 -0.3445
  845YOPE   GL212490  15.239  13.757   5.518  0.2403 -0.1192 -0.1001
  845YOPE   C1A12491  15.398  14.115   5.945  0.2954 -0.0048  0.0816
  845YOPE   D2A12492  15.432  13.907   6.380 -0.2387 -0.1741 -0.0672
  845YOPE   C3A12493  15.611  14.098   6.598  0.0543  0.1787 -0.1505
  845YOPE   C4A12494  15.679  14.282   7.000 -0.1620 -0.1959  0.4496
  845YOPE   C1B12495  15.234  13.637   5.944 -0.0454  0.1316 -0.0516
  845YOPE   C2B12496  15.055  13.553   6.399  0.0267  0.0690 -0.1609
  845YOPE   D3B12497  14.753  13.512   6.733 -0.0808 -0.0826 -0.0203
  845YOPE   C4B12498  14.437  13.571   7.057  0.1898 -0.1636  0.1139
  846YOPE   NH312499   9.679   3.422   5.609 -0.0994 -0.1232 -0.1617
  846YOPE   PO412500   9.283   3.509   5.705  0.0920 -0.4563 -0.0055
  846YOPE   GL112501   9.532   3.761   5.947  0.0809 -0.1756  0.1875
  846YOPE   GL212502   9.660   3.513   6.139  0.0823  0.1571  0.0984
  846YOPE   C1A12503   9.384   3.917   6.264  0.0209 -0.1280 -0.0706
  846YOPE   D2A12504   9.417   3.879   6.677  0.2467  0.2471  0.3916
  846YOPE   C3A12505   9.832   3.504   6.670  0.0065 -0.1835 -0.1053
  846YOPE   C4A12506  10.309   3.598   6.651  0.0010 -0.0401 -0.2874
  846YOPE   C1B12507   9.706   3.092   6.293  0.0688 -0.1348 -0.0298
  846YOPE   C2B12508   9.794   2.878   6.592  0.3676 -0.1568  0.1660
  846YOPE   D3B12509   9.915   2.714   6.916  0.0564  0.0977  0.3247
  846YOPE   C4B12510  10.084   2.500   7.326  0.0595  0.1918  0.4127
  847YOPE   NH312511   4.786  10.850   4.922  0.1858  0.0642  0.0240
  847YOPE   PO412512   5.138  11.160   4.974  0.0664  0.0481  0.3070
  847YOPE   GL112513   5.014  11.243   5.439  0.0618 -0.1675  0.1558
  847YOPE   GL212514   5.263  11.180   5.617  0.2427  0.0273  0.0032
  847YOPE   C1A12515   4.675  11.353   5.738  0.1004  0.1302  0.3963
  847YOPE   D2A12516   4.503  11.577   6.096  0.2695  0.3047 -0.1895
  847YOPE   C3A12517   4.484  11.713   6.533  0.0560  0.2678  0.0879
  847YOPE   C4A12518   4.358  11.559   6.857 -0.1893  0.2827 -0.0626
  847YOPE   C1B12519   5.119  11.345   5.969 -0.1206  0.1746  0.1283
  847YOPE   C2B12520   4.915  11.416   6.365  0.0124 -0.1341 -0.1083
  847YOPE   D3B12521   4.931  11.298   6.790  0.1565  0.2874 -0.1499
  847YOPE   C4B12522   5.120  11.194   7.170 -0.1281 -0.0776  0.2778
  848YOPE   NH312523  11.815  17.339   5.319 -0.0219 -0.0833 -0.1077
  848YOPE   PO412524  11.536  17.451   5.077 -0.0003  0.0502  0.0412
  848YOPE   GL112525  11.379  17.589   5.467  0.0501  0.1629  0.4192
  848YOPE   GL212526  11.638  17.812   5.483  0.1607  0.2131 -0.2325
  848YOPE   C1A12527  11.127  17.564   5.813 -0.0133  0.0265  0.0648
  848YOPE   D2A12528  11.030  17.478   6.286  0.1112 -0.2675  0.2797
  848YOPE   C3A12529  10.590  17.552   6.343 -0.1030  0.0920  0.3570
  848YOPE   C4A12530  10.260  17.626   6.536 -0.2471 -0.0911  0.1363
  848YOPE   C1B12531  11.543  17.772   5.927 -0.0155 -0.1091 -0.1069
  848YOPE   C2B12532  11.589  17.751   6.329 -0.3351 -0.3093 -0.2894
  848YOPE   D3B12533  11.728  18.235   6.410  0.1021  0.1664  0.0897
  848YOPE   C4B12534  11.383  18.494   6.491  0.0362 -0.2625  0.0075
  849YOPE   NH312535  18.467   5.598   6.147  0.1197 -0.1085 -0.2643
  849YOPE   PO412536  18.307   5.155   5.925 -0.0014 -0.3735  0.4030
  849YOPE   GL112537  18.419   5.147   6.332 -0.2236  0.0649  0.0083
  849YOPE   GL212538  18.708   5.370   6.479  0.0616  0.1915 -0.1201
  849YOPE   C1A12539  18.626   4.870   6.546  0.6388 -0.3623 -0.0538
  849YOPE   D2A12540  18.619   4.551   6.820 -0.0024  0.3937 -0.0170
  849YOPE   C3A12541  18.373   4.541   7.165  0.1287  0.0402 -0.0780
  849YOPE   C4A12542  18.071   4.763   7.349 -0.3475 -0.0867 -0.5761
  849YOPE   C1B12543  18.467   5.356   6.770 -0.1897  0.1272 -0.1429
  849YOPE   C2B12544  18.103   5.474   6.985 -0.1558  0.0348  0.1952
  849YOPE   D3B12545  18.089   5.931   7.005  0.0566 -0.1031  0.1265
  849YOPE   C4B12546  18.124   6.427   7.057  0.0380 -0.1641 -0.2090
  850YOPE   NH312547  13.327  10.858   5.604  0.1057 -0.2768  0.1720
  850YOPE   PO412548  12.900  11.057   5.593  0.2513 -0.3209 -0.0752
  850YOPE   GL112549  12.637  10.918   5.855 -0.0202 -0.1152 -0.2357
  850YOPE   GL212550  12.806  10.687   5.986 -0.2639  0.1083 -0.2019
  850YOPE   C1A12551  12.306  10.865   6.093 -0.4095  0.1470 -0.2605
  850YOPE   D2A12552  11.910  10.604   6.195 -0.1353 -0.2154  0.0013
  850YOPE   C3A12553  11.785  10.388   6.623 -0.0075  0.1029 -0.0159
  850YOPE   C4A12554  11.604  10.345   7.047 -0.0998 -0.2579  0.3314
  850YOPE   C1B12555  12.866  10.832   6.392  0.2743 -0.2852  0.0922
  850YOPE   C2B12556  12.879  10.736   6.894  0.2624 -0.4679 -0.1294
  850YOPE   D3B12557  12.917  10.725   7.294  0.1151 -0.2574 -0.0924
  850YOPE   C4B12558  13.037  10.888   7.687  0.2146  0.0312  0.0966
  851YOPE   NH312559   6.380   4.703   5.443 -0.2944  0.1919  0.0430
  851YOPE   PO412560   6.320   4.415   5.720 -0.0954  0.1125  0.2213
  851YOPE   GL112561   6.428   4.446   6.108  0.0142  0.0301 -0.0353
  851YOPE   GL212562   6.823   4.411   6.137  0.0875 -0.1123 -0.4074
  851YOPE   C1A12563   6.163   4.185   6.521  0.1075  0.1949  0.3366
  851YOPE   D2A12564   6.177   3.859   6.787  0.1815 -0.0239 -0.2712
  851YOPE   C3A12565   5.845   3.876   7.225  0.0227 -0.0909 -0.0110
  851YOPE   C4A12566   5.893   3.887   7.540  0.0397  0.2197  0.0656
  851YOPE   C1B12567   6.543   4.513   6.585  0.3169 -0.0229  0.1065
  851YOPE   C2B12568   6.514   4.773   6.836 -0.2002 -0.2020  0.1385
  851YOPE   D3B12569   6.384   5.074   7.154  0.0576 -0.0511  0.1438
  851YOPE   C4B12570   6.287   5.418   7.286  0.0230  0.0501 -0.1481
  852YOPE   NH312571   2.723   9.670   5.521 -0.2347  0.1369 -0.4647
  852YOPE   PO412572   2.809  10.105   5.465  0.3548  0.2200 -0.0620
  852YOPE   GL112573   2.720  10.044   5.851 -0.1823  0.6579  0.1169
  852YOPE   GL212574   3.056  10.053   5.988 -0.1978 -0.2221 -0.1701
  852YOPE   C1A12575   2.489  10.010   6.226 -0.1972  0.0455 -0.0250
  852YOPE   D2A12576   2.139  10.218   6.396  0.1720 -0.3065 -0.0282
  852YOPE   C3A12577   1.881  10.491   6.593 -0.0781  0.0531 -0.0573
  852YOPE   C4A12578   1.544  10.499   6.777 -0.3100  0.1969  0.0156
  852YOPE   C1B12579   3.003  10.084   6.454  0.1763  0.1080 -0.1796
  852YOPE   C2B12580   3.039   9.802   6.798 -0.0093  0.0069  0.1477
  852YOPE   D3B12581   2.794   9.718   7.164  0.1571  0.3635 -0.1094
  852YOPE   C4B12582   2.394   9.589   7.482  0.0952 -0.2403 -0.3784
  853YOPE   NH312583   6.558   3.247   5.553  0.0891 -0.1532  0.1438
  853YOPE   PO412584   6.851   3.509   5.808  0.1720  0.1547  0.0877
  853YOPE   GL112585   6.818   3.796   6.234  0.1541 -0.1339  0.1568
  853YOPE   GL212586   6.615   3.990   6.312  0.2128  0.3595  0.0966
  853YOPE   C1A12587   7.068   4.077   6.474 -0.0986  0.3725  0.0346
  853YOPE   D2A12588   7.078   4.366   6.712 -0.0892 -0.0389  0.1760
  853YOPE   C3A12589   7.081   4.792   6.829  0.2374 -0.0524 -0.0831
  853YOPE   C4A12590   7.231   5.126   6.939  0.1022 -0.1270 -0.0704
  853YOPE   C1B12591   6.611   4.003   6.666 -0.3249  0.2413 -0.0491
  853YOPE   C2B12592   6.657   4.279   6.975  0.0349  0.1326  0.1652
  853YOPE   D3B12593   6.532   4.276   7.411 -0.0790 -0.0550  0.0978
  853YOPE   C4B12594   6.586   4.344   7.900  0.0670  0.1597  0.0973
  854YOPE   NH312595   0.067  16.955   5.225  0.1389  0.1942 -0.1511
  854YOPE   PO412596  -0.230  17.244   5.260  0.1502 -0.0309 -0.2211
  854YOPE   GL112597  -0.305  17.527   5.536  0.1948  0.1057 -0.0184
  854YOPE   GL212598  -0.179  17.819   5.337 -0.1600  0.0098 -0.1031
  854YOPE   C1A12599  -0.427  17.664   5.998 -0.0675 -0.0176 -0.3001
  854YOPE   D2A12600  -0.443  17.733   6.478  0.1438 -0.1293  0.0343
  854YOPE   C3A12601  -0.196  17.772   6.940  0.4504 -0.0110  0.2693
  854YOPE   C4A12602  -0.336  17.392   7.222 -0.0118  0.2765  0.0412
  854YOPE   C1B12603  -0.011  17.822   5.811  0.0760  0.2632  0.0502
  854YOPE   C2B12604  -0.062  17.975   6.259 -0.0092  0.0487 -0.1881
  854YOPE   D3B12605  -0.034  18.214   6.697 -0.1444 -0.1852 -0.0892
  854YOPE   C4B12606   0.147  18.169   7.127 -0.0809  0.1406  0.3304
  855YOPE   NH312607  10.122  10.864   5.624  0.3355  0.0882  0.1892
  855YOPE   PO412608  10.228  10.412   5.755 -0.2910  0.1087  0.4102
  855YOPE   GL112609  10.192  10.619   6.145  0.2166 -0.1023 -0.1325
  855YOPE   GL212610  10.434  10.849   6.123 -0.0469 -0.3185  0.0698
  855YOPE   C1A12611  10.193  10.764   6.627  0.1200 -0.1810  0.2531
  855YOPE   D2A12612  10.236  10.550   6.914  0.0252  0.0814  0.1323
  855YOPE   C3A12613  10.398  10.194   6.960 -0.2136 -0.2103 -0.3316
  855YOPE   C4A12614  10.711  10.196   7.252 -0.0492 -0.0185  0.0820
  855YOPE   C1B12615  10.122  11.082   6.238 -0.0239 -0.0971 -0.0963
  855YOPE   C2B12616   9.848  11.188   6.525  0.0807 -0.0095  0.1231
  855YOPE   D3B12617   9.504  11.319   6.521  0.1428 -0.1370  0.4527
  855YOPE   C4B12618   9.058  11.341   6.489  0.0581 -0.0115  0.2265
  856YOPE   NH312619   8.278   9.983   5.166 -0.0667 -0.3084 -0.1779
  856YOPE   PO412620   8.219  10.434   5.136 -0.0461 -0.1795 -0.0066
  856YOPE   GL112621   8.190  10.455   5.517  0.3403  0.0604  0.3190
  856YOPE   GL212622   7.851  10.481   5.555  0.0460  0.2832  0.2757
  856YOPE   C1A12623   7.997  10.438   6.006 -0.0347 -0.4734  0.0865
  856YOPE   D2A12624   7.862  10.347   6.348 -0.1381 -0.3162 -0.1348
  856YOPE   C3A12625   7.948  10.192   6.656 -0.0032 -0.2086 -0.1214
  856YOPE   C4A12626   7.860  10.360   7.159  0.2076  0.0096  0.0822
  856YOPE   C1B12627   7.552  10.337   5.812 -0.1798 -0.1096  0.0758
  856YOPE   C2B12628   7.384  10.177   6.276 -0.1725 -0.0493 -0.0816
  856YOPE   D3B12629   7.121  10.443   6.571 -0.2463 -0.1370  0.0736
  856YOPE   C4B12630   6.977  10.525   6.955  0.1523 -0.0441 -0.1778
  857YOPE   NH312631   5.180   7.931   5.584  0.1681  0.2381  0.2140
  857YOPE   PO412632   4.878   8.348   5.470  0.1207 -0.2623 -0.0402
  857YOPE   GL112633   4.973   8.327   5.870  0.4413  0.0779 -0.0372
  857YOPE   GL212634   5.052   8.666   5.907  0.0465 -0.5873 -0.0730
  857YOPE   C1A12635   5.001   8.422   6.388  0.0466  0.1114 -0.0772
  857YOPE   D2A12636   5.020   8.458   6.779 -0.0968  0.0709  0.2703
  857YOPE   C3A12637   4.666   8.610   6.953 -0.0951  0.0854 -0.2059
  857YOPE   C4A12638   4.209   8.699   7.065 -0.1938  0.4707  0.0769
  857YOPE   C1B12639   5.442   8.583   6.172 -0.0459  0.3789  0.3093
  857YOPE   C2B12640   5.695   8.331   6.300 -0.2970 -0.0440  0.1139
  857YOPE   D3B12641   5.902   8.246   6.577  0.1444 -0.3141  0.1467
  857YOPE   C4B12642   5.840   8.200   7.091  0.3688 -0.0492 -0.3093
  858YOPE   NH312643   3.037   7.039   5.486  0.0684  0.1705 -0.0221
  858YOPE   PO412644   3.474   6.851   5.535  0.2434 -0.0943 -0.0795
  858YOPE   GL112645   3.244   6.858   5.902 -0.0163 -0.2067 -0.2665
  858YOPE   GL212646   3.200   6.605   6.081 -0.1229  0.0690 -0.1088
  858YOPE   C1A12647   3.312   7.031   6.380  0.0642 -0.3068  0.3782
  858YOPE   D2A12648   3.440   7.410   6.580 -0.0214  0.3165 -0.0891
  858YOPE   C3A12649   3.854   7.648   6.557  0.0267  0.0971  0.1456
  858YOPE   C4A12650   4.211   7.927   6.466 -0.0426  0.1072  0.1424
  858YOPE   C1B12651   3.194   6.450   6.490  0.0718  0.1829 -0.0419
  858YOPE   C2B12652   3.508   6.629   6.743  0.3259  0.0430 -0.0216
  858YOPE   D3B12653   3.655   7.110   6.891 -0.0574  0.0960 -0.2061
  858YOPE   C4B12654   3.689   7.503   6.989  0.0521  0.1090 -0.2805
  859YOPE   NH312655   1.957   3.288   5.907  0.2952  0.0628 -0.2278
  859YOPE   PO412656   2.023   3.770   5.844  0.1715  0.0378 -0.0485
  859YOPE   GL112657   2.186   3.595   6.258 -0.0727 -0.0757  0.1389
  859YOPE   GL212658   2.544   3.417   6.192  0.0552 -0.1033 -0.0439
  859YOPE   C1A12659   2.246   3.209   6.548  0.0279 -0.0222  0.5553
  859YOPE   D2A12660   2.542   3.010   6.956  0.1595 -0.1859 -0.2625
  859YOPE   C3A12661   2.480   2.686   7.271 -0.3313 -0.0614 -0.0959
  859YOPE   C4A12662   2.147   2.684   7.566  0.0505  0.0021  0.0697
  859YOPE   C1B12663   2.726   3.366   6.585  0.2436  0.3344 -0.0009
  859YOPE   C2B12664   2.780   3.673   6.879  0.1559  0.2507 -0.2247
  859YOPE   D3B12665   2.913   3.986   7.007 -0.3402 -0.1476 -0.1290
  859YOPE   C4B12666   3.120   4.269   6.874 -0.2627 -0.2732  0.0167
  860YOPE   NH312667   0.415   7.286   5.832  0.1477 -0.0287  0.1635
  860YOPE   PO412668   0.107   7.006   5.999 -0.0309 -0.0014  0.0643
  860YOPE   GL112669   0.110   7.103   6.373 -0.2720 -0.2631 -0.0008
  860YOPE   GL212670  -0.145   7.323   6.545  0.0731  0.1482  0.1668
  860YOPE   C1A12671   0.158   6.957   6.801  0.2131  0.2550  0.0702
  860YOPE   D2A12672  -0.012   6.776   7.117  0.1012 -0.1292  0.1207
  860YOPE   C3A12673  -0.158   7.067   7.451 -0.0853 -0.2008  0.0644
  860YOPE   C4A12674  -0.567   7.086   7.653  0.0097  0.2035 -0.1248
  860YOPE   C1B12675  -0.473   7.184   6.851 -0.2812  0.1341 -0.0362
  860YOPE   C2B12676  -0.694   7.319   7.154  0.2004  0.4365  0.1272
  860YOPE   D3B12677  -1.044   7.269   7.454  0.3259  0.0693 -0.2201
  860YOPE   C4B12678  -1.471   7.212   7.468  0.0272 -0.0588  0.4351
  861YOPE   NH312679   7.532  13.213   4.916 -0.1185  0.1185  0.1364
  861YOPE   PO412680   7.407  13.469   5.159 -0.2998 -0.0696 -0.1022
  861YOPE   GL112681   7.292  13.551   5.586 -0.0281 -0.1654  0.3518
  861YOPE   GL212682   7.517  13.489   5.771  0.1773 -0.1715  0.0258
  861YOPE   C1A12683   6.966  13.392   5.820 -0.1415  0.1979  0.1240
  861YOPE   D2A12684   6.848  13.418   6.280 -0.1710  0.2394 -0.1018
  861YOPE   C3A12685   7.143  13.657   6.593 -0.2578 -0.2561  0.0838
  861YOPE   C4A12686   7.197  13.701   7.063 -0.1235 -0.3466  0.4267
  861YOPE   C1B12687   7.345  13.569   6.136  0.1474  0.2941  0.2816
  861YOPE   C2B12688   7.124  13.916   6.182 -0.1273  0.0933 -0.2086
  861YOPE   D3B12689   7.197  14.413   6.420 -0.0349 -0.0479  0.2255
  861YOPE   C4B12690   7.120  14.859   6.359  0.1190 -0.1945 -0.0947
  862YOPE   NH312691   2.192   7.067   5.609  0.0360  0.2823 -0.3247
  862YOPE   PO412692   2.612   7.170   5.700  0.0093 -0.1276  0.2074
  862YOPE   GL112693   2.768   7.079   6.108  0.0148  0.0974  0.0461
  862YOPE   GL212694   2.917   7.354   6.286 -0.1267 -0.3062 -0.1807
  862YOPE   C1A12695   2.881   6.837   6.570  0.2867  0.1378  0.0852
  862YOPE   D2A12696   2.834   6.734   6.995  0.1216  0.2735 -0.0410
  862YOPE   C3A12697   2.774   6.332   7.157  0.1947 -0.1463 -0.0502
  862YOPE   C4A12698   2.440   6.107   6.999  0.0522  0.3207 -0.2567
  862YOPE   C1B12699   2.910   7.355   6.742  0.1208 -0.0384 -0.2081
  862YOPE   C2B12700   3.141   7.222   7.023  0.1984 -0.1081 -0.0133
  862YOPE   D3B12701   3.068   6.964   7.467 -0.1705  0.0621 -0.0224
  862YOPE   C4B12702   2.806   7.060   7.843  0.0016  0.0078 -0.0916
  863YOPE   NH312703   4.801  17.299   4.911 -0.1300 -0.2114  0.0149
  863YOPE   PO412704   4.805  16.891   5.108  0.0718  0.0440 -0.1372
  863YOPE   GL112705   4.875  16.898   5.661  0.0092 -0.0738  0.5053
  863YOPE   GL212706   5.149  16.971   5.883 -0.0245 -0.2517  0.4341
  863YOPE   C1A12707   4.725  16.749   5.901  0.1224 -0.3798 -0.1099
  863YOPE   D2A12708   4.812  16.520   6.202  0.0622  0.2270 -0.1176
  863YOPE   C3A12709   4.465  16.260   6.141 -0.3808  0.1233  0.0042
  863YOPE   C4A12710   4.243  15.982   6.377  0.1561 -0.0929  0.0523
  863YOPE   C1B12711   4.865  17.029   6.296  0.3022 -0.1089  0.2540
  863YOPE   C2B12712   4.546  17.205   6.536 -0.1299  0.2425  0.2039
  863YOPE   D3B12713   4.090  17.239   6.428 -0.2326 -0.0172 -0.1790
  863YOPE   C4B12714   3.764  17.426   6.216 -0.2255  0.1005  0.0100
  864YOPE   NH312715   0.449   2.655   5.971  0.5633  0.1289 -0.2196
  864YOPE   PO412716   0.859   2.725   6.077 -0.1528 -0.0457 -0.4523
  864YOPE   GL112717   1.077   2.915   6.506  0.0399 -0.1952 -0.1423
  864YOPE   GL212718   1.096   3.257   6.476  0.0565 -0.0346  0.1529
  864YOPE   C1A12719   1.070   2.789   6.851  0.2500 -0.0469 -0.0533
  864YOPE   D2A12720   0.868   2.924   7.218  0.2444 -0.2676  0.3076
  864YOPE   C3A12721   0.470   2.984   7.082  0.1712 -0.2483  0.1977
  864YOPE   C4A12722   0.162   2.952   6.817 -0.0293 -0.2752 -0.3887
  864YOPE   C1B12723   1.321   3.656   6.731 -0.1294 -0.1034  0.0566
  864YOPE   C2B12724   1.553   3.635   7.108 -0.0162  0.0513  0.2518
  864YOPE   D3B12725   1.820   3.414   7.411 -0.0894  0.1328  0.0497
  864YOPE   C4B12726   1.984   3.588   7.833  0.1056 -0.5020 -0.0501
  865YOPE   NH312727   3.346   2.086   5.799 -0.2697 -0.0701 -0.3170
  865YOPE   PO412728   3.710   2.177   5.840  0.0286 -0.3040 -0.1586
  865YOPE   GL112729   3.691   1.999   6.261  0.2169 -0.1885 -0.2440
  865YOPE   GL212730   3.726   1.611   6.400 -0.1303 -0.2846  0.0155
  865YOPE   C1A12731   3.661   1.857   6.795  0.0704  0.1915 -0.0571
  865YOPE   D2A12732   3.690   1.767   7.064 -0.3823 -0.2024 -0.1815
  865YOPE   C3A12733   3.657   2.023   7.368 -0.2089 -0.2343  0.1151
  865YOPE   C4A12734   3.613   2.437   7.455 -0.2015 -0.2673  0.0481
  865YOPE   C1B12735   3.485   1.398   6.762 -0.0182  0.0665 -0.0728
  865YOPE   C2B12736   3.481   1.233   7.218 -0.0715 -0.3294 -0.2361
  865YOPE   D3B12737   3.581   1.479   7.599 -0.3232 -0.0646  0.1967
  865YOPE   C4B12738   3.458   1.664   8.002  0.1398 -0.0233  0.1452
  866YOPE   NH312739  11.763   6.144   5.578 -0.1950 -0.2136  0.0155
  866YOPE   PO412740  11.407   6.255   5.596 -0.0450 -0.0979  0.1825
  866YOPE   GL112741  11.475   6.313   5.971  0.3670 -0.0212 -0.3146
  866YOPE   GL212742  11.286   6.564   5.945 -0.0083  0.0821  0.1346
  866YOPE   C1A12743  11.670   6.071   6.369 -0.1358 -0.1643 -0.0294
  866YOPE   D2A12744  11.560   5.909   6.682 -0.0465  0.2988  0.0810
  866YOPE   C3A12745  11.701   6.096   7.078 -0.2398  0.4388 -0.1267
  866YOPE   C4A12746  11.979   6.007   7.406 -0.0103 -0.0819  0.0283
  866YOPE   C1B12747  11.187   6.731   6.436 -0.4312  0.2395  0.4852
  866YOPE   C2B12748  11.057   6.935   6.748  0.3842  0.0232 -0.0009
  866YOPE   D3B12749  11.010   6.972   7.145  0.0788 -0.2244  0.0820
  866YOPE   C4B12750  11.084   6.991   7.588 -0.1323 -0.1394 -0.1430
  867YOPE   NH312751  15.050   5.921   5.793  0.2527  0.0368 -0.0968
  867YOPE   PO412752  14.562   5.993   5.606 -0.0622 -0.1931  0.0642
  867YOPE   GL112753  14.505   5.961   5.994 -0.0879  0.0731  0.2487
  867YOPE   GL212754  14.795   5.965   6.209 -0.4007  0.5101  0.3720
  867YOPE   C1A12755  14.218   5.828   6.366  0.0175  0.4479  0.1683
  867YOPE   D2A12756  14.189   5.829   6.817  0.2947 -0.2116 -0.0178
  867YOPE   C3A12757  14.346   5.599   7.150  0.2155 -0.0809 -0.5570
  867YOPE   C4A12758  14.467   5.619   7.623 -0.0742 -0.1170 -0.3538
  867YOPE   C1B12759  14.606   5.509   6.358 -0.1958 -0.2014  0.2202
  867YOPE   C2B12760  14.628   5.273   6.749  0.0446  0.2150 -0.0359
  867YOPE   D3B12761  14.439   5.022   7.054 -0.0637  0.2996  0.0192
  867YOPE   C4B12762  14.259   4.994   7.450  0.1547 -0.0632 -0.2170
  868YOPE   NH312763   8.645  17.399   5.351 -0.3429  0.1591  0.2067
  868YOPE   PO412764   8.529  17.798   5.269 -0.2396 -0.3165 -0.2270
  868YOPE   GL112765   8.362  17.746   5.676 -0.1292 -0.0752 -0.0113
  868YOPE   GL212766   8.607  17.513   5.804  0.2357  0.0153 -0.0145
  868YOPE   C1A12767   8.342  17.891   6.108 -0.3305 -0.1838  0.1376
  868YOPE   D2A12768   8.567  18.179   6.432  0.0289 -0.1006  0.1463
  868YOPE   C3A12769   8.876  18.184   6.783  0.0416 -0.1172 -0.1306
  868YOPE   C4A12770   9.014  18.211   7.170  0.0956 -0.0473  0.0703
  868YOPE   C1B12771   8.723  17.287   6.178 -0.0968 -0.1725 -0.2273
  868YOPE   C2B12772   8.401  17.241   6.594  0.0378  0.3245  0.0109
  868YOPE   D3B12773   8.385  17.337   6.905  0.1230 -0.0368 -0.2203
  868YOPE   C4B12774   7.983  17.371   7.162  0.3066  0.2352  0.0167
  869YOPE   NH312775   0.092  15.632   5.291  0.0678 -0.0389  0.0634
  869YOPE   PO412776   0.577  15.638   5.415  0.0296  0.1704  0.1343
  869YOPE   GL112777   0.413  15.615   5.698 -0.3133 -0.2334 -0.0982
  869YOPE   GL212778   0.412  15.925   5.819  0.5247 -0.1047 -0.2273
  869YOPE   C1A12779   0.419  15.376   6.070  0.1244 -0.1085  0.1546
  869YOPE   D2A12780   0.623  15.055   6.267  0.0037  0.1321  0.0825
  869YOPE   C3A12781   0.763  15.165   6.756  0.3773  0.3313  0.2343
  869YOPE   C4A12782   0.880  15.160   7.245 -0.0587 -0.0619 -0.0145
  869YOPE   C1B12783   0.528  15.812   6.246  0.0542 -0.0090 -0.1237
  869YOPE   C2B12784   0.761  15.802   6.626  0.2316 -0.2197  0.1135
  869YOPE   D3B12785   1.054  15.638   6.850 -0.0375  0.1346 -0.3030
  869YOPE   C4B12786   1.090  15.643   7.374 -0.1427  0.2397 -0.1447
  870YOPE   NH312787  18.921   3.704   5.794 -0.2455 -0.0444 -0.3007
  870YOPE   PO412788  18.570   3.690   5.917 -0.0857 -0.1261 -0.0709
  870YOPE   GL112789  18.486   3.585   6.340  0.1327 -0.1681  0.3004
  870YOPE   GL212790  18.366   3.968   6.414 -0.3053  0.0007 -0.1636
  870YOPE   C1A12791  18.561   3.710   6.809  0.2088 -0.1313 -0.1527
  870YOPE   D2A12792  18.706   4.032   7.055 -0.0082  0.0100  0.2876
  870YOPE   C3A12793  18.907   3.948   7.456 -0.3113  0.1441  0.4342
  870YOPE   C4A12794  19.101   4.245   7.697 -0.3315  0.0586 -0.0297
  870YOPE   C1B12795  18.102   3.718   6.680  0.2361 -0.1806  0.0018
  870YOPE   C2B12796  17.749   3.511   6.870  0.0159  0.2907  0.0697
  870YOPE   D3B12797  17.282   3.443   6.972 -0.1102  0.3155  0.0198
  870YOPE   C4B12798  17.037   3.302   7.242  0.1062  0.0071 -0.1799
  871YOPE   NH312799   7.976   5.331   5.665  0.0841 -0.1873 -0.0402
  871YOPE   PO412800   8.278   5.063   5.708 -0.3222  0.1034 -0.0326
  871YOPE   GL112801   8.427   5.310   6.018 -0.1273 -0.1012  0.1099
  871YOPE   GL212802   8.311   5.595   5.893  0.1812 -0.1847  0.0788
  871YOPE   C1A12803   8.524   5.466   6.449  0.0686 -0.0704  0.3546
  871YOPE   D2A12804   8.596   5.576   6.868  0.2166  0.3936 -0.1627
  871YOPE   C3A12805   8.893   5.471   7.113 -0.1174 -0.0049  0.1923
  871YOPE   C4A12806   9.151   5.199   7.320 -0.3642 -0.1306  0.2876
  871YOPE   C1B12807   7.990   5.594   6.285  0.2201 -0.0411 -0.1583
  871YOPE   C2B12808   8.064   5.734   6.749  0.1822 -0.0449  0.0177
  871YOPE   D3B12809   8.264   6.025   7.083  0.0797  0.2009 -0.0757
  871YOPE   C4B12810   8.721   6.087   7.247 -0.2843  0.0674  0.1983
  872YOPE   NH312811  18.012   4.684   5.806  0.0906  0.3578  0.1411
  872YOPE   PO412812  17.541   4.709   5.747  0.0622  0.0409  0.0616
  872YOPE   GL112813  17.675   4.805   6.186 -0.5589  0.2157 -0.2792
  872YOPE   GL212814  17.592   5.078   6.391 -0.0894  0.5508  0.2359
  872YOPE   C1A12815  17.799   4.599   6.487  0.2033 -0.1066 -0.0941
  872YOPE   D2A12816  17.833   4.509   6.899  0.1249 -0.3574  0.0769
  872YOPE   C3A12817  17.573   4.692   7.389  0.0680 -0.0713  0.0806
  872YOPE   C4A12818  17.332   4.308   7.595  0.0180  0.1487 -0.1627
  872YOPE   C1B12819  17.317   5.307   6.606 -0.1321  0.2259  0.1083
  872YOPE   C2B12820  16.947   5.680   6.734 -0.0175 -0.3975  0.2797
  872YOPE   D3B12821  16.644   5.721   6.978 -0.0604 -0.1306  0.0431
  872YOPE   C4B12822  16.422   6.018   6.970 -0.0670  0.2039  0.2142
  873YOPE   NH312823  17.338   9.201   5.281  0.1150  0.1313  0.0427
  873YOPE   PO412824  17.259   8.890   5.539 -0.3328 -0.1617 -0.3537
  873YOPE   GL112825  17.329   8.855   5.967  0.1105  0.3266 -0.2409
  873YOPE   GL212826  17.122   8.583   6.118 -0.1084 -0.1283 -0.1732
  873YOPE   C1A12827  17.746   8.767   6.294  0.0769  0.3005 -0.0936
  873YOPE   D2A12828  18.056   8.909   6.598 -0.1839 -0.0865  0.0589
  873YOPE   C3A12829  18.509   9.062   6.887 -0.3732 -0.0362 -0.1907
  873YOPE   C4A12830  18.590   8.956   7.318  0.1040 -0.2967 -0.1417
  873YOPE   C1B12831  17.176   8.523   6.471  0.1166  0.2831  0.1735
  873YOPE   C2B12832  17.134   8.598   6.835 -0.0773  0.0493  0.2359
  873YOPE   D3B12833  17.085   8.897   7.183 -0.0251 -0.2114 -0.0816
  873YOPE   C4B12834  16.950   9.193   7.460 -0.1089 -0.3985  0.1272
  874YOPE   NH312835   1.321   6.379   6.066 -0.4047  0.2665  0.1116
  874YOPE   PO412836   1.122   6.801   5.842  0.0304  0.2577  0.1444
  874YOPE   GL112837   1.077   6.912   6.225 -0.0453  0.0430  0.1686
  874YOPE   GL212838   0.977   6.540   6.391  0.3563 -0.0320  0.0904
  874YOPE   C1A12839   1.055   7.209   6.440 -0.0540 -0.3563  0.1055
  874YOPE   D2A12840   0.797   7.180   6.820  0.1909 -0.1224 -0.0742
  874YOPE   C3A12841   0.993   7.282   7.150 -0.0976 -0.0125  0.0412
  874YOPE   C4A12842   1.255   7.287   7.442  0.0371  0.0775 -0.1911
  874YOPE   C1B12843   0.882   6.686   6.785 -0.1341 -0.4254  0.1233
  874YOPE   C2B12844   0.933   6.824   7.138 -0.2444 -0.2237  0.2737
  874YOPE   D3B12845   0.784   6.872   7.513 -0.2231  0.0235 -0.2981
  874YOPE   C4B12846   0.935   7.103   7.836 -0.2993 -0.2427  0.2923
  875YOPE   NH312847   4.041   9.811   5.481  0.1149 -0.0634  0.3202
  875YOPE   PO412848   3.760   9.563   5.711 -0.0636  0.1857  0.1179
  875YOPE   GL112849   3.747   9.815   6.103 -0.0493  0.1632 -0.0819
  875YOPE   GL212850   3.323   9.786   6.348 -0.2836  0.1128  0.2769
  875YOPE   C1A12851   3.912  10.029   6.451  0.3064 -0.1006  0.1038
  875YOPE   D2A12852   4.050   9.831   6.725 -0.0666  0.2369  0.0769
  875YOPE   C3A12853   4.155  10.007   7.153  0.2001  0.0312 -0.0843
  875YOPE   C4A12854   4.312  10.154   7.495  0.1069  0.0183  0.0303
  875YOPE   C1B12855   3.526   9.808   6.710  0.0675 -0.2454  0.2854
  875YOPE   C2B12856   3.572  10.060   7.033 -0.1298 -0.1813  0.4516
  875YOPE   D3B12857   3.740  10.228   7.436 -0.0773 -0.0243 -0.1523
  875YOPE   C4B12858   3.990  10.368   7.833 -0.0803  0.0988 -0.0455
  876YOPE   NH312859   7.266  14.550   4.522 -0.0944  0.2617  0.2531
  876YOPE   PO412860   7.739  14.422   4.730 -0.1709 -0.0754  0.0107
  876YOPE   GL112861   7.892  14.364   5.143  0.1776 -0.3575 -0.0511
  876YOPE   GL212862   7.681  14.378   5.453 -0.2049  0.1896  0.1460
  876YOPE   C1A12863   8.250  14.663   5.308 -0.0942  0.1240  0.0200
  876YOPE   D2A12864   8.616  14.809   5.487 -0.1391  0.1778  0.1317
  876YOPE   C3A12865   8.745  14.933   5.855 -0.1769 -0.3541  0.3254
  876YOPE   C4A12866   9.043  14.918   6.033  0.3623  0.1063 -0.1875
  876YOPE   C1B12867   7.936  14.324   5.788 -0.0426  0.1054  0.4476
  876YOPE   C2B12868   8.113  14.207   6.180 -0.1792  0.2728  0.0807
  876YOPE   D3B12869   8.016  14.185   6.556  0.1979  0.4554 -0.0456
  876YOPE   C4B12870   8.015  14.100   6.976 -0.1751 -0.0212 -0.0251
  877YOPE   NH312871  14.591   4.987   5.127  0.0721 -0.1231  0.4011
  877YOPE   PO412872  14.980   5.081   5.471  0.3801  0.3423 -0.2860
  877YOPE   GL112873  15.116   5.022   5.889  0.0315 -0.0679  0.0280
  877YOPE   GL212874  15.175   4.675   6.064  0.2245  0.1760 -0.2212
  877YOPE   C1A12875  15.360   5.009   6.383 -0.3351 -0.0956  0.2532
  877YOPE   D2A12876  15.418   4.675   6.577 -0.0309 -0.2653 -0.1720
  877YOPE   C3A12877  15.726   4.482   6.389  0.3621 -0.0293 -0.0857
  877YOPE   C4A12878  15.973   4.077   6.355 -0.0291  0.2700  0.0307
  877YOPE   C1B12879  14.757   4.581   6.211 -0.2221 -0.3305  0.2121
  877YOPE   C2B12880  14.594   4.170   6.307 -0.2105 -0.3209  0.1795
  877YOPE   D3B12881  14.853   3.844   6.234 -0.1587 -0.2657 -0.0073
  877YOPE   C4B12882  15.136   3.758   6.585 -0.1230 -0.0812  0.3418
  878YOPE   NH312883   4.057  13.992   5.262  0.0753  0.0355  0.1768
  878YOPE   PO412884   4.142  13.634   5.314 -0.2207  0.2495 -0.1373
  878YOPE   GL112885   3.904  13.339   5.523  0.0562 -0.1561  0.1848
  878YOPE   GL212886   3.729  13.451   5.730  0.1847 -0.1710  0.1478
  878YOPE   C1A12887   3.660  12.991   5.770  0.1586 -0.0139  0.3137
  878YOPE   D2A12888   3.677  12.652   6.037  0.1025  0.1333  0.1369
  878YOPE   C3A12889   3.658  12.712   6.570 -0.1743  0.0713 -0.3464
  878YOPE   C4A12890   3.713  12.493   6.887 -0.1106  0.1417 -0.1416
  878YOPE   C1B12891   3.625  13.322   6.139  0.0214  0.0836  0.4725
  878YOPE   C2B12892   3.331  13.067   6.297  0.0053  0.0176  0.0651
  878YOPE   D3B12893   3.114  12.700   6.273  0.0126  0.1140  0.0013
  878YOPE   C4B12894   2.810  12.538   6.059 -0.0887  0.0260  0.0302
  879YOPE   NH312895   2.249  13.985   5.043 -0.0484  0.2629  0.1344
  879YOPE   PO412896   2.759  13.882   5.036 -0.2513  0.2863 -0.2527
  879YOPE   GL112897   2.547  13.884   5.521 -0.0286  0.2179  0.3101
  879YOPE   GL212898   2.716  13.977   5.786  0.4988  0.1534  0.3416
  879YOPE   C1A12899   2.114  13.886   5.860 -0.0113 -0.2110  0.0593
  879YOPE   D2A12900   1.815  13.810   6.126  0.0715 -0.0690 -0.1509
  879YOPE   C3A12901   1.738  13.884   6.505 -0.1151 -0.0825 -0.0763
  879YOPE   C4A12902   1.487  13.769   6.802 -0.2468 -0.0095  0.0344
  879YOPE   C1B12903   2.817  13.789   6.117  0.1281 -0.3983 -0.1456
  879YOPE   C2B12904   2.632  13.541   6.504 -0.1603 -0.2140  0.2759
  879YOPE   D3B12905   2.556  13.346   6.872  0.0381 -0.4146  0.0328
  879YOPE   C4B12906   2.699  13.359   7.238 -0.3823  0.0551 -0.2195
  880YOPE   NH312907  17.651  13.162   5.267  0.1118 -0.1861  0.1377
  880YOPE   PO412908  17.420  13.492   5.432 -0.0633  0.2228  0.2722
  880YOPE   GL112909  17.452  13.650   5.774  0.3039 -0.2407  0.2730
  880YOPE   GL212910  17.731  13.827   5.775 -0.1177  0.2918  0.6263
  880YOPE   C1A12911  17.368  13.815   6.147 -0.1888 -0.2049 -0.2120
  880YOPE   D2A12912  17.233  13.522   6.386 -0.2390 -0.3377  0.1528
  880YOPE   C3A12913  16.944  13.228   6.268  0.1626 -0.1921  0.2132
  880YOPE   C4A12914  16.859  13.002   5.808  0.0737 -0.1006  0.2053
  880YOPE   C1B12915  18.052  13.773   5.987 -0.3002 -0.0756 -0.0314
  880YOPE   C2B12916  18.216  13.955   6.423  0.1296 -0.2311  0.0150
  880YOPE   D3B12917  18.711  14.203   6.491  0.0053 -0.2544  0.2051
  880YOPE   C4B12918  19.016  14.494   6.482  0.1173  0.2102 -0.1174
  881YOPE   NH312919  11.363   6.783   5.513 -0.2602  0.0421 -0.2884
  881YOPE   PO412920  10.914   7.061   5.447 -0.1137  0.1304 -0.0100
  881YOPE   GL112921  11.174   7.079   5.896 -0.1815  0.0015 -0.4289
  881YOPE   GL212922  11.518   7.113   5.895  0.2142  0.1257  0.1769
  881YOPE   C1A12923  11.141   7.210   6.337 -0.0467  0.2500  0.2674
  881YOPE   D2A12924  11.306   7.335   6.783  0.0969 -0.0308  0.1178
  881YOPE   C3A12925  11.251   7.538   7.051  0.3224  0.0539 -0.3090
  881YOPE   C4A12926  11.370   7.469   7.456 -0.0378 -0.2866 -0.3742
  881YOPE   C1B12927  11.589   6.914   6.188  0.3603 -0.0671 -0.0918
  881YOPE   C2B12928  11.632   6.910   6.595 -0.0194 -0.3291 -0.1249
  881YOPE   D3B12929  11.833   7.084   6.953  0.2078 -0.0701  0.2266
  881YOPE   C4B12930  12.131   7.008   7.269  0.0532 -0.2266  0.2298
  882YOPE   NH312931  18.801   8.162   5.786  0.1885  0.0849  0.4065
  882YOPE   PO412932  18.442   8.278   5.729  0.3743  0.0957 -0.1670
  882YOPE   GL112933  18.372   8.000   6.150  0.1433  0.0308 -0.1831
  882YOPE   GL212934  18.242   7.719   6.067  0.2089 -0.0494  0.0722
  882YOPE   C1A12935  18.546   8.100   6.516  0.0076 -0.1451  0.0866
  882YOPE   D2A12936  18.964   8.387   6.577  0.0064 -0.2434  0.1752
  882YOPE   C3A12937  19.280   8.298   6.824 -0.0948 -0.2434  0.3588
  882YOPE   C4A12938  19.545   7.965   6.974  0.2888 -0.2530  0.0032
  882YOPE   C1B12939  18.099   7.783   6.529 -0.1521  0.4404 -0.0277
  882YOPE   C2B12940  17.620   7.908   6.725  0.1398 -0.0365  0.2308
  882YOPE   D3B12941  17.231   8.042   6.689 -0.1353  0.1892  0.0470
  882YOPE   C4B12942  16.872   8.040   6.835 -0.0599 -0.0089 -0.1627
  883YOPE   NH312943  17.609  16.402   5.459 -0.0904  0.2931  0.2999
  883YOPE   PO412944  17.281  16.632   5.358  0.1193 -0.1901 -0.2746
  883YOPE   GL112945  17.346  16.626   5.761 -0.0490  0.2063 -0.2277
  883YOPE   GL212946  17.362  17.055   5.741 -0.0763  0.3393 -0.0852
  883YOPE   C1A12947  17.375  16.765   6.217 -0.0686  0.2836 -0.2946
  883YOPE   D2A12948  17.053  16.918   6.592  0.0466  0.1013 -0.1369
  883YOPE   C3A12949  17.091  16.637   6.843 -0.1243 -0.2057  0.0601
  883YOPE   C4A12950  17.297  16.258   6.829  0.3699  0.0539 -0.4061
  883YOPE   C1B12951  17.190  17.320   6.099 -0.1745 -0.2531 -0.0707
  883YOPE   C2B12952  17.306  17.358   6.537  0.1692 -0.1593 -0.3879
  883YOPE   D3B12953  17.291  17.077   6.998  0.5834  0.2089  0.0397
  883YOPE   C4B12954  16.982  17.067   7.181  0.2182 -0.1198 -0.1882
  884YOPE   NH312955   1.089   9.021   5.726  0.2805  0.1355 -0.2687
  884YOPE   PO412956   0.665   9.056   5.450 -0.3963 -0.0110  0.1705
  884YOPE   GL112957   0.687   9.140   5.904  0.3036 -0.3733 -0.3466
  884YOPE   GL212958   0.333   9.151   6.051 -0.0146 -0.0834  0.1289
  884YOPE   C1A12959   0.710   9.270   6.446 -0.0546 -0.2798 -0.0633
  884YOPE   D2A12960   1.114   9.315   6.661  0.0721 -0.3846 -0.2778
  884YOPE   C3A12961   1.404   9.601   6.883  0.3496 -0.0952  0.3802
  884YOPE   C4A12962   1.472   9.818   7.354 -0.0355  0.1960  0.4893
  884YOPE   C1B12963   0.253   9.281   6.513 -0.0639 -0.3035 -0.1116
  884YOPE   C2B12964   0.044   9.585   6.830  0.2749  0.3777 -0.2689
  884YOPE   D3B12965  -0.257   9.893   6.735 -0.0067 -0.1602 -0.0089
  884YOPE   C4B12966  -0.631  10.064   6.820  0.0108 -0.1461 -0.0775
  885YOPE   NH312967   9.675  13.134   5.024 -0.2961  0.2566 -0.1070
  885YOPE   PO412968   9.651  13.312   5.408  0.2645 -0.0667 -0.1184
  885YOPE   GL112969  10.037  13.379   5.671  0.2497  0.3974  0.1614
  885YOPE   GL212970  10.363  13.391   5.540  0.1417  0.0241  0.0423
  885YOPE   C1A12971  10.318  13.292   6.051 -0.0342  0.0387  0.0095
  885YOPE   D2A12972  10.687  13.276   6.307 -0.1284  0.0278  0.1248
  885YOPE   C3A12973  10.555  13.152   6.709 -0.1440 -0.1165  0.0971
  885YOPE   C4A12974  10.499  13.158   7.121  0.4682  0.3308  0.1788
  885YOPE   C1B12975  10.670  13.183   5.759 -0.2953 -0.0007 -0.2823
  885YOPE   C2B12976  11.067  12.908   6.072 -0.1414 -0.2113  0.0039
  885YOPE   D3B12977  11.078  12.869   6.441  0.1965 -0.4799 -0.0807
  885YOPE   C4B12978  10.834  12.770   6.796  0.0719  0.2101 -0.1986
  886YOPE   NH312979   6.717  12.572   5.178  0.0042  0.2253 -0.0433
  886YOPE   PO412980   6.653  13.016   5.098 -0.1875  0.1811 -0.0207
  886YOPE   GL112981   6.681  13.090   5.520 -0.2188 -0.0994 -0.1338
  886YOPE   GL212982   6.768  12.815   5.695 -0.0640  0.4516  0.2644
  886YOPE   C1A12983   6.502  13.461   5.915 -0.0135  0.0398 -0.0976
  886YOPE   D2A12984   6.382  13.855   6.350 -0.0684  0.1085  0.3204
  886YOPE   C3A12985   6.735  13.899   6.588 -0.1064  0.3875  0.1822
  886YOPE   C4A12986   7.029  14.103   6.831 -0.0593  0.0736 -0.1637
  886YOPE   C1B12987   6.697  12.997   6.115 -0.1923 -0.0256 -0.1131
  886YOPE   C2B12988   6.980  12.791   6.486 -0.0611 -0.1770  0.2179
  886YOPE   D3B12989   7.390  12.733   6.710  0.2332 -0.1682  0.1406
  886YOPE   C4B12990   7.619  12.840   6.970 -0.0283  0.0729  0.3512
  887YOPE   NH312991   5.772   0.636   6.047 -0.0285  0.1593 -0.2439
  887YOPE   PO412992   5.593   0.820   5.691 -0.2751 -0.0733  0.2646
  887YOPE   GL112993   5.369   0.972   6.135  0.1067 -0.1047  0.0531
  887YOPE   GL212994   5.148   0.892   6.147  0.1801 -0.2142  0.1563
  887YOPE   C1A12995   5.193   1.150   6.533 -0.2779  0.2458  0.1404
  887YOPE   D2A12996   5.239   1.285   6.914 -0.1159 -0.4566  0.0155
  887YOPE   C3A12997   5.436   1.302   7.234  0.3108  0.0153 -0.0835
  887YOPE   C4A12998   5.865   1.483   7.351  0.0565 -0.0904  0.3012
  887YOPE   C1B12999   4.753   0.967   6.372  0.0241  0.1183  0.1422
  887YOPE   C2B13000   4.496   0.848   6.782 -0.0743 -0.1858  0.0920
  887YOPE   D3B13001   4.560   0.493   7.111  0.0529 -0.1622  0.2334
  887YOPE   C4B13002   4.675   0.163   7.376  0.2475  0.2507  0.0715
  888YOPE   NH313003   7.569  17.391   4.876  0.1190 -0.1514  0.1644
  888YOPE   PO413004   7.660  17.255   5.286 -0.1344 -0.0303 -0.2597
  888YOPE   GL113005   7.631  16.947   5.622 -0.3590  0.0713  0.0882
  888YOPE   GL213006   7.491  16.632   5.411 -0.0555 -0.0989 -0.2012
  888YOPE   C1A13007   7.768  16.954   6.091 -0.1720 -0.1896  0.1236
  888YOPE   D2A13008   7.880  17.031   6.487 -0.0590  0.3114 -0.1304
  888YOPE   C3A13009   7.510  17.089   6.996  0.2139 -0.0704  0.0098
  888YOPE   C4A13010   7.012  16.967   7.080 -0.3966  0.0248 -0.0478
  888YOPE   C1B13011   7.427  16.343   5.671  0.0022 -0.1770  0.2770
  888YOPE   C2B13012   7.492  16.188   6.112  0.0468 -0.1292 -0.0558
  888YOPE   D3B13013   7.521  16.165   6.433  0.2700  0.2264 -0.0891
  888YOPE   C4B13014   7.278  16.097   6.770 -0.0781  0.3063  0.0640
  889YOPE   NH313015   5.789   6.915   5.600 -0.3443  0.0366 -0.3394
  889YOPE   PO413016   5.944   7.327   5.816  0.3797  0.1273  0.1904
  889YOPE   GL113017   5.939   7.351   6.192  0.0673  0.3272 -0.0844
  889YOPE   GL213018   5.637   7.196   6.234 -0.0365 -0.1923  0.1066
  889YOPE   C1A13019   5.857   7.691   6.452 -0.3592 -0.4657  0.3916
  889YOPE   D2A13020   5.852   7.827   6.784  0.0506  0.2775 -0.2211
  889YOPE   C3A13021   5.778   7.688   7.253  0.1236  0.1535 -0.2221
  889YOPE   C4A13022   5.463   7.480   7.434  0.1254  0.1834 -0.2389
  889YOPE   C1B13023   5.323   7.214   6.657 -0.0470  0.2900 -0.4549
  889YOPE   C2B13024   5.197   7.114   7.193 -0.0249  0.3231 -0.0502
  889YOPE   D3B13025   4.820   6.850   7.323  0.2120  0.0192  0.2035
  889YOPE   C4B13026   4.542   6.584   7.247 -0.0424 -0.0224  0.0146
  890YOPE   NH313027  11.900  18.320   5.117  0.2567  0.0831  0.0624
  890YOPE   PO413028  11.456  18.268   5.332  0.2525  0.2520  0.0904
  890YOPE   GL113029  11.218  18.069   5.708  0.2239  0.4595 -0.2207
  890YOPE   GL213030  10.909  18.094   5.597 -0.3326 -0.0358 -0.2020
  890YOPE   C1A13031  11.146  18.024   6.189  0.1464  0.1971  0.1222
  890YOPE   D2A13032  10.762  17.971   6.400 -0.0924  0.0766 -0.3750
  890YOPE   C3A13033  10.873  18.214   6.809  0.3361  0.0012 -0.0891
  890YOPE   C4A13034  11.304  18.298   6.942  0.4426  0.3623  0.0742
  890YOPE   C1B13035  10.706  17.875   5.806 -0.2514 -0.0766 -0.0194
  890YOPE   C2B13036  10.464  17.568   5.853  0.1905  0.0405  0.0125
  890YOPE   D3B13037  10.308  17.314   5.623  0.0270 -0.1558 -0.0562
  890YOPE   C4B13038  10.370  16.857   5.730 -0.0294  0.0538 -0.0339
  891YOPE   NH313039  16.333   3.497   5.333  0.2774 -0.2363 -0.0786
  891YOPE   PO413040  16.317   3.980   5.565 -0.2184  0.1403  0.1841
  891YOPE   GL113041  16.507   4.120   5.997 -0.1584  0.1536  0.1252
  891YOPE   GL213042  16.755   4.323   6.148  0.2696 -0.1795  0.2444
  891YOPE   C1A13043  16.521   3.965   6.435 -0.3963  0.0683 -0.0408
  891YOPE   D2A13044  16.776   3.612   6.653 -0.2279  0.2009 -0.0595
  891YOPE   C3A13045  16.548   3.468   7.081  0.1025  0.1314 -0.3247
  891YOPE   C4A13046  16.602   3.332   7.471  0.4004  0.4418  0.0219
  891YOPE   C1B13047  16.812   4.437   6.668 -0.2725 -0.0202  0.1748
  891YOPE   C2B13048  16.600   4.159   6.944  0.1577 -0.0349  0.0104
  891YOPE   D3B13049  16.268   4.108   7.230  0.0889 -0.0537  0.2335
  891YOPE   C4B13050  15.965   3.825   7.436 -0.0169 -0.1912 -0.1051
  892YOPE   NH313051   6.290   0.394   5.990 -0.2694  0.1012  0.0747
  892YOPE   PO413052   5.966   0.219   6.219  0.0288 -0.1420  0.1193
  892YOPE   GL113053   5.793   0.294   6.662 -0.1741  0.0216 -0.1634
  892YOPE   GL213054   5.625   0.591   6.542  0.0211  0.5078  0.0234
  892YOPE   C1A13055   5.859   0.513   7.094 -0.2156  0.0284  0.0142
  892YOPE   D2A13056   5.632   0.719   7.458 -0.0304 -0.1003 -0.1832
  892YOPE   C3A13057   5.304   0.892   7.519 -0.1519 -0.1841 -0.0051
  892YOPE   C4A13058   4.788   0.709   7.514  0.0018  0.1750 -0.1348
  892YOPE   C1B13059   6.121   0.688   6.693 -0.1499  0.0343  0.3969
  892YOPE   C2B13060   6.536   0.653   6.724 -0.0934 -0.0154 -0.0296
  892YOPE   D3B13061   6.853   0.378   6.760  0.0315 -0.0748  0.0126
  892YOPE   C4B13062   6.947  -0.029   6.557 -0.0938  0.0179 -0.1428
  893YOPE   NH313063  13.619  15.983   5.184  0.2526  0.4596  0.3123
  893YOPE   PO413064  13.965  15.669   5.234 -0.0957  0.3485  0.0278
  893YOPE   GL113065  13.769  15.746   5.576  0.0575 -0.0772 -0.1407
  893YOPE   GL213066  13.927  15.685   5.875 -0.0362 -0.0262  0.0369
  893YOPE   C1A13067  13.429  15.949   5.927 -0.1759 -0.0560  0.2675
  893YOPE   D2A13068  13.305  16.030   6.360  0.3183 -0.1049 -0.1987
  893YOPE   C3A13069  12.989  16.349   6.487 -0.0011  0.2311 -0.4139
  893YOPE   C4A13070  12.644  16.388   6.711  0.0787 -0.1977  0.0869
  893YOPE   C1B13071  13.547  15.484   5.929  0.2804  0.4977  0.0307
  893YOPE   C2B13072  13.175  15.455   5.831  0.1714 -0.7350 -0.2620
  893YOPE   D3B13073  12.883  15.281   5.889 -0.0331 -0.0091 -0.1565
  893YOPE   C4B13074  12.627  15.181   6.139  0.0733  0.2311 -0.2801
  894YOPE   NH313075   0.234   3.693   5.727  0.2303 -0.1160  0.0053
  894YOPE   PO413076   0.605   3.700   5.855  0.0150 -0.3001  0.1032
  894YOPE   GL113077   0.686   3.863   6.204  0.5457  0.0289 -0.0982
  894YOPE   GL213078   0.722   3.602   6.421  0.0504 -0.5612  0.1295
  894YOPE   C1A13079   0.774   4.100   6.558  0.3718 -0.1587 -0.1656
  894YOPE   D2A13080   0.616   4.133   6.930  0.2508 -0.1550  0.1354
  894YOPE   C3A13081   0.848   4.284   7.146 -0.0301 -0.2344 -0.1268
  894YOPE   C4A13082   0.950   4.359   7.503  0.0691 -0.0804  0.4513
  894YOPE   C1B13083   0.468   3.664   6.727 -0.0337  0.1407 -0.0642
  894YOPE   C2B13084   0.202   3.406   6.992 -0.0333  0.0517 -0.1597
  894YOPE   D3B13085   0.040   3.411   7.459 -0.1194 -0.0142  0.0386
  894YOPE   C4B13086  -0.444   3.314   7.510 -0.0810 -0.2500 -0.0998
  895YOPE   NH313087  13.137  17.675   5.295 -0.0135  0.0028  0.0261
  895YOPE   PO413088  13.587  17.535   5.467 -0.1565 -0.2195  0.1182
  895YOPE   GL113089  13.442  17.326   5.760 -0.0422  0.2732  0.1892
  895YOPE   GL213090  13.245  17.130   5.630 -0.2617  0.1236 -0.1479
  895YOPE   C1A13091  13.503  17.059   6.139  0.0721  0.1919  0.0097
  895YOPE   D2A13092  13.356  16.792   6.435 -0.1021  0.1068  0.2274
  895YOPE   C3A13093  13.512  16.423   6.625  0.3299  0.0274 -0.0259
  895YOPE   C4A13094  13.769  16.063   6.898  0.1176  0.2524 -0.0066
  895YOPE   C1B13095  13.036  17.261   5.962  0.0009  0.0586  0.0286
  895YOPE   C2B13096  13.124  17.210   6.419 -0.0307 -0.0855  0.3277
  895YOPE   D3B13097  13.377  17.175   6.808  0.0431  0.1395  0.1121
  895YOPE   C4B13098  13.593  16.751   7.042 -0.0200  0.0212  0.1668
  896YOPE   NH313099   4.387  13.170   5.224  0.0251 -0.0242  0.0046
  896YOPE   PO413100   4.451  12.743   5.210  0.1169 -0.3157  0.0547
  896YOPE   GL113101   4.389  12.456   5.587 -0.2906  0.0367 -0.0969
  896YOPE   GL213102   4.613  12.509   5.853 -0.0467  0.0567 -0.0933
  896YOPE   C1A13103   4.110  12.358   5.907  0.1358  0.1613 -0.3083
  896YOPE   D2A13104   3.836  12.211   6.358 -0.0520  0.0261 -0.0152
  896YOPE   C3A13105   4.025  11.925   6.632  0.1659  0.0658 -0.0037
  896YOPE   C4A13106   4.007  11.798   7.078  0.1671 -0.1203 -0.2047
  896YOPE   C1B13107   4.698  12.835   6.106  0.0288 -0.0474  0.1174
  896YOPE   C2B13108   4.833  12.933   6.510 -0.0807 -0.1141  0.0090
  896YOPE   D3B13109   4.840  13.289   6.880 -0.0211 -0.1792  0.2266
  896YOPE   C4B13110   5.108  13.538   7.071  0.3462 -0.1445  0.0969
  897YOPE   NH313111   0.886  19.030   5.300  0.2472 -0.1676  0.0153
  897YOPE   PO413112   0.513  18.891   5.161  0.3011 -0.5603 -0.1525
  897YOPE   GL113113   0.377  18.553   5.412  0.3147 -0.2102 -0.1941
  897YOPE   GL213114   0.450  18.449   5.638 -0.0097  0.1024 -0.0063
  897YOPE   C1A13115   0.006  18.326   5.564  0.0263  0.4434 -0.2756
  897YOPE   D2A13116  -0.350  18.141   5.721  0.1879  0.3221  0.3664
  897YOPE   C3A13117  -0.533  18.109   6.150 -0.0128  0.0224  0.0611
  897YOPE   C4A13118  -0.878  17.918   6.441  0.0699  0.0485  0.1345
  897YOPE   C1B13119   0.468  18.349   6.110 -0.4253 -0.1704 -0.3610
  897YOPE   C2B13120   0.420  18.271   6.632 -0.0964 -0.2389  0.1786
  897YOPE   D3B13121   0.606  18.162   6.856  0.3075 -0.0298 -0.4627
  897YOPE   C4B13122   0.797  17.916   7.099 -0.2327  0.1031 -0.2090
  898YOPE   NH313123   8.155   6.077   5.262  0.0731  0.0622 -0.1635
  898YOPE   PO413124   8.067   5.798   5.489 -0.0103 -0.1290  0.7537
  898YOPE   GL113125   7.973   6.008   5.839  0.0057  0.1397 -0.0195
  898YOPE   GL213126   8.227   6.280   5.805 -0.0525  0.0152 -0.2062
  898YOPE   C1A13127   8.003   6.099   6.278  0.0060  0.0533 -0.1790
  898YOPE   D2A13128   8.126   6.368   6.742 -0.2836 -0.0443 -0.0650
  898YOPE   C3A13129   7.837   6.658   6.654 -0.1450  0.0458 -0.2698
  898YOPE   C4A13130   7.425   6.755   6.648  0.0660  0.2687  0.0287
  898YOPE   C1B13131   8.424   6.090   6.063 -0.0259 -0.1112 -0.0345
  898YOPE   C2B13132   8.464   5.939   6.486 -0.1083 -0.1696 -0.2491
  898YOPE   D3B13133   8.805   6.046   6.746 -0.0183 -0.1995 -0.3697
  898YOPE   C4B13134   9.189   5.873   7.016 -0.0019 -0.0256 -0.1182
  899YOPE   NH313135  16.296  17.594   4.990 -0.0030  0.1473  0.0005
  899YOPE   PO413136  16.058  17.318   5.069  0.1677 -0.2391  0.2614
  899YOPE   GL113137  16.116  17.488   5.460  0.1800  0.0516  0.0590
  899YOPE   GL213138  16.437  17.358   5.500 -0.0919  0.1108  0.0426
  899YOPE   C1A13139  16.228  17.730   5.817  0.1816 -0.1751  0.0644
  899YOPE   D2A13140  16.523  17.787   6.158  0.3301 -0.0430  0.4618
  899YOPE   C3A13141  16.953  17.810   5.977 -0.3670 -0.0927 -0.0011
  899YOPE   C4A13142  17.231  18.114   5.806  0.1431  0.2210  0.1657
  899YOPE   C1B13143  16.627  17.325   5.946 -0.2596 -0.0778  0.0633
  899YOPE   C2B13144  16.779  17.455   6.391 -0.4679 -0.1163  0.3063
  899YOPE   D3B13145  16.651  17.546   6.759  0.3213 -0.0803  0.0492
  899YOPE   C4B13146  16.277  17.469   7.099 -0.3017 -0.2425  0.0705
  900YOPE   NH313147  14.768   1.138   5.167 -0.0875  0.0874  0.1104
  900YOPE   PO413148  14.486   1.492   5.269 -0.2206 -0.0519  0.5817
  900YOPE   GL113149  14.566   1.446   5.693  0.0265  0.1829 -0.0905
  900YOPE   GL213150  14.205   1.364   5.702 -0.1334 -0.2068 -0.1196
  900YOPE   C1A13151  14.526   1.399   6.179  0.0560 -0.0678  0.1421
  900YOPE   D2A13152  14.604   1.630   6.504  0.1107  0.0923  0.0484
  900YOPE   C3A13153  14.919   1.472   6.883  0.0830  0.0278 -0.2711
  900YOPE   C4A13154  14.828   1.541   7.304  0.0208 -0.2105 -0.1292
  900YOPE   C1B13155  13.981   1.420   6.117 -0.1387  0.1674 -0.0363
  900YOPE   C2B13156  14.135   1.420   6.494 -0.1505  0.2622 -0.1153
  900YOPE   D3B13157  14.155   1.763   6.665  0.0932  0.2522 -0.2870
  900YOPE   C4B13158  14.360   2.111   6.577 -0.1826 -0.4273  0.1596
  901POPC   NC313159   1.101   2.200   5.458 -0.0791  0.0142  0.0703
  901POPC   PO413160   1.029   1.737   5.495 -0.1129  0.2050 -0.0240
  901POPC   GL113161   0.724   1.985   5.826 -0.1620  0.0416  0.1220
  901POPC   GL213162   0.876   2.182   5.933  0.1753 -0.1800 -0.0070
  901POPC   C1A13163   0.423   1.715   6.156  0.2576 -0.2850 -0.0825
  901POPC   D2A13164   0.290   1.686   6.570 -0.1558 -0.2004 -0.1909
  901POPC   C3A13165   0.263   1.477   6.973  0.0105 -0.0500 -0.0274
  901POPC   C4A13166   0.378   1.101   6.937  0.2206 -0.0423 -0.2392
  901POPC   C1B13167   0.860   1.957   6.294 -0.0062 -0.1449  0.2231
  901POPC   C2B13168   0.620   2.032   6.688 -0.1647 -0.1250  0.2607
  901POPC   C3B13169   0.347   2.044   7.032  0.0670  0.1784 -0.1536
  901POPC   C4B13170   0.104   1.990   7.338 -0.1417  0.0322 -0.1393
  902POPC   NC313171  15.362   5.104   5.178  0.3576 -0.0673  0.3623
  902POPC   PO413172  15.628   5.173   5.529 -0.1190 -0.3318  0.0819
  902POPC   GL113173  15.727   5.242   6.047 -0.3963  0.1533 -0.1642
  902POPC   GL213174  15.956   5.563   6.113  0.1206  0.1230 -0.0493
  902POPC   C1A13175  15.592   5.431   6.390 -0.0410 -0.1111  0.0301
  902POPC   D2A13176  15.726   5.578   6.848  0.1100  0.0968 -0.2240
  902POPC   C3A13177  15.480   5.897   7.057  0.2731  0.0128  0.2314
  902POPC   C4A13178  15.279   6.187   7.311  0.0394  0.0964  0.0058
  902POPC   C1B13179  16.047   5.871   6.547 -0.2387 -0.1983 -0.0377
  902POPC   C2B13180  15.916   6.093   6.920 -0.0486  0.2889  0.0843
  902POPC   C3B13181  15.896   5.940   7.356 -0.1798 -0.1994  0.2671
  902POPC   C4B13182  15.789   5.853   7.735 -0.1716  0.0511  0.1953
  903POPC   NC313183  12.319   8.466   5.198 -0.1897 -0.2289 -0.2497
  903POPC   PO413184  12.643   8.432   5.546 -0.2350  0.0144  0.0989
  903POPC   GL113185  12.599   8.476   5.993  0.2665 -0.2471  0.0995
  903POPC   GL213186  12.744   8.763   6.047 -0.1825  0.2469  0.2202
  903POPC   C1A13187  12.783   8.163   6.313 -0.1419 -0.1891 -0.0896
  903POPC   D2A13188  12.809   7.770   6.595  0.0474  0.1650 -0.2250
  903POPC   C3A13189  12.738   7.530   6.944  0.0308  0.2802 -0.0554
  903POPC   C4A13190  12.314   7.443   7.145  0.2353 -0.0013 -0.0950
  903POPC   C1B13191  13.029   8.824   6.371 -0.0604  0.3687  0.1398
  903POPC   C2B13192  12.857   9.073   6.790  0.0139 -0.0901  0.0634
  903POPC   C3B13193  12.807   9.401   7.107 -0.3161 -0.2029  0.0920
  903POPC   C4B13194  12.605   9.453   7.459 -0.1323  0.2435  0.1358
  904POPC   NC313195   3.671  16.598   5.557  0.1127  0.4453 -0.0193
  904POPC   PO413196   3.337  16.803   5.681 -0.0592 -0.0624 -0.1074
  904POPC   GL113197   3.518  16.789   6.078  0.2222  0.1548 -0.4322
  904POPC   GL213198   3.382  17.116   6.118  0.1953  0.1962  0.1701
  904POPC   C1A13199   3.696  16.928   6.410  0.1022  0.2419 -0.3665
  904POPC   D2A13200   3.849  16.840   6.707 -0.2160 -0.0252  0.1123
  904POPC   C3A13201   4.147  16.417   6.549  0.3176  0.3358 -0.0757
  904POPC   C4A13202   4.682  16.300   6.640 -0.1280  0.0826  0.3746
  904POPC   C1B13203   3.323  17.358   6.473 -0.0097 -0.3810 -0.2241
  904POPC   C2B13204   3.633  17.324   6.774  0.0124 -0.0980 -0.0496
  904POPC   C3B13205   4.039  17.421   6.976 -0.2885  0.0556  0.2741
  904POPC   C4B13206   4.449  17.314   7.258 -0.0845 -0.1618  0.1212
  905POPC   NC313207   4.085   1.328   5.510 -0.2725  0.2236 -0.1066
  905POPC   PO413208   4.344   0.967   5.568  0.1180 -0.0147  0.0169
  905POPC   GL113209   4.403   0.849   6.056 -0.2437 -0.0349 -0.0030
  905POPC   GL213210   4.298   0.504   6.187 -0.2929 -0.0733  0.2892
  905POPC   C1A13211   4.310   1.130   6.408 -0.1194  0.0637  0.0588
  905POPC   D2A13212   4.035   1.414   6.661 -0.0733 -0.0402 -0.0018
  905POPC   C3A13213   4.043   1.421   7.066  0.0233 -0.0636 -0.0058
  905POPC   C4A13214   4.020   1.673   7.450 -0.2602 -0.0326  0.1859
  905POPC   C1B13215   4.169   0.502   6.649  0.0416 -0.1056  0.0252
  905POPC   C2B13216   4.042   0.454   7.035 -0.0856 -0.3312 -0.0404
  905POPC   C3B13217   3.855   0.288   7.377 -0.2836 -0.0370 -0.4471
  905POPC   C4B13218   3.778  -0.015   7.697  0.2420 -0.1564 -0.1782
  906POPC   NC313219  13.075   8.219   5.727 -0.1750  0.3797  0.1521
  906POPC   PO413220  13.195   7.713   5.869  0.0682  0.2360 -0.3040
  906POPC   GL113221  13.438   8.018   6.042  0.0873 -0.1769 -0.2179
  906POPC   GL213222  13.728   8.131   6.036  0.1556  0.1772  0.0674
  906POPC   C1A13223  13.283   8.286   6.376  0.2002 -0.1345  0.0986
  906POPC   D2A13224  12.983   8.453   6.648 -0.1152  0.3105 -0.1603
  906POPC   C3A13225  13.107   8.650   6.898  0.0281 -0.1451 -0.0529
  906POPC   C4A13226  13.221   8.911   7.157  0.1416  0.2863 -0.0476
  906POPC   C1B13227  13.776   7.939   6.471 -0.1872 -0.1187  0.3532
  906POPC   C2B13228  13.464   7.831   6.828  0.0564  0.1102  0.2070
  906POPC   C3B13229  13.434   7.559   7.087 -0.1848 -0.1855  0.2265
  906POPC   C4B13230  13.084   7.368   7.312 -0.0153 -0.0224  0.1316
  907POPC   NC313231  18.750   6.364   5.822  0.0459  0.0093 -0.1419
  907POPC   PO413232  18.613   5.968   5.837 -0.4398  0.1521 -0.0511
  907POPC   GL113233  18.396   6.185   6.168 -0.0218  0.1793  0.0555
  907POPC   GL213234  18.461   6.532   6.223 -0.0200 -0.0628 -0.2359
  907POPC   C1A13235  18.112   6.075   6.488 -0.1477 -0.3121  0.0184
  907POPC   D2A13236  17.760   6.243   6.528 -0.3124  0.2222 -0.1419
  907POPC   C3A13237  17.728   6.600   6.760  0.0357 -0.1330  0.1303
  907POPC   C4A13238  17.937   6.909   7.148 -0.2560  0.0758 -0.1403
  907POPC   C1B13239  18.426   6.365   6.619 -0.2123  0.0903 -0.0036
  907POPC   C2B13240  18.591   6.263   7.078  0.0382  0.6014  0.1598
  907POPC   C3B13241  18.607   6.114   7.455 -0.3122  0.0372 -0.4296
  907POPC   C4B13242  18.626   6.011   7.889  0.2901  0.1421  0.0501
  908POPC   NC313243  17.269   5.311   5.328  0.1028  0.0714 -0.1328
  908POPC   PO413244  16.866   5.459   5.693  0.0371 -0.1731  0.0403
  908POPC   GL113245  17.015   5.263   6.053  0.0305 -0.0301 -0.5300
  908POPC   GL213246  17.166   4.927   6.159 -0.2575 -0.0723 -0.1922
  908POPC   C1A13247  16.894   5.337   6.405  0.0205  0.2816 -0.0151
  908POPC   D2A13248  16.810   5.199   6.879 -0.0854 -0.1417 -0.3213
  908POPC   C3A13249  16.839   4.934   7.155  0.1817 -0.1671 -0.0276
  908POPC   C4A13250  17.070   4.737   7.520 -0.0194  0.3233 -0.2040
  908POPC   C1B13251  16.897   4.811   6.371 -0.0390 -0.2510 -0.1687
  908POPC   C2B13252  16.544   4.972   6.530 -0.0438 -0.1315  0.1379
  908POPC   C3B13253  16.486   4.689   6.909  0.0032 -0.1123 -0.0152
  908POPC   C4B13254  16.523   4.607   7.374  0.0740  0.4042 -0.1358
  909POPC   NC313255  13.724   3.065   5.407 -0.0673  0.0615  0.0563
  909POPC   PO413256  13.302   3.170   5.475  0.1269  0.2378  0.1551
  909POPC   GL113257  13.128   3.257   5.912 -0.4336  0.2530 -0.0359
  909POPC   GL213258  13.069   2.959   5.943 -0.1611 -0.0028  0.2136
  909POPC   C1A13259  13.222   3.232   6.369  0.1130  0.0298 -0.0457
  909POPC   D2A13260  13.443   2.919   6.467 -0.0317  0.0650 -0.2212
  909POPC   C3A13261  13.218   2.497   6.560 -0.0765  0.2776 -0.0368
  909POPC   C4A13262  12.833   2.486   6.575  0.0327  0.0356 -0.0200
  909POPC   C1B13263  12.847   2.925   6.397 -0.2144 -0.0601  0.0018
  909POPC   C2B13264  12.625   2.921   6.809 -0.0771 -0.0761  0.0051
  909POPC   C3B13265  12.323   3.062   7.112 -0.1664  0.3521  0.0170
  909POPC   C4B13266  12.047   3.367   7.174 -0.3565 -0.4408  0.1052
  910POPC   NC313267  10.880   5.049   5.200  0.0705 -0.0256 -0.4240
  910POPC   PO413268  10.553   5.130   5.488 -0.0437  0.0155 -0.0562
  910POPC   GL113269  10.612   5.240   5.859 -0.2640  0.1669 -0.0621
  910POPC   GL213270  10.594   4.919   6.058 -0.0178 -0.1765  0.0820
  910POPC   C1A13271  10.616   5.391   6.267  0.1905  0.0735 -0.3120
  910POPC   D2A13272  10.514   5.219   6.665  0.1467 -0.2465 -0.2251
  910POPC   C3A13273  10.745   5.417   6.962  0.0757  0.2111  0.1963
  910POPC   C4A13274  10.965   5.478   7.393  0.1883 -0.0450  0.1415
  910POPC   C1B13275  10.678   4.789   6.407  0.1141 -0.3919 -0.0372
  910POPC   C2B13276  10.816   4.530   6.643 -0.1686 -0.1204 -0.3431
  910POPC   C3B13277  10.695   4.475   7.118 -0.2413 -0.0322  0.3700
  910POPC   C4B13278  10.433   4.160   7.418 -0.0576  0.0320  0.1483
  911POPC   NC313279   5.161  13.504   5.212  0.1467 -0.1079 -0.4012
  911POPC   PO413280   5.136  13.917   5.287 -0.1209 -0.0367  0.0426
  911POPC   GL113281   5.193  14.006   5.738  0.2692 -0.1422 -0.2177
  911POPC   GL213282   4.891  13.922   5.915  0.1070  0.2805 -0.3253
  911POPC   C1A13283   5.477  14.323   5.931 -0.3177  0.1091  0.1811
  911POPC   D2A13284   5.645  14.193   6.388 -0.2006  0.3029 -0.3269
  911POPC   C3A13285   5.753  14.442   6.671  0.1375  0.4240  0.0952
  911POPC   C4A13286   5.703  14.889   6.782  0.1381  0.2795 -0.1563
  911POPC   C1B13287   4.919  13.795   6.326 -0.1144 -0.0829  0.0638
  911POPC   C2B13288   4.775  13.763   6.736 -0.2760  0.0900  0.0098
  911POPC   C3B13289   4.397  14.131   6.915 -0.0831  0.1281  0.0794
  911POPC   C4B13290   4.426  14.651   7.081  0.4198 -0.3739  0.1990
  912POPC   NC313291  14.561  12.028   5.060  0.0334  0.3576 -0.1986
  912POPC   PO413292  14.893  11.600   5.105  0.3106 -0.0341  0.2824
  912POPC   GL113293  14.639  11.754   5.479 -0.0412 -0.2646  0.0193
  912POPC   GL213294  14.610  12.084   5.545  0.2813  0.2130  0.0963
  912POPC   C1A13295  14.501  11.732   5.912  0.2823 -0.0353 -0.1234
  912POPC   D2A13296  14.287  11.854   6.172 -0.2573 -0.0568 -0.0841
  912POPC   C3A13297  14.413  11.661   6.583 -0.2479 -0.3247  0.0192
  912POPC   C4A13298  14.452  11.619   7.107 -0.0475  0.0319  0.2591
  912POPC   C1B13299  14.572  12.371   5.744  0.0705 -0.1577 -0.0838
  912POPC   C2B13300  14.692  12.610   6.017  0.0600 -0.0920  0.1074
  912POPC   C3B13301  14.531  12.617   6.428  0.2954 -0.2111 -0.1796
  912POPC   C4B13302  14.265  12.500   6.838  0.0292  0.3492  0.1172
  913POPC   NC313303   0.087   4.897   5.591  0.2464 -0.1282  0.0511
  913POPC   PO413304  -0.001   5.322   5.680 -0.0936  0.3653 -0.2664
  913POPC   GL113305   0.084   5.085   6.047  0.0276 -0.0481  0.3838
  913POPC   GL213306   0.237   5.280   6.309  0.1357 -0.1151  0.1937
  913POPC   C1A13307  -0.094   4.957   6.426  0.1841 -0.0492  0.1028
  913POPC   D2A13308  -0.149   5.255   6.759  0.2829 -0.0508  0.0396
  913POPC   C3A13309  -0.334   5.032   7.076  0.3120  0.1113  0.0689
  913POPC   C4A13310  -0.715   4.998   7.235  0.2321  0.0091 -0.1472
  913POPC   C1B13311   0.318   5.058   6.803 -0.0861  0.1888  0.0994
  913POPC   C2B13312   0.170   5.240   7.197 -0.5422  0.3192  0.0568
  913POPC   C3B13313   0.194   5.134   7.640 -0.2825 -0.0365  0.0530
  913POPC   C4B13314   0.198   5.038   8.056 -0.1325 -0.1640  0.0813
  914POPC   NC313315  12.465  16.666   5.244  0.1444 -0.1149  0.1599
  914POPC   PO413316  12.376  17.082   5.348 -0.3058  0.3432  0.3393
  914POPC   GL113317  12.125  17.164   5.659  0.0712  0.1403 -0.1244
  914POPC   GL213318  12.352  17.368   5.852 -0.0363  0.3085 -0.2314
  914POPC   C1A13319  11.890  17.399   5.990  0.0291  0.0228  0.1512
  914POPC   D2A13320  11.800  17.266   6.362  0.0062  0.0490 -0.0152
  914POPC   C3A13321  11.670  17.448   6.736  0.0026 -0.1036  0.3141
  914POPC   C4A13322  11.628  17.288   7.149  0.2055 -0.0600  0.3146
  914POPC   C1B13323  12.495  17.089   6.103  0.2036 -0.0663 -0.2210
  914POPC   C2B13324  12.358  16.650   6.261 -0.3073  0.2295  0.3018
  914POPC   C3B13325  12.578  16.282   6.181 -0.4205  0.7072  0.0377
  914POPC   C4B13326  12.975  16.220   6.034  0.1273  0.2840  0.1146
  915POPC   NC313327   0.012   8.779   5.184  0.1383 -0.1323 -0.4435
  915POPC   PO413328   0.179   9.188   5.166 -0.3000 -0.1357 -0.1562
  915POPC   GL113329   0.277   9.462   5.577 -0.0062  0.0352  0.0640
  915POPC   GL213330   0.673   9.565   5.654  0.3456 -0.0085  0.2173
  915POPC   C1A13331   0.078   9.914   5.909 -0.1927 -0.1367  0.1375
  915POPC   D2A13332  -0.016  10.221   6.220 -0.0527 -0.1994 -0.1819
  915POPC   C3A13333  -0.370  10.354   6.420 -0.0233 -0.1192 -0.1277
  915POPC   C4A13334  -0.715  10.552   6.649 -0.2661  0.2747 -0.1935
  915POPC   C1B13335   0.502   9.649   6.086  0.1699  0.0190  0.0459
  915POPC   C2B13336   0.575   9.734   6.566  0.2431  0.0058  0.2422
  915POPC   C3B13337   0.934   9.795   6.808 -0.1281  0.0110  0.2155
  915POPC   C4B13338   0.919  10.063   7.219  0.3297 -0.2505  0.0172
  916POPC   NC313339   2.794   0.411   5.711 -0.1829 -0.3101 -0.0713
  916POPC   PO413340   2.518   0.105   5.729  0.0639 -0.1422 -0.1655
  916POPC   GL113341   2.177   0.165   6.140  0.0785 -0.0529  0.0898
  916POPC   GL213342   1.848   0.200   6.157 -0.0144 -0.4690  0.3654
  916POPC   C1A13343   2.192   0.476   6.357  0.0688  0.0117 -0.1935
  916POPC   D2A13344   2.251   0.711   6.765 -0.0418 -0.0361 -0.0632
  916POPC   C3A13345   2.095   0.802   7.087 -0.0686 -0.0134  0.0716
  916POPC   C4A13346   1.974   1.136   7.245 -0.1259 -0.0869 -0.1818
  916POPC   C1B13347   1.775   0.185   6.547  0.2139 -0.0187 -0.0627
  916POPC   C2B13348   1.824   0.239   7.048 -0.2762 -0.1504 -0.2146
  916POPC   C3B13349   2.055   0.026   7.368 -0.0378 -0.1067  0.2190
  916POPC   C4B13350   2.373  -0.263   7.474 -0.3919  0.2348 -0.0904
  917POPC   NC313351   8.928  16.810   4.849  0.0900 -0.0085 -0.0275
  917POPC   PO413352   8.457  17.033   5.024  0.0363 -0.0720 -0.1647
  917POPC   GL113353   8.474  16.799   5.499 -0.1136  0.1655  0.1884
  917POPC   GL213354   8.483  17.004   5.603 -0.0374 -0.1293  0.0283
  917POPC   C1A13355   8.448  16.555   5.849 -0.1907 -0.0974 -0.0285
  917POPC   D2A13356   8.434  16.340   6.201 -0.1028 -0.0430  0.1950
  917POPC   C3A13357   8.526  16.359   6.631 -0.0484  0.2571 -0.3223
  917POPC   C4A13358   8.751  16.265   7.049  0.1125  0.3712 -0.1340
  917POPC   C1B13359   8.304  17.032   6.011  0.0778 -0.0446 -0.1957
  917POPC   C2B13360   8.464  16.801   6.391  0.1722  0.2865  0.0120
  917POPC   C3B13361   8.523  16.816   6.859  0.1430 -0.1185  0.0846
  917POPC   C4B13362   8.887  16.723   7.087 -0.0262  0.1781 -0.0291
  918POPC   NC313363  15.413   1.696   5.255 -0.0212  0.5184  0.2402
  918POPC   PO413364  15.254   1.258   5.200 -0.1369 -0.3305 -0.1730
  918POPC   GL113365  15.234   1.305   5.624  0.0265 -0.1123 -0.0567
  918POPC   GL213366  15.057   1.564   5.712 -0.1856  0.3445  0.1269
  918POPC   C1A13367  15.013   1.208   6.068 -0.3663  0.1694 -0.1309
  918POPC   D2A13368  14.932   1.292   6.447 -0.0429  0.0507  0.2784
  918POPC   C3A13369  14.518   1.096   6.608 -0.0037 -0.2364 -0.0926
  918POPC   C4A13370  14.211   0.911   6.941 -0.0070  0.0280  0.0893
  918POPC   C1B13371  15.123   1.724   6.138 -0.0176 -0.1126 -0.3623
  918POPC   C2B13372  14.900   2.053   6.346  0.1169 -0.1751  0.0462
  918POPC   C3B13373  14.930   2.227   6.696  0.1511 -0.0784  0.0500
  918POPC   C4B13374  14.803   2.490   7.020 -0.1192 -0.2295  0.3216
  919POPC   NC313375   9.673  15.645   5.128  0.2439 -0.1284 -0.1201
  919POPC   PO413376   9.886  16.088   5.148  0.0633 -0.0661  0.0200
  919POPC   GL113377   9.954  16.206   5.551 -0.0162  0.0772  0.0863
  919POPC   GL213378   9.660  16.243   5.606 -0.1164 -0.2559  0.1753
  919POPC   C1A13379  10.032  16.530   5.921  0.1221 -0.0026  0.0168
  919POPC   D2A13380   9.964  16.701   6.319  0.1323  0.1285 -0.1988
  919POPC   C3A13381   9.902  16.699   6.737 -0.2552 -0.1027  0.1822
  919POPC   C4A13382  10.151  16.779   7.099 -0.2828  0.0227 -0.0153
  919POPC   C1B13383   9.807  16.084   6.041  0.1968  0.2072  0.0602
  919POPC   C2B13384  10.097  16.208   6.312 -0.0819  0.0762  0.1951
  919POPC   C3B13385  10.355  16.050   6.428 -0.0701  0.2048  0.2690
  919POPC   C4B13386  10.684  15.779   6.281  0.3496  0.1420 -0.1485
  920POPC   NC313387   0.109   8.090   5.983  0.1741 -0.1814 -0.1208
  920POPC   PO413388  -0.058   8.506   5.841 -0.1224 -0.2016  0.0294
  920POPC   GL113389   0.231   8.707   6.177  0.3148  0.0761  0.0123
  920POPC   GL213390   0.218   8.408   6.391  0.1084 -0.1398  0.1247
  920POPC   C1A13391   0.259   8.821   6.696  0.2397 -0.0559 -0.0283
  920POPC   D2A13392   0.167   8.757   7.045  0.0851  0.0819  0.0033
  920POPC   C3A13393  -0.017   9.144   7.149 -0.1971  0.3032  0.0346
  920POPC   C4A13394  -0.260   9.231   7.470 -0.0357 -0.2673 -0.3004
  920POPC   C1B13395   0.545   8.391   6.694 -0.0463 -0.0153  0.0254
  920POPC   C2B13396   0.614   8.451   7.094 -0.3337  0.2946 -0.3156
  920POPC   C3B13397   0.562   8.750   7.352 -0.4527  0.2204  0.0565
  920POPC   C4B13398   0.455   9.116   7.281  0.2065  0.1339  0.0515
  921POPC   NC313399   2.154  11.135   5.097  0.2666  0.1616 -0.0417
  921POPC   PO413400   2.255  10.696   4.988 -0.0954  0.1461  0.2902
  921POPC   GL113401   1.938  10.664   5.285  0.0880 -0.0107  0.3074
  921POPC   GL213402   2.083  10.897   5.490 -0.0383 -0.1504 -0.3322
  921POPC   C1A13403   1.837  10.464   5.655  0.1060  0.0322 -0.0508
  921POPC   D2A13404   1.938  10.533   6.092 -0.0245 -0.0420 -0.0670
  921POPC   C3A13405   2.215  10.792   6.365  0.0014 -0.0738 -0.3644
  921POPC   C4A13406   2.386  10.764   6.742  0.3376 -0.0366 -0.0159
  921POPC   C1B13407   2.293  10.830   5.817  0.1751  0.1009 -0.0566
  921POPC   C2B13408   2.556  11.018   5.982  0.1254  0.2728 -0.0799
  921POPC   C3B13409   2.649  11.081   6.375 -0.1776  0.2707 -0.1816
  921POPC   C4B13410   2.668  11.217   6.660 -0.0535 -0.0035 -0.0171
  922POPC   NC313411   5.798  12.845   5.081 -0.0080 -0.1354  0.1993
  922POPC   PO413412   5.442  13.091   5.217 -0.0008  0.2522  0.1368
  922POPC   GL113413   5.289  13.295   5.695 -0.0568  0.0225 -0.0059
  922POPC   GL213414   5.036  13.217   5.829 -0.2583  0.0241 -0.1733
  922POPC   C1A13415   5.376  13.620   5.928  0.2390  0.2883  0.1788
  922POPC   D2A13416   5.407  13.798   6.307 -0.0572  0.2191  0.1742
  922POPC   C3A13417   5.273  13.907   6.731  0.1686  0.3344  0.0821
  922POPC   C4A13418   5.284  14.110   7.081 -0.1133 -0.2887 -0.0400
  922POPC   C1B13419   5.251  12.884   6.073  0.3103  0.2421  0.0784
  922POPC   C2B13420   5.361  12.753   6.349  0.5407  0.0303 -0.4811
  922POPC   C3B13421   5.657  12.699   6.632  0.3151  0.0514 -0.1791
  922POPC   C4B13422   6.025  12.789   6.823  0.1247  0.2966 -0.0438
  923POPC   NC313423   3.106   2.764   5.482 -0.2634  0.1787 -0.2036
  923POPC   PO413424   3.055   2.504   5.887 -0.0122 -0.0553  0.1438
  923POPC   GL113425   3.211   2.352   6.245 -0.1386  0.2022 -0.3053
  923POPC   GL213426   3.174   2.055   6.250  0.1403 -0.0636 -0.1915
  923POPC   C1A13427   3.365   2.334   6.693 -0.0810  0.1935 -0.0205
  923POPC   D2A13428   3.183   2.254   7.039  0.3172  0.0563  0.3864
  923POPC   C3A13429   3.049   2.592   7.374  0.1673 -0.4128 -0.1239
  923POPC   C4A13430   2.835   3.016   7.486 -0.1515  0.0017  0.1386
  923POPC   C1B13431   3.124   1.897   6.691  0.1618 -0.0339  0.0737
  923POPC   C2B13432   3.203   1.768   7.110  0.0250  0.0983 -0.1871
  923POPC   C3B13433   3.107   2.010   7.476  0.2909  0.1713 -0.1224
  923POPC   C4B13434   3.001   1.720   7.833  0.0184 -0.0976  0.1190
  924POPC   NC313435   0.756   3.235   6.007 -0.6847  0.0963 -0.2037
  924POPC   PO413436   0.340   3.238   5.930 -0.0501 -0.0363  0.3993
  924POPC   GL113437   0.365   3.073   6.331  0.0372 -0.1359  0.2106
  924POPC   GL213438   0.574   2.737   6.471 -0.1775 -0.0043 -0.1040
  924POPC   C1A13439   0.588   3.169   6.662 -0.4375 -0.0580 -0.0245
  924POPC   D2A13440   0.809   3.405   6.954  0.1751 -0.3428  0.0242
  924POPC   C3A13441   0.569   3.369   7.388  0.0518  0.0389  0.0453
  924POPC   C4A13442   0.531   3.458   7.816  0.0217  0.4385 -0.2286
  924POPC   C1B13443   0.609   2.552   6.861  0.0639  0.1444 -0.1418
  924POPC   C2B13444   0.448   2.556   7.243 -0.0474 -0.2264  0.0220
  924POPC   C3B13445   0.100   2.833   7.417 -0.2644  0.0174 -0.0099
  924POPC   C4B13446  -0.164   3.063   7.125 -0.1417 -0.1000 -0.0787
  925POPC   NC313447  18.098   9.527   5.586 -0.2384 -0.2454 -0.1101
  925POPC   PO413448  17.762   9.105   5.513  0.1419 -0.3685  0.0532
  925POPC   GL113449  17.958   9.109   6.052  0.0734 -0.1582  0.0832
  925POPC   GL213450  18.254   9.084   6.042 -0.1302 -0.0059 -0.4617
  925POPC   C1A13451  17.780   9.237   6.397  0.2324  0.0561 -0.3001
  925POPC   D2A13452  17.950   9.355   6.875  0.0055  0.0679  0.1800
  925POPC   C3A13453  18.304   9.585   6.879  0.0721 -0.1715  0.0810
  925POPC   C4A13454  18.325   9.637   6.571 -0.2104  0.0063 -0.1436
  925POPC   C1B13455  18.378   8.756   6.226 -0.1506 -0.1100  0.1332
  925POPC   C2B13456  18.578   8.778   6.515 -0.1943  0.0535 -0.2261
  925POPC   C3B13457  18.497   8.542   6.938  0.0307  0.2303 -0.0463
  925POPC   C4B13458  18.318   8.556   7.346 -0.2735  0.3091  0.0031
  926POPC   NC313459  17.305  12.549   4.963  0.3747 -0.0166  0.1258
  926POPC   PO413460  17.347  12.749   5.245 -0.4913  0.1719  0.1492
  926POPC   GL113461  17.505  12.840   5.621 -0.1941 -0.1300  0.1242
  926POPC   GL213462  17.357  13.126   5.781  0.1026  0.0738 -0.0800
  926POPC   C1A13463  17.775  12.737   5.989 -0.0973  0.4313  0.0267
  926POPC   D2A13464  18.063  12.900   6.280 -0.1279 -0.2512 -0.0767
  926POPC   C3A13465  18.427  12.599   6.436 -0.3774 -0.2211  0.0668
  926POPC   C4A13466  18.747  12.358   6.531 -0.1555 -0.0413 -0.2023
  926POPC   C1B13467  17.260  12.787   6.152 -0.1112 -0.4343 -0.4066
  926POPC   C2B13468  17.561  12.558   6.437 -0.0008  0.2170  0.3062
  926POPC   C3B13469  18.007  12.516   6.695  0.2338 -0.1038 -0.2420
  926POPC   C4B13470  18.152  12.390   7.077  0.1380  0.2099  0.1255
  927POPC   NC313471   6.402   3.746   5.801 -0.1567 -0.2907 -0.0835
  927POPC   PO413472   5.999   3.565   5.947 -0.1583  0.0895  0.1161
  927POPC   GL113473   6.130   3.697   6.316 -0.0270 -0.4074  0.1795
  927POPC   GL213474   5.801   3.886   6.480 -0.2231 -0.2987  0.1202
  927POPC   C1A13475   6.374   3.361   6.647 -0.2162 -0.1784 -0.1558
  927POPC   D2A13476   6.680   3.072   6.709  0.0076  0.0585 -0.2674
  927POPC   C3A13477   6.897   2.977   7.163  0.1410  0.0742  0.3068
  927POPC   C4A13478   7.043   2.881   7.533  0.0581  0.1187 -0.2788
  927POPC   C1B13479   5.486   3.773   6.672 -0.0825 -0.3529  0.0678
  927POPC   C2B13480   5.364   3.647   7.059  0.0306 -0.0625  0.1549
  927POPC   C3B13481   5.454   3.588   7.472  0.1603 -0.1395  0.0808
  927POPC   C4B13482   5.259   3.684   7.877  0.3216  0.1728  0.0334
  928POPC   NC313483   9.399   0.673   5.548  0.1228 -0.3660 -0.2266
  928POPC   PO413484   9.615   0.970   5.313 -0.0071 -0.1241  0.4209
  928POPC   GL113485   9.933   0.967   5.640  0.3174  0.0372  0.0911
  928POPC   GL213486   9.875   0.707   5.764 -0.1163 -0.0382 -0.2494
  928POPC   C1A13487  10.031   1.176   6.120  0.1533  0.1562  0.2255
  928POPC   D2A13488  10.195   0.983   6.467 -0.4643 -0.1373 -0.1404
  928POPC   C3A13489  10.128   0.722   6.807  0.0114  0.1005  0.0597
  928POPC   C4A13490  10.278   0.339   6.839  0.0781  0.1593  0.2231
  928POPC   C1B13491  10.127   0.660   6.066  0.1367  0.2777  0.1593
  928POPC   C2B13492   9.988   0.272   6.375 -0.1435  0.1327 -0.0957
  928POPC   C3B13493   9.807   0.276   6.794 -0.2787 -0.5042 -0.1023
  928POPC   C4B13494  10.008   0.338   7.293 -0.2733  0.2529  0.1125
  929POPC   NC313495   1.061  13.815   4.976 -0.1000  0.2429  0.0563
  929POPC   PO413496   0.818  14.048   5.351 -0.1322 -0.0863  0.1854
  929POPC   GL113497   0.816  14.169   5.652  0.0998 -0.0864  0.2515
  929POPC   GL213498   0.590  14.350   5.731  0.0072 -0.0318 -0.0070
  929POPC   C1A13499   0.881  14.095   6.166  0.0002  0.0830 -0.2773
  929POPC   D2A13500   0.980  13.975   6.628  0.0937 -0.2262 -0.3206
  929POPC   C3A13501   0.642  14.304   6.861  0.0631  0.0122 -0.0350
  929POPC   C4A13502   0.212  14.439   7.071  0.1082 -0.1430 -0.0995
  929POPC   C1B13503   0.710  14.772   5.784  0.0417 -0.0962 -0.1460
  929POPC   C2B13504   0.861  15.244   5.791 -0.0661  0.2423  0.0652
  929POPC   C3B13505   1.085  15.583   5.842  0.1779  0.3447  0.0734
  929POPC   C4B13506   1.021  15.972   6.076  0.2060 -0.0007 -0.0542
  930POPC   NC313507   5.025  16.505   4.957 -0.0499  0.0352  0.1052
  930POPC   PO413508   4.750  16.254   5.032 -0.1247 -0.1969  0.0642
  930POPC   GL113509   4.770  16.436   5.463 -0.2418  0.2043 -0.2237
  930POPC   GL213510   4.704  16.179   5.605  0.0673  0.2133 -0.2996
  930POPC   C1A13511   5.102  16.383   5.807  0.2382 -0.0120 -0.1025
  930POPC   D2A13512   5.390  16.491   6.061  0.1308  0.0323 -0.1038
  930POPC   C3A13513   5.345  16.578   6.472 -0.1626 -0.4811 -0.3909
  930POPC   C4A13514   5.168  16.688   6.759 -0.2083  0.2644  0.2445
  930POPC   C1B13515   5.134  15.897   5.692  0.1659 -0.0605  0.0123
  930POPC   C2B13516   5.305  15.692   6.038 -0.2289  0.3448 -0.0692
  930POPC   C3B13517   5.430  15.380   6.268 -0.0310  0.1843 -0.0171
  930POPC   C4B13518   5.513  15.284   6.641  0.1719 -0.2230 -0.1504
  931POPC   NC313519   6.704  15.908   4.935  0.5660  0.0942 -0.2568
  931POPC   PO413520   6.602  15.553   4.750  0.2132 -0.0106  0.1016
  931POPC   GL113521   6.506  15.461   5.190 -0.1834  0.0812  0.3354
  931POPC   GL213522   6.138  15.301   5.212 -0.0393 -0.0669  0.1192
  931POPC   C1A13523   6.453  15.354   5.652 -0.0253  0.0534  0.0331
  931POPC   D2A13524   6.244  14.979   6.005  0.0531  0.0084 -0.0446
  931POPC   C3A13525   6.389  14.761   6.302  0.1472  0.0126 -0.1243
  931POPC   C4A13526   6.259  14.610   6.739  0.2640 -0.4873  0.1115
  931POPC   C1B13527   6.204  14.980   5.453 -0.0177 -0.1704 -0.2186
  931POPC   C2B13528   6.619  14.791   5.635  0.1712  0.0658 -0.0475
  931POPC   C3B13529   6.668  14.521   5.907 -0.1330 -0.0315  0.0133
  931POPC   C4B13530   6.616  14.348   6.401  0.1915  0.1006  0.0394
  932POPC   NC313531   8.178  15.098   4.667  0.0536  0.2268 -0.1147
  932POPC   PO413532   8.533  15.163   4.837  0.0338 -0.1012  0.1631
  932POPC   GL113533   8.178  15.189   5.261  0.0620 -0.0031 -0.4890
  932POPC   GL213534   8.457  15.333   5.336  0.4580 -0.0768  0.1579
  932POPC   C1A13535   8.164  14.970   5.700 -0.0922 -0.4292 -0.2079
  932POPC   D2A13536   8.215  14.745   5.922  0.0508 -0.1664  0.0729
  932POPC   C3A13537   8.144  14.721   6.353  0.2604  0.2472  0.2142
  932POPC   C4A13538   8.274  14.621   6.766 -0.0067 -0.3644 -0.1160
  932POPC   C1B13539   8.449  15.333   5.785  0.0811  0.1555  0.3716
  932POPC   C2B13540   8.388  15.128   6.326 -0.2374  0.1068  0.2603
  932POPC   C3B13541   8.456  15.073   6.802  0.1960  0.0971  0.0970
  932POPC   C4B13542   8.697  14.748   7.103  0.1865 -0.1672 -0.4035
  933POPC   NC313543  16.169   1.737   5.263 -0.0977 -0.1326 -0.2753
  933POPC   PO413544  15.969   2.040   5.442  0.3865 -0.1168 -0.4064
  933POPC   GL113545  16.197   2.219   5.742  0.1918 -0.0054 -0.0840
  933POPC   GL213546  15.860   2.289   5.984 -0.1585 -0.1391  0.1336
  933POPC   C1A13547  16.333   2.147   6.130  0.0061 -0.3617  0.2764
  933POPC   D2A13548  16.324   1.746   6.356 -0.0497 -0.0896 -0.0684
  933POPC   C3A13549  16.175   1.385   6.724  0.1608 -0.1368  0.2575
  933POPC   C4A13550  15.984   1.333   7.273 -0.0306  0.1457 -0.0067
  933POPC   C1B13551  15.818   2.310   6.455 -0.1854  0.0941 -0.1003
  933POPC   C2B13552  15.774   2.414   6.889 -0.0298 -0.2227 -0.2695
  933POPC   C3B13553  15.549   2.184   7.118 -0.0508 -0.0971 -0.0671
  933POPC   C4B13554  15.596   1.768   7.337  0.2645  0.0440 -0.0277
  934POPC   NC313555   7.128   9.484   5.290  0.1949 -0.2705 -0.1035
  934POPC   PO413556   6.859   9.903   5.004 -0.2118 -0.0846  0.1289
  934POPC   GL113557   6.756   9.993   5.536  0.0523  0.0583 -0.0898
  934POPC   GL213558   6.454  10.138   5.578  0.3491 -0.2815  0.2704
  934POPC   C1A13559   6.802  10.038   5.967  0.4427 -0.2739 -0.1627
  934POPC   D2A13560   6.861  10.055   6.354 -0.1177 -0.1853 -0.3099
  934POPC   C3A13561   7.176   9.829   6.606  0.1560  0.0531 -0.3160
  934POPC   C4A13562   7.207   9.674   6.958  0.3513 -0.1730 -0.0676
  934POPC   C1B13563   6.038  10.049   5.780  0.1088  0.3472 -0.3020
  934POPC   C2B13564   5.714   9.961   6.061  0.2226  0.0325 -0.0676
  934POPC   C3B13565   5.385  10.026   6.329  0.2448 -0.1120  0.1810
  934POPC   C4B13566   5.029   9.822   6.586 -0.1771  0.1136 -0.2507
  935POPC   NC313567  16.902  14.656   5.157  0.1435  0.1301  0.2691
  935POPC   PO413568  17.126  14.434   5.368  0.0246 -0.3014  0.1654
  935POPC   GL113569  17.354  14.375   5.757 -0.1242  0.0891 -0.1664
  935POPC   GL213570  17.091  14.190   5.954  0.2536 -0.1356  0.0298
  935POPC   C1A13571  17.385  14.421   6.282 -0.1328 -0.3625 -0.1424
  935POPC   D2A13572  17.480  14.236   6.728 -0.1566  0.2502 -0.3485
  935POPC   C3A13573  17.659  14.372   7.135 -0.1407  0.0626 -0.0314
  935POPC   C4A13574  17.591  14.337   7.653 -0.0014  0.2165  0.1129
  935POPC   C1B13575  17.020  14.052   6.409 -0.1731 -0.3182  0.0573
  935POPC   C2B13576  17.218  13.845   6.741 -0.1429 -0.2550 -0.1883
  935POPC   C3B13577  17.515  13.820   6.972 -0.1799 -0.2948  0.0620
  935POPC   C4B13578  17.795  13.551   6.985  0.2369  0.3988  0.0724
  936POPC   NC313579   8.495   1.388   5.218 -0.0928  0.0478 -0.0328
  936POPC   PO413580   8.449   1.222   5.652  0.1278  0.2584  0.0262
  936POPC   GL113581   8.582   0.958   5.974  0.1400  0.0257 -0.2699
  936POPC   GL213582   8.342   0.905   6.084 -0.1809  0.1090  0.0009
  936POPC   C1A13583   9.000   0.897   6.100  0.0271 -0.0433  0.0579
  936POPC   D2A13584   9.210   0.580   6.344  0.0482 -0.0345  0.2028
  936POPC   C3A13585   9.343   0.633   6.781  0.4958  0.0992 -0.3129
  936POPC   C4A13586   9.308   1.007   7.087 -0.2520  0.3445  0.3232
  936POPC   C1B13587   8.150   0.812   6.400 -0.1234  0.1213  0.2223
  936POPC   C2B13588   8.334   0.762   6.748  0.2628  0.3319  0.0907
  936POPC   C3B13589   8.520   0.875   7.142  0.1444  0.0719 -0.3634
  936POPC   C4B13590   8.872   1.006   7.261 -0.1430 -0.1732 -0.0071
  937POPC   NC313591   5.021  18.607   5.367  0.2693 -0.2915  0.2881
  937POPC   PO413592   4.765  18.151   5.397 -0.1578 -0.3522 -0.0766
  937POPC   GL113593   4.543  18.321   5.725 -0.2349  0.1558  0.1733
  937POPC   GL213594   4.177  18.288   5.593  0.1254  0.5245  0.1041
  937POPC   C1A13595   4.671  18.531   6.139  0.0835 -0.4991  0.2531
  937POPC   D2A13596   4.564  18.464   6.565 -0.0075  0.0236 -0.1061
  937POPC   C3A13597   4.636  18.705   6.909  0.0531 -0.0964  0.2495
  937POPC   C4A13598   4.689  18.815   7.228 -0.0832  0.1370  0.1657
  937POPC   C1B13599   4.210  18.348   6.085 -0.0741  0.0002 -0.2415
  937POPC   C2B13600   4.059  18.279   6.456 -0.1238 -0.0493  0.1093
  937POPC   C3B13601   3.647  18.197   6.755 -0.0219 -0.2232 -0.0713
  937POPC   C4B13602   3.413  18.280   7.172 -0.1084 -0.1066 -0.1005
  938POPC   NC313603   3.204  10.102   5.211  0.0411 -0.0049  0.2552
  938POPC   PO413604   3.561   9.843   5.272  0.1131  0.1913 -0.2490
  938POPC   GL113605   3.574  10.068   5.652  0.0240  0.3974  0.2774
  938POPC   GL213606   3.545  10.355   5.420 -0.1080 -0.0062 -0.0242
  938POPC   C1A13607   3.396  10.322   5.876 -0.0729  0.1866  0.4525
  938POPC   D2A13608   3.378  10.500   6.276 -0.0623 -0.1197 -0.2481
  938POPC   C3A13609   3.621  10.678   6.507  0.0387 -0.0580  0.3214
  938POPC   C4A13610   4.059  10.900   6.537 -0.1636 -0.1799 -0.3023
  938POPC   C1B13611   3.846  10.510   5.608 -0.0491 -0.1409 -0.2586
  938POPC   C2B13612   4.128  10.745   5.650 -0.0710 -0.2705  0.0478
  938POPC   C3B13613   4.283  11.099   6.010 -0.2546  0.0910 -0.1447
  938POPC   C4B13614   4.442  11.214   6.491  0.0242 -0.1421  0.1728
  939POPC   NC313615   8.842   2.373   5.068 -0.0756 -0.2567 -0.1523
  939POPC   PO413616   8.668   2.406   5.488 -0.1975  0.1803  0.1678
  939POPC   GL113617   8.794   2.280   5.942  0.1281  0.2499  0.0138
  939POPC   GL213618   8.971   2.376   6.191 -0.3495 -0.2692  0.1534
  939POPC   C1A13619   8.416   2.353   6.211  0.2116  0.2267 -0.0482
  939POPC   D2A13620   8.254   2.383   6.628 -0.1574  0.2499  0.1103
  939POPC   C3A13621   8.226   2.272   7.166  0.4509 -0.3000 -0.1736
  939POPC   C4A13622   7.906   2.210   7.474  0.0352  0.0986 -0.1374
  939POPC   C1B13623   8.776   2.390   6.615  0.0738  0.1749  0.1488
  939POPC   C2B13624   8.582   2.593   7.003 -0.4799  0.0441 -0.0515
  939POPC   C3B13625   8.368   2.792   7.378 -0.3422  0.1706 -0.2743
  939POPC   C4B13626   7.922   2.751   7.454 -0.0868 -0.0736  0.0881
  940POPC   NC313627  18.582  15.338   5.178 -0.1748  0.0849  0.0634
  940POPC   PO413628  18.992  15.264   5.342  0.2045 -0.0083 -0.1961
  940POPC   GL113629  19.183  15.314   5.756 -0.0169 -0.1509 -0.0187
  940POPC   GL213630  19.113  15.658   5.865 -0.1721 -0.1676  0.1207
  940POPC   C1A13631  19.471  14.946   5.908  0.1776 -0.2669  0.2259
  940POPC   D2A13632  19.420  14.630   6.077 -0.0845  0.0837 -0.3819
  940POPC   C3A13633  19.846  14.531   6.187 -0.0716 -0.0730 -0.3431
  940POPC   C4A13634  20.113  14.559   6.492  0.0500 -0.1595  0.0399
  940POPC   C1B13635  19.203  15.839   6.178 -0.1537 -0.0085 -0.0260
  940POPC   C2B13636  19.265  15.756   6.559  0.1819  0.1877 -0.4917
  940POPC   C3B13637  19.153  15.593   6.879 -0.1963  0.5308 -0.2446
  940POPC   C4B13638  19.336  15.550   7.253 -0.1256  0.1743 -0.3403
  941YOPC   NC313639   4.831   3.565   5.482 -0.0342  0.3001 -0.1273
  941YOPC   PO413640   4.656   3.783   5.867 -0.1846 -0.1208 -0.4226
  941YOPC   GL113641   4.630   3.722   6.321 -0.2609 -0.0965 -0.1967
  941YOPC   GL213642   4.628   4.134   6.426 -0.2482  0.0169  0.3166
  941YOPC   C1A13643   4.755   3.798   6.713 -0.1940 -0.3561 -0.0957
  941YOPC   D2A13644   5.014   4.023   6.974  0.1075 -0.0707  0.2348
  941YOPC   C3A13645   4.999   3.996   7.396 -0.1089 -0.2342  0.0230
  941YOPC   C4A13646   4.816   3.729   7.669  0.0066  0.2362 -0.4421
  941YOPC   C1B13647   4.490   4.320   6.774 -0.3287  0.3134 -0.1042
  941YOPC   C2B13648   4.731   4.421   7.165  0.1276 -0.0534 -0.1494
  941YOPC   D3B13649   4.772   4.362   7.629 -0.3354  0.1014 -0.1089
  941YOPC   C4B13650   4.939   4.154   7.919 -0.1526 -0.2806 -0.0561
  942YOPC   NC313651  15.236   8.293   5.123  0.1417  0.0439  0.4646
  942YOPC   PO413652  15.454   8.018   5.472 -0.1209 -0.0481  0.0604
  942YOPC   GL113653  15.338   8.085   5.946 -0.1946  0.0194 -0.2066
  942YOPC   GL213654  15.136   7.861   6.196 -0.3219  0.3036  0.1321
  942YOPC   C1A13655  15.607   8.022   6.333  0.1357  0.1792  0.0682
  942YOPC   D2A13656  15.580   7.754   6.494  0.0897  0.0043  0.0876
  942YOPC   C3A13657  15.751   7.842   6.857 -0.2427  0.1144 -0.1951
  942YOPC   C4A13658  15.893   7.999   7.209  0.3259 -0.1731 -0.1515
  942YOPC   C1B13659  15.140   7.476   6.571  0.0754  0.2580 -0.3214
  942YOPC   C2B13660  15.363   7.309   6.768 -0.4158 -0.0969 -0.0271
  942YOPC   D3B13661  15.740   7.267   6.548  0.1105  0.2704 -0.2850
  942YOPC   C4B13662  16.143   7.371   6.688 -0.0421  0.0441 -0.0283
  943YOPC   NC313663   4.003  11.495   5.038  0.1548  0.1994  0.0875
  943YOPC   PO413664   3.928  11.946   5.024 -0.1715 -0.0243 -0.1463
  943YOPC   GL113665   3.833  11.821   5.493  0.0844 -0.0431 -0.0317
  943YOPC   GL213666   3.493  11.820   5.474 -0.0701  0.0136 -0.1616
  943YOPC   C1A13667   3.842  11.734   5.972  0.0346  0.0952  0.1157
  943YOPC   D2A13668   4.060  11.544   6.323 -0.0466 -0.4943  0.0298
  943YOPC   C3A13669   3.898  11.445   6.719  0.0933  0.1622 -0.0873
  943YOPC   C4A13670   3.580  11.537   7.026  0.0447 -0.1641 -0.2908
  943YOPC   C1B13671   3.230  11.431   5.619 -0.2345 -0.0132  0.1297
  943YOPC   C2B13672   3.051  11.183   5.833  0.0607 -0.2080 -0.1311
  943YOPC   D3B13673   3.079  10.936   6.193 -0.0637  0.2514 -0.1687
  943YOPC   C4B13674   3.140  10.822   6.636 -0.2408  0.3440 -0.0176
  944YOPC   NC313675   2.058  17.367   4.960 -0.0372 -0.1364 -0.2224
  944YOPC   PO413676   2.049  17.575   5.284  0.3210 -0.3727  0.2008
  944YOPC   GL113677   1.788  17.529   5.679  0.0957  0.0021 -0.1339
  944YOPC   GL213678   2.063  17.599   5.864 -0.0640  0.1688  0.1156
  944YOPC   C1A13679   1.697  17.361   6.051  0.2107  0.1248  0.1713
  944YOPC   D2A13680   1.711  17.405   6.549 -0.0095  0.1693 -0.0465
  944YOPC   C3A13681   1.685  17.597   6.824 -0.1951  0.2228 -0.2374
  944YOPC   C4A13682   1.660  17.956   6.872 -0.3398  0.2938 -0.4677
  944YOPC   C1B13683   2.035  17.745   6.251  0.0863 -0.1950  0.2605
  944YOPC   C2B13684   2.098  17.982   6.653  0.0215  0.3646 -0.0008
  944YOPC   D3B13685   2.518  17.864   6.735  0.0796  0.1895 -0.1483
  944YOPC   C4B13686   2.881  17.683   6.684 -0.0542  0.0652  0.0412
  945YOPC   NC313687   5.025  12.194   4.961  0.1249  0.0901  0.2054
  945YOPC   PO413688   5.006  11.745   4.834 -0.2701 -0.2847  0.0661
  945YOPC   GL113689   4.825  11.688   5.232 -0.1830  0.1095 -0.1962
  945YOPC   GL213690   5.030  11.673   5.608 -0.0423 -0.2211 -0.0286
  945YOPC   C1A13691   4.459  11.679   5.438  0.3132  0.0254  0.0277
  945YOPC   D2A13692   4.389  11.991   5.765  0.0498 -0.0314  0.1404
  945YOPC   C3A13693   4.367  12.050   6.172  0.0089  0.0743 -0.0944
  945YOPC   C4A13694   4.328  12.366   6.416  0.0646  0.0446 -0.0034
  945YOPC   C1B13695   4.892  11.826   5.958 -0.1174  0.1076  0.1038
  945YOPC   C2B13696   4.902  11.943   6.391 -0.0611 -0.3974  0.2499
  945YOPC   D3B13697   5.204  12.200   6.396 -0.0214 -0.0975  0.0871
  945YOPC   C4B13698   5.616  12.121   6.359 -0.3273 -0.2456  0.2689
  946YOPC   NC313699   6.005   2.635   5.661  0.0843 -0.0217  0.1053
  946YOPC   PO413700   6.071   3.093   5.740 -0.0713 -0.0395 -0.1378
  946YOPC   GL113701   5.910   3.035   6.085  0.1962  0.1954  0.2000
  946YOPC   GL213702   6.131   3.066   6.234 -0.1944  0.0286  0.0758
  946YOPC   C1A13703   5.851   2.737   6.480  0.1344 -0.3307 -0.1217
  946YOPC   D2A13704   5.908   2.749   6.952 -0.0892  0.0205  0.1706
  946YOPC   C3A13705   6.355   2.878   7.035  0.2480  0.0187 -0.0522
  946YOPC   C4A13706   6.520   3.288   7.217 -0.2123 -0.0830  0.0190
  946YOPC   C1B13707   6.345   2.799   6.487  0.1049 -0.0456  0.0643
  946YOPC   C2B13708   6.635   2.578   6.750 -0.2840  0.2213 -0.2855
  946YOPC   D3B13709   6.594   2.394   7.198 -0.3515 -0.1235 -0.0701
  946YOPC   C4B13710   6.429   2.173   7.544 -0.1938 -0.0765 -0.2186
  947YOPC   NC313711   5.913   9.212   5.250  0.0522  0.1376 -0.2647
  947YOPC   PO413712   6.274   9.253   5.162  0.1853 -0.0525 -0.1904
  947YOPC   GL113713   6.353   9.445   5.528 -0.0995  0.2702 -0.1837
  947YOPC   GL213714   6.691   9.500   5.639  0.1782 -0.4072  0.1802
  947YOPC   C1A13715   6.385   9.751   6.000 -0.0922 -0.0319  0.1749
  947YOPC   D2A13716   6.479   9.659   6.425 -0.0304  0.1521  0.1178
  947YOPC   C3A13717   6.789   9.511   6.703 -0.4056  0.1615  0.3229
  947YOPC   C4A13718   7.069   9.124   6.660 -0.0185 -0.1383  0.0558
  947YOPC   C1B13719   6.464   9.236   6.008  0.2217  0.0156 -0.4294
  947YOPC   C2B13720   6.264   9.244   6.442 -0.3575  0.0553  0.0015
  947YOPC   D3B13721   6.269   9.588   6.867 -0.2014  0.0046  0.1592
  947YOPC   C4B13722   6.224   9.667   7.404  0.0164  0.1486  0.1694
  948YOPC   NC313723  15.877  10.477   4.845 -0.0542 -0.1408  0.0406
  948YOPC   PO413724  15.516  10.362   5.186  0.1706 -0.0488 -0.0338
  948YOPC   GL113725  15.581  10.411   5.559 -0.1565  0.0239 -0.3568
  948YOPC   GL213726  15.933  10.561   5.683 -0.0205 -0.1783  0.1786
  948YOPC   C1A13727  15.566  10.487   5.970  0.0303  0.0559  0.2709
  948YOPC   D2A13728  15.615  10.563   6.389 -0.3376  0.2594 -0.3016
  948YOPC   C3A13729  15.560  10.822   6.793 -0.0679 -0.2766  0.0050
  948YOPC   C4A13730  15.300  10.949   6.955 -0.1542  0.2242  0.0147
  948YOPC   C1B13731  15.891  10.886   6.008  0.3563  0.0970 -0.1945
  948YOPC   C2B13732  15.877  11.119   6.413 -0.1061 -0.3668  0.0977
  948YOPC   D3B13733  15.760  11.524   6.256  0.2107  0.0436 -0.0397
  948YOPC   C4B13734  15.566  11.821   5.975  0.0203  0.2762  0.0474
  949YOPC   NC313735   7.036   8.581   5.554  0.0299  0.1713  0.0175
  949YOPC   PO413736   7.193   8.973   5.371  0.0732  0.0008 -0.2585
  949YOPC   GL113737   7.380   8.877   5.832 -0.0798 -0.1862 -0.1710
  949YOPC   GL213738   7.298   8.638   5.940 -0.4379  0.1196 -0.3792
  949YOPC   C1A13739   7.330   9.196   6.203 -0.1043  0.3429 -0.0331
  949YOPC   D2A13740   7.459   9.458   6.514  0.0820 -0.3738 -0.0096
  949YOPC   C3A13741   7.555   9.298   6.877  0.2504  0.2623  0.1565
  949YOPC   C4A13742   7.254   9.111   7.264  0.3363  0.0338  0.0244
  949YOPC   C1B13743   7.428   8.762   6.383 -0.0175 -0.1048  0.1194
  949YOPC   C2B13744   7.405   8.764   6.881 -0.0825 -0.2233  0.2586
  949YOPC   D3B13745   7.147   8.564   7.218 -0.1858  0.0160  0.2758
  949YOPC   C4B13746   7.196   8.229   7.530  0.0692  0.2005  0.0653
  950YOPC   NC313747  14.416  15.273   4.594 -0.0615 -0.1213 -0.0907
  950YOPC   PO413748  14.055  15.206   4.971  0.1188  0.0744 -0.2402
  950YOPC   GL113749  14.122  15.216   5.471  0.0529 -0.1018 -0.2276
  950YOPC   GL213750  13.835  15.183   5.675 -0.2099 -0.2091  0.0484
  950YOPC   C1A13751  14.165  14.844   5.757 -0.4020  0.2444  0.5230
  950YOPC   D2A13752  14.412  14.810   6.191  0.1489 -0.0334 -0.1967
  950YOPC   C3A13753  14.505  15.008   6.588 -0.0574  0.0024 -0.0981
  950YOPC   C4A13754  14.856  14.837   6.906 -0.2640  0.1407 -0.0006
  950YOPC   C1B13755  13.978  15.227   6.126  0.2004  0.3396  0.2334
  950YOPC   C2B13756  14.030  15.241   6.536  0.0222  0.0136  0.2948
  950YOPC   D3B13757  13.642  15.453   6.720  0.2998  0.0738 -0.0885
  950YOPC   C4B13758  13.289  15.526   6.379 -0.1623 -0.2266  0.0885
  951YOPC   NC313759   1.866   7.699   5.263 -0.1636 -0.1858 -0.0553
  951YOPC   PO413760   1.820   7.361   5.494  0.0430  0.4231 -0.2784
  951YOPC   GL113761   1.949   7.411   5.962  0.2502  0.0887 -0.0170
  951YOPC   GL213762   2.306   7.468   6.058 -0.0039 -0.3021  0.3132
  951YOPC   C1A13763   1.914   7.295   6.367 -0.1923 -0.4015  0.1697
  951YOPC   D2A13764   1.861   7.253   6.739  0.0670  0.1142  0.4451
  951YOPC   C3A13765   2.013   6.875   6.602 -0.0396  0.1437  0.0577
  951YOPC   C4A13766   2.445   6.553   6.622  0.0656  0.0611  0.1892
  951YOPC   C1B13767   2.491   7.573   6.475 -0.1588  0.2445  0.0959
  951YOPC   C2B13768   2.679   7.735   6.866  0.1177 -0.0952 -0.0584
  951YOPC   D3B13769   2.344   8.035   7.035 -0.3262 -0.1809  0.0280
  951YOPC   C4B13770   2.122   8.420   7.227  0.0222  0.1358  0.0149
  952YOPC   NC313771   1.566   0.468   5.657 -0.5013  0.1810  0.3287
  952YOPC   PO413772   1.507   0.030   5.736 -0.0035  0.1260  0.0637
  952YOPC   GL113773   1.257  -0.101   6.021 -0.0071 -0.0023 -0.0691
  952YOPC   GL213774   1.064  -0.155   5.783  0.2905  0.1193  0.1060
  952YOPC   C1A13775   1.314  -0.196   6.531 -0.0383 -0.2474  0.2655
  952YOPC   D2A13776   1.428  -0.251   6.936 -0.0398 -0.1789  0.0536
  952YOPC   C3A13777   1.575  -0.107   7.329  0.1342  0.0314 -0.0121
  952YOPC   C4A13778   1.260  -0.037   7.632 -0.3361  0.1247  0.2243
  952YOPC   C1B13779   0.765   0.069   6.094  0.0887 -0.3204  0.1523
  952YOPC   C2B13780   0.824   0.457   6.335  0.1031  0.1553 -0.0087
  952YOPC   D3B13781   0.950   0.806   6.572 -0.0898  0.0239  0.0305
  952YOPC   C4B13782   1.357   0.974   6.521 -0.0893 -0.1200  0.0652
  953YOPC   NC313783  13.895   6.415   5.460 -0.4835  0.0067  0.1541
  953YOPC   PO413784  13.850   5.911   5.414 -0.2620 -0.3056 -0.1957
  953YOPC   GL113785  13.758   5.895   5.850 -0.0491 -0.2145 -0.0842
  953YOPC   GL213786  13.964   6.092   6.083 -0.0195 -0.0720 -0.2616
  953YOPC   C1A13787  13.686   5.763   6.317 -0.1291  0.1222 -0.0736
  953YOPC   D2A13788  13.692   5.604   6.659 -0.0146 -0.0469 -0.4165
  953YOPC   C3A13789  13.511   5.235   6.844 -0.1111  0.3109  0.1544
  953YOPC   C4A13790  13.595   4.824   7.036  0.1673 -0.0234 -0.0998
  953YOPC   C1B13791  13.937   6.159   6.513 -0.2139  0.1990 -0.0744
  953YOPC   C2B13792  13.764   6.098   6.919 -0.2957  0.0023  0.5249
  953YOPC   D3B13793  13.389   5.881   6.979 -0.4832 -0.1300 -0.2278
  953YOPC   C4B13794  13.305   5.508   7.221  0.0117 -0.1094 -0.3190
  954YOPC   NC313795   2.369   0.491   5.461  0.1121 -0.0837  0.0625
  954YOPC   PO413796   2.024   0.453   5.725  0.0654 -0.0260 -0.0977
  954YOPC   GL113797   2.332   0.593   5.946  0.2299 -0.1936  0.0155
  954YOPC   GL213798   2.581   0.554   6.102  0.2148  0.4524 -0.1653
  954YOPC   C1A13799   2.217   0.935   6.255  0.0749 -0.0405  0.1097
  954YOPC   D2A13800   1.939   1.130   6.533  0.1673  0.0519  0.0121
  954YOPC   C3A13801   1.611   1.194   6.872 -0.0400  0.1871 -0.0603
  954YOPC   C4A13802   1.449   1.218   7.216 -0.0572 -0.0538 -0.1132
  954YOPC   C1B13803   2.704   0.640   6.556 -0.0184  0.0020  0.3124
  954YOPC   C2B13804   2.800   0.569   6.907  0.2861  0.0043  0.3881
  954YOPC   D3B13805   2.505   0.533   7.288 -0.0400  0.3196  0.0782
  954YOPC   C4B13806   2.404   0.341   7.701  0.0733  0.1263  0.1336
  955YOPC   NC313807   2.174  18.057   5.382  0.3094 -0.0412  0.2709
  955YOPC   PO413808   2.053  18.536   5.572 -0.1503 -0.0678  0.1224
  955YOPC   GL113809   2.189  18.502   5.966 -0.0147  0.2110  0.0820
  955YOPC   GL213810   2.624  18.459   5.925  0.1119  0.0437  0.0363
  955YOPC   C1A13811   1.951  18.379   6.313 -0.2108  0.1509  0.0186
  955YOPC   D2A13812   1.558  18.310   6.511  0.0109  0.0190  0.1671
  955YOPC   C3A13813   1.223  18.535   6.644 -0.0029 -0.1878  0.0933
  955YOPC   C4A13814   1.046  18.452   7.143 -0.3114 -0.1224  0.2596
  955YOPC   C1B13815   2.806  18.750   6.218  0.0124  0.0710  0.0647
  955YOPC   C2B13816   2.839  19.222   6.333 -0.2460 -0.1674 -0.4817
  955YOPC   D3B13817   2.529  19.367   6.605  0.2132  0.1928  0.0354
  955YOPC   C4B13818   2.257  19.420   6.899 -0.1495 -0.1840  0.1577
  956YOPC   NC313819   8.360  10.977   5.033 -0.1252  0.0126  0.2622
  956YOPC   PO413820   7.903  11.183   4.939 -0.1107 -0.1102  0.0381
  956YOPC   GL113821   8.059  11.146   5.371  0.0908 -0.1064 -0.0749
  956YOPC   GL213822   7.893  10.942   5.413  0.2250 -0.0598  0.3395
  956YOPC   C1A13823   8.323  11.367   5.728  0.0512  0.1454 -0.0023
  956YOPC   D2A13824   8.585  11.677   5.843  0.0249  0.0517  0.1283
  956YOPC   C3A13825   8.483  11.649   6.321 -0.1097 -0.0653  0.0639
  956YOPC   C4A13826   8.178  11.700   6.584 -0.2680 -0.1936  0.0644
  956YOPC   C1B13827   7.867  11.112   5.843 -0.0820  0.1747 -0.1706
  956YOPC   C2B13828   8.079  11.392   6.140 -0.5100  0.0899 -0.1789
  956YOPC   D3B13829   8.517  11.191   6.417  0.2294 -0.0057  0.0573
  956YOPC   C4B13830   8.548  10.998   6.890 -0.0380  0.0331  0.0720
  957YOPC   NC313831  14.019   0.165   5.210  0.1381 -0.1665 -0.1039
  957YOPC   PO413832  13.705   0.149   5.557 -0.0702 -0.2566  0.1474
  957YOPC   GL113833  13.721   0.155   5.935  0.1300  0.0099  0.1392
  957YOPC   GL213834  13.811  -0.100   6.044  0.1795  0.0179  0.0011
  957YOPC   C1A13835  13.351   0.307   6.137  0.2471 -0.0393 -0.2463
  957YOPC   D2A13836  13.247   0.278   6.563 -0.6342  0.1777 -0.0289
  957YOPC   C3A13837  12.983   0.122   6.833  0.3329  0.1174  0.2432
  957YOPC   C4A13838  12.542  -0.019   6.964 -0.0639  0.0201 -0.4183
  957YOPC   C1B13839  13.672   0.037   6.423  0.0257  0.1636 -0.1696
  957YOPC   C2B13840  13.710  -0.001   6.882 -0.0265  0.0672  0.2097
  957YOPC   D3B13841  14.109   0.152   7.139  0.0954 -0.2294 -0.1609
  957YOPC   C4B13842  14.429   0.079   7.387 -0.2703 -0.0194  0.0598
  958YOPC   NC313843  13.570  11.135   5.073 -0.2824 -0.0913  0.0957
  958YOPC   PO413844  13.289  11.366   5.319  0.3997  0.1348  0.1231
  958YOPC   GL113845  13.364  11.317   5.826  0.0312  0.1211  0.2254
  958YOPC   GL213846  13.109  11.174   6.040  0.1583 -0.2350 -0.2669
  958YOPC   C1A13847  13.672  11.314   6.123  0.1971 -0.1439  0.0618
  958YOPC   D2A13848  13.988  11.448   6.469  0.0982  0.1508 -0.4381
  958YOPC   C3A13849  13.910  11.290   6.751 -0.2054 -0.3700  0.1095
  958YOPC   C4A13850  13.947  11.181   7.077  0.2394 -0.4319  0.4313
  958YOPC   C1B13851  13.170  11.549   6.218 -0.0682 -0.3581  0.1724
  958YOPC   C2B13852  13.253  11.770   6.523  0.1965 -0.2341 -0.1232
  958YOPC   D3B13853  13.650  11.778   6.743  0.0732 -0.0471 -0.0382
  958YOPC   C4B13854  13.563  11.640   7.130  0.1056 -0.2081  0.1883
  959YOPC   NC313855  11.581  10.066   5.159 -0.2228  0.4138 -0.0830
  959YOPC   PO413856  11.458  10.376   5.443  0.1073  0.0734  0.1108
  959YOPC   GL113857  11.459  10.160   5.775 -0.2832 -0.0372 -0.2161
  959YOPC   GL213858  11.749  10.090   5.972 -0.0836 -0.3422  0.0541
  959YOPC   C1A13859  11.386  10.251   6.276  0.1223  0.1070 -0.4652
  959YOPC   D2A13860  11.200  10.297   6.780 -0.0675 -0.2286  0.1279
  959YOPC   C3A13861  10.898  10.015   6.747  0.0578  0.0567 -0.1641
  959YOPC   C4A13862  10.730   9.643   6.533 -0.0375  0.1360 -0.0073
  959YOPC   C1B13863  12.009  10.160   6.243  0.1871 -0.1949  0.1488
  959YOPC   C2B13864  12.123  10.051   6.716  0.2799 -0.0806  0.2217
  959YOPC   D3B13865  12.085  10.300   7.122  0.2061 -0.0094 -0.1413
  959YOPC   C4B13866  12.349  10.708   7.069  0.5026  0.1301  0.2455
  960YOPC   NC313867   9.402  10.794   4.959 -0.2171  0.0685  0.6229
  960YOPC   PO413868   8.992  10.921   5.095 -0.1526 -0.1976 -0.1967
  960YOPC   GL113869   9.262  10.973   5.438 -0.2685  0.2385  0.0471
  960YOPC   GL213870   9.604  11.006   5.613 -0.1608 -0.1240 -0.0493
  960YOPC   C1A13871   9.154  10.665   5.827  0.2688 -0.0023 -0.1961
  960YOPC   D2A13872   9.032  10.413   6.140 -0.1121  0.2589  0.0756
  960YOPC   C3A13873   8.794  10.577   6.489 -0.0809  0.2241  0.1286
  960YOPC   C4A13874   8.929  10.654   6.869  0.0280  0.1425 -0.1448
  960YOPC   C1B13875   9.621  10.997   6.078  0.2390 -0.0547 -0.0407
  960YOPC   C2B13876   9.205  10.823   6.345  0.2078 -0.0620 -0.0203
  960YOPC   D3B13877   9.266  10.453   6.562 -0.1837 -0.1693  0.2846
  960YOPC   C4B13878   8.960  10.148   6.731 -0.0399 -0.0986  0.4024
  961YOPC   NC313879   4.537   1.634   5.506  0.1714  0.0955 -0.0287
  961YOPC   PO413880   4.635   1.997   5.685 -0.1714 -0.1725  0.0662
  961YOPC   GL113881   4.506   1.821   6.042  0.1095 -0.2524  0.0609
  961YOPC   GL213882   4.151   1.769   6.037  0.2971 -0.3786  0.1062
  961YOPC   C1A13883   4.456   1.581   6.435 -0.0704  0.0996 -0.1474
  961YOPC   D2A13884   4.666   1.333   6.762 -0.0163  0.1342  0.0392
  961YOPC   C3A13885   4.565   1.293   7.235  0.0901  0.0675 -0.1425
  961YOPC   C4A13886   4.427   1.143   7.566  0.2282 -0.0468 -0.1890
  961YOPC   C1B13887   4.173   1.952   6.457  0.2295 -0.0217 -0.2558
  961YOPC   C2B13888   4.339   1.847   6.896 -0.1153  0.3440  0.0123
  961YOPC   D3B13889   4.762   1.712   7.068  0.4338  0.0792  0.1361
  961YOPC   C4B13890   5.116   1.803   6.917 -0.1844 -0.2321 -0.0622
  962YOPC   NC313891   9.208   9.689   5.365 -0.0299  0.0718 -0.0664
  962YOPC   PO413892   9.440  10.025   5.295  0.1525  0.0238  0.1585
  962YOPC   GL113893   9.387  10.243   5.657  0.2498 -0.0801 -0.3181
  962YOPC   GL213894   9.084  10.058   5.765  0.2049 -0.1463 -0.4834
  962YOPC   C1A13895   9.458  10.108   6.134  0.0500 -0.0538  0.0638
  962YOPC   D2A13896   9.693  10.197   6.531  0.1173 -0.1671  0.1115
  962YOPC   C3A13897  10.108  10.189   6.582  0.0585  0.1031  0.2031
  962YOPC   C4A13898  10.440   9.962   6.400  0.1766  0.4470  0.3494
  962YOPC   C1B13899   8.849   9.952   6.188 -0.2282 -0.0494 -0.2530
  962YOPC   C2B13900   8.794   9.684   6.501  0.3559  0.2814  0.0837
  962YOPC   D3B13901   8.802   9.748   6.933 -0.1914 -0.0654 -0.2665
  962YOPC   C4B13902   9.154   9.655   7.237 -0.1836  0.3964  0.0778
  963YOPC   NC313903   6.878  15.177   4.812  0.4013 -0.0103 -0.2010
  963YOPC   PO413904   6.977  14.754   4.911 -0.2816 -0.3203 -0.1649
  963YOPC   GL113905   7.111  15.013   5.230  0.3260 -0.2349 -0.1251
  963YOPC   GL213906   7.342  14.982   5.363 -0.1323  0.0159  0.0977
  963YOPC   C1A13907   6.938  15.159   5.517  0.1631 -0.1022  0.2302
  963YOPC   D2A13908   6.759  15.145   6.004  0.1271 -0.1750 -0.3778
  963YOPC   C3A13909   6.380  15.369   6.275 -0.0974 -0.0552 -0.0359
  963YOPC   C4A13910   6.298  15.561   6.722  0.2910  0.1725 -0.0189
  963YOPC   C1B13911   7.680  14.947   5.606 -0.2297 -0.0950 -0.3052
  963YOPC   C2B13912   7.637  14.720   5.788  0.0769  0.3462 -0.2910
  963YOPC   D3B13913   7.679  14.598   6.177 -0.0705  0.2609  0.2358
  963YOPC   C4B13914   7.683  14.615   6.562 -0.0292  0.0904 -0.1360
  964YOPC   NC313915   2.576   5.217   5.941 -0.1008 -0.0471 -0.0730
  964YOPC   PO413916   2.514   5.738   5.868 -0.0603  0.0886 -0.2136
  964YOPC   GL113917   2.854   5.916   6.149  0.1367  0.0172 -0.1988
  964YOPC   GL213918   2.950   6.181   6.039 -0.1641  0.2233 -0.0552
  964YOPC   C1A13919   3.092   5.684   6.483 -0.0612  0.1959  0.4097
  964YOPC   D2A13920   3.050   5.685   6.882  0.2014  0.1514 -0.3751
  964YOPC   C3A13921   3.056   5.896   7.306 -0.1053  0.0178 -0.0384
  964YOPC   C4A13922   3.170   6.184   7.547  0.1073 -0.0768  0.1260
  964YOPC   C1B13923   2.805   6.168   6.615  0.3508 -0.0880 -0.0641
  964YOPC   C2B13924   3.217   6.150   6.882 -0.0996 -0.0657  0.2316
  964YOPC   D3B13925   3.461   5.959   6.752 -0.0631  0.3076  0.1941
  964YOPC   C4B13926   3.557   6.134   6.319  0.1966 -0.1600 -0.2414
  965YOPC   NC313927   1.577   4.933   5.757  0.0338 -0.3095 -0.0456
  965YOPC   PO413928   1.834   4.472   5.932  0.1541 -0.0731  0.2614
  965YOPC   GL113929   2.012   4.188   6.154 -0.0071  0.1267 -0.1972
  965YOPC   GL213930   1.707   4.201   6.399  0.0560  0.4509  0.2885
  965YOPC   C1A13931   2.182   4.077   6.578  0.1041 -0.0543  0.3561
  965YOPC   D2A13932   2.094   4.389   7.095  0.4217 -0.1255 -0.1631
  965YOPC   C3A13933   2.212   4.388   7.608  0.1086  0.1166 -0.0475
  965YOPC   C4A13934   1.946   4.339   7.940  0.0238 -0.4556 -0.1862
  965YOPC   C1B13935   1.666   4.032   6.918 -0.1003 -0.2473  0.1573
  965YOPC   C2B13936   1.812   3.939   7.392 -0.2740 -0.2990 -0.2278
  965YOPC   D3B13937   1.640   4.244   7.613  0.0985  0.6506  0.2830
  965YOPC   C4B13938   1.580   4.611   7.635 -0.5720  0.2093 -0.4093
  966YOPC   NC313939   1.579   8.395   6.094 -0.0358 -0.3276  0.1706
  966YOPC   PO413940   1.528   8.886   6.082  0.0611  0.3432  0.1250
  966YOPC   GL113941   1.690   8.662   6.578 -0.4035 -0.2174  0.0486
  966YOPC   GL213942   1.955   8.630   6.421 -0.2542 -0.0392 -0.0045
  966YOPC   C1A13943   1.591   8.487   6.952 -0.3141  0.1340 -0.2009
  966YOPC   D2A13944   1.657   8.334   7.248  0.2241  0.3041  0.1316
  966YOPC   C3A13945   1.477   8.571   7.658  0.1107 -0.0926  0.3036
  966YOPC   C4A13946   1.741   8.946   7.837  0.3339 -0.1628  0.2410
  966YOPC   C1B13947   2.193   8.752   6.783  0.3693  0.0861  0.0767
  966YOPC   C2B13948   2.590   8.739   6.823  0.0086 -0.2873 -0.1459
  966YOPC   D3B13949   2.580   8.897   7.291 -0.3404  0.0693  0.0021
  966YOPC   C4B13950   2.869   8.809   7.694 -0.0913  0.0102  0.1876
  967YOPC   NC313951   3.399  13.411   4.918 -0.2478  0.2443  0.2768
  967YOPC   PO413952   3.316  13.373   5.333 -0.5657 -0.1830 -0.0172
  967YOPC   GL113953   3.178  13.435   5.805 -0.1031  0.0003 -0.3017
  967YOPC   GL213954   2.881  13.413   5.875  0.0519  0.0315  0.1963
  967YOPC   C1A13955   3.235  13.557   6.290  0.0916 -0.2373  0.1230
  967YOPC   D2A13956   3.099  13.754   6.644  0.2075  0.0181  0.3026
  967YOPC   C3A13957   3.261  13.561   7.068  0.1276 -0.1318  0.0778
  967YOPC   C4A13958   3.415  13.241   7.354 -0.1536 -0.3257  0.0938
  967YOPC   C1B13959   2.875  13.201   6.264  0.1356  0.0849  0.1618
  967YOPC   C2B13960   2.998  13.183   6.677  0.0742  0.0212  0.2433
  967YOPC   D3B13961   3.497  13.293   6.682 -0.0584 -0.0233 -0.4510
  967YOPC   C4B13962   3.875  13.405   6.559 -0.1025 -0.0186  0.0386
  968YOPC   NC313963  15.775   0.076   5.542  0.1922  0.0396  0.0145
  968YOPC   PO413964  15.999  -0.258   5.433  0.0361  0.1795  0.0748
  968YOPC   GL113965  15.796  -0.331   5.919  0.1415  0.0325 -0.0643
  968YOPC   GL213966  15.998  -0.090   6.016  0.1401 -0.3043 -0.0159
  968YOPC   C1A13967  15.917  -0.442   6.378 -0.3885 -0.0117  0.3357
  968YOPC   D2A13968  16.238  -0.587   6.710  0.3082  0.2940 -0.2683
  968YOPC   C3A13969  16.213  -1.028   6.530 -0.2349  0.1346  0.0274
  968YOPC   C4A13970  16.214  -1.457   6.613 -0.2976 -0.0575  0.0343
  968YOPC   C1B13971  16.033   0.167   6.322 -0.3047 -0.0979  0.0197
  968YOPC   C2B13972  16.081   0.624   6.399 -0.0674 -0.0510  0.0361
  968YOPC   D3B13973  15.753   0.975   6.286 -0.0556 -0.1626 -0.0915
  968YOPC   C4B13974  15.970   1.382   6.291  0.1255 -0.1917 -0.1575
  969YOPC   NC313975   5.101   4.656   5.754 -0.0458  0.0538 -0.2223
  969YOPC   PO413976   4.917   5.136   5.780 -0.0669 -0.2635  0.0751
  969YOPC   GL113977   4.872   5.364   6.173 -0.1941  0.1403 -0.1020
  969YOPC   GL213978   4.664   5.318   6.216 -0.1383  0.2027  0.1458
  969YOPC   C1A13979   5.003   5.571   6.523 -0.1992 -0.2450 -0.1310
  969YOPC   D2A13980   4.952   5.771   6.890  0.0484 -0.0190 -0.0169
  969YOPC   C3A13981   4.733   5.952   7.286  0.0928  0.1814 -0.2446
  969YOPC   C4A13982   4.446   6.192   7.539  0.0776  0.0106  0.0328
  969YOPC   C1B13983   4.494   5.453   6.563 -0.2629  0.0713 -0.0336
  969YOPC   C2B13984   4.125   5.663   6.750  0.1127  0.1474  0.1732
  969YOPC   D3B13985   3.806   5.726   7.016 -0.3595 -0.2173 -0.1526
  969YOPC   C4B13986   3.472   5.548   7.258 -0.0524 -0.2877 -0.1213
  970YOPC   NC313987  11.078   0.885   4.789  0.2306  0.1185 -0.3005
  970YOPC   PO413988  10.725   0.748   5.133  0.0943  0.2730 -0.1039
  970YOPC   GL113989  10.787   0.759   5.625 -0.1241  0.1822 -0.1295
  970YOPC   GL213990  10.947   1.038   5.598  0.2209  0.1664  0.0629
  970YOPC   C1A13991  11.207   0.707   5.869 -0.0235 -0.0148 -0.1300
  970YOPC   D2A13992  11.337   0.519   6.246  0.1811  0.0279  0.1448
  970YOPC   C3A13993  11.639   0.334   6.426 -0.4143  0.2644  0.1436
  970YOPC   C4A13994  11.719   0.122   6.864 -0.0103 -0.1085  0.3154
  970YOPC   C1B13995  11.416   1.082   5.610  0.1701  0.0460 -0.3509
  970YOPC   C2B13996  11.768   1.198   5.759  0.0868 -0.1898 -0.0139
  970YOPC   D3B13997  11.787   1.321   6.163 -0.2832  0.0191 -0.0441
  970YOPC   C4B13998  11.572   1.717   6.258  0.2388  0.0838 -0.1244
  971YOPC   NC313999  16.227  14.088   4.865 -0.0451  0.1222  0.2298
  971YOPC   PO414000  16.183  14.132   5.242  0.0385  0.2399  0.0531
  971YOPC   GL114001  16.375  14.114   5.626  0.0008 -0.2223  0.0173
  971YOPC   GL214002  16.423  13.830   5.794 -0.0406  0.1715  0.0192
  971YOPC   C1A14003  16.574  14.329   5.943 -0.0116 -0.2612 -0.4116
  971YOPC   D2A14004  16.495  14.126   6.432  0.4371  0.0289 -0.2081
  971YOPC   C3A14005  16.428  14.354   6.835  0.0614 -0.1133 -0.2724
  971YOPC   C4A14006  16.313  14.662   7.148  0.2460 -0.0308  0.0756
  971YOPC   C1B14007  16.665  13.766   6.168 -0.2130 -0.1469  0.0338
  971YOPC   C2B14008  16.740  13.685   6.600 -0.1234  0.3265 -0.1989
  971YOPC   D3B14009  16.739  13.944   6.929  0.0446  0.0099 -0.2134
  971YOPC   C4B14010  16.957  14.373   6.787  0.2514 -0.0858 -0.1932
  972YOPC   NC314011   7.941   3.458   5.618  0.1162 -0.1340  0.0603
  972YOPC   PO414012   7.668   3.794   5.635 -0.0533 -0.1450  0.3167
  972YOPC   GL114013   7.976   3.704   6.048  0.1076  0.0437  0.3348
  972YOPC   GL214014   7.963   4.064   6.188  0.1508 -0.1666  0.2259
  972YOPC   C1A14015   7.868   3.617   6.478 -0.2063  0.0177  0.0535
  972YOPC   D2A14016   7.918   3.650   6.923  0.0655  0.1266  0.0505
  972YOPC   C3A14017   7.838   3.963   7.257 -0.1931 -0.0596  0.0122
  972YOPC   C4A14018   7.539   4.176   7.622  0.0036  0.1351 -0.0859
  972YOPC   C1B14019   7.597   3.993   6.409 -0.1047 -0.2680 -0.0625
  972YOPC   C2B14020   7.465   3.815   6.803 -0.3977  0.0002 -0.0553
  972YOPC   D3B14021   7.218   3.988   7.156 -0.2965 -0.2464  0.1060
  972YOPC   C4B14022   7.161   4.325   7.291 -0.0328  0.1379  0.3322
  973YOPC   NC314023  11.528   2.540   5.152  0.1425 -0.0698  0.0277
  973YOPC   PO414024  11.079   2.694   5.358 -0.1747  0.2651 -0.2395
  973YOPC   GL114025  11.068   2.515   5.809  0.1831 -0.1024  0.1221
  973YOPC   GL214026  11.406   2.523   5.695 -0.0300  0.1179 -0.2344
  973YOPC   C1A14027  11.234   2.343   6.145  0.2573 -0.2455 -0.2874
  973YOPC   D2A14028  11.321   2.091   6.415  0.0661 -0.3540  0.3085
  973YOPC   C3A14029  11.472   1.814   6.750 -0.0563 -0.1676  0.0260
  973YOPC   C4A14030  11.423   1.359   6.888  0.1388 -0.3768 -0.3186
  973YOPC   C1B14031  11.387   2.851   6.025 -0.0050  0.0437  0.3139
  973YOPC   C2B14032  11.547   3.294   6.072 -0.0023  0.1589 -0.3238
  973YOPC   D3B14033  11.821   3.581   6.045 -0.3083 -0.2239  0.0966
  973YOPC   C4B14034  12.258   3.551   6.237 -0.0985 -0.0174 -0.1346
  974YOPC   NC314035  14.237   4.040   5.331 -0.0156  0.2500  0.1615
  974YOPC   PO414036  14.576   3.838   5.330  0.1734  0.1645  0.0264
  974YOPC   GL114037  14.563   3.676   5.828  0.0833 -0.0718  0.0753
  974YOPC   GL214038  14.616   3.363   5.885 -0.1119 -0.1495 -0.3217
  974YOPC   C1A14039  14.394   3.676   6.301 -0.3753 -0.1509 -0.2716
  974YOPC   D2A14040  14.191   3.639   6.606 -0.0739  0.0345  0.3614
  974YOPC   C3A14041  14.201   3.981   6.934  0.0206 -0.5544  0.5260
  974YOPC   C4A14042  14.092   4.240   7.307  0.0711  0.1728 -0.1348
  974YOPC   C1B14043  14.624   2.896   6.109 -0.0270 -0.3035 -0.2413
  974YOPC   C2B14044  14.652   2.605   6.538  0.0813 -0.0860 -0.1332
  974YOPC   D3B14045  14.313   2.582   6.823 -0.0320 -0.1171  0.0407
  974YOPC   C4B14046  13.812   2.607   6.733  0.0603  0.0210  0.0779
  975YOPC   NC314047  17.160   3.766   5.456  0.0137  0.3930  0.0381
  975YOPC   PO414048  16.757   3.702   5.384 -0.0220  0.4372  0.1262
  975YOPC   GL114049  16.825   3.513   5.750  0.1772 -0.1769  0.0703
  975YOPC   GL214050  16.945   3.813   5.913  0.1209 -0.1381 -0.3140
  975YOPC   C1A14051  17.053   3.402   6.142  0.2245 -0.1083 -0.2302
  975YOPC   D2A14052  17.267   3.508   6.451 -0.1635 -0.0260  0.1739
  975YOPC   C3A14053  17.424   3.163   6.597 -0.0534  0.0560 -0.0978
  975YOPC   C4A14054  17.731   2.930   6.816  0.2164  0.2416  0.1103
  975YOPC   C1B14055  17.112   3.981   6.263 -0.3127  0.0430  0.0692
  975YOPC   C2B14056  17.043   4.022   6.743 -0.5330  0.2004  0.0324
  975YOPC   D3B14057  16.924   3.780   7.090  0.4148 -0.0896 -0.1162
  975YOPC   C4B14058  16.720   3.830   7.354  0.0095  0.1685  0.1055
  976YOPC   NC314059   4.361   9.515   5.084 -0.2284 -0.2319  0.0380
  976YOPC   PO414060   4.243   9.131   5.478 -0.1402  0.0792  0.1518
  976YOPC   GL114061   4.035   9.223   5.890 -0.0329 -0.0229  0.1395
  976YOPC   GL214062   3.761   9.069   5.857  0.2119 -0.3850  0.1729
  976YOPC   C1A14063   4.005   9.038   6.281 -0.2138 -0.1403 -0.3519
  976YOPC   D2A14064   3.973   8.945   6.663  0.1264 -0.3216  0.1390
  976YOPC   C3A14065   3.949   9.279   6.850  0.1020 -0.5177 -0.3494
  976YOPC   C4A14066   3.916   9.579   7.185 -0.0725  0.0661  0.0455
  976YOPC   C1B14067   3.545   8.873   6.199 -0.1520  0.0779  0.0570
  976YOPC   C2B14068   3.567   8.592   6.510 -0.0583  0.0577  0.1536
  976YOPC   D3B14069   3.621   8.651   6.944  0.2322  0.1845 -0.0646
  976YOPC   C4B14070   3.615   9.095   7.294 -0.1007  0.0501  0.0590
  977YOPC   NC314071  18.072  11.488   5.020  0.0031  0.0348  0.0729
  977YOPC   PO414072  17.673  11.618   5.011  0.1761 -0.1455  0.1773
  977YOPC   GL114073  17.431  11.691   5.400  0.3488  0.1632 -0.0119
  977YOPC   GL214074  17.225  11.507   5.661 -0.0968 -0.0251  0.0838
  977YOPC   C1A14075  17.259  11.992   5.642  0.1900 -0.3098 -0.0773
  977YOPC   D2A14076  17.053  11.993   5.997  0.1404  0.1085  0.1791
  977YOPC   C3A14077  17.092  12.327   6.313 -0.2090  0.0643 -0.2340
  977YOPC   C4A14078  16.794  12.634   6.290 -0.0374  0.1193  0.1027
  977YOPC   C1B14079  16.882  11.496   5.958 -0.1803 -0.0096 -0.2217
  977YOPC   C2B14080  16.808  11.629   6.308  0.0804  0.0086  0.3243
  977YOPC   D3B14081  17.020  11.871   6.525 -0.2287  0.0300 -0.2578
  977YOPC   C4B14082  16.842  12.184   6.865 -0.0141 -0.2150 -0.4647
  978YOPC   NC314083  11.973  13.770   4.605  0.1469  0.0590 -0.0928
  978YOPC   PO414084  11.695  14.026   4.969 -0.3449  0.2759 -0.0378
  978YOPC   GL114085  11.610  13.790   5.393 -0.2377  0.0773 -0.0786
  978YOPC   GL214086  11.292  13.741   5.537  0.0376  0.1453  0.0265
  978YOPC   C1A14087  11.796  13.475   5.678 -0.2065 -0.0073  0.5325
  978YOPC   D2A14088  12.094  13.446   6.057  0.2627 -0.3768 -0.3284
  978YOPC   C3A14089  12.206  13.275   6.418 -0.1192  0.4263 -0.2790
  978YOPC   C4A14090  11.904  13.124   6.684  0.0376 -0.1665 -0.3399
  978YOPC   C1B14091  11.414  13.719   5.952 -0.3622 -0.2062  0.2075
  978YOPC   C2B14092  11.599  13.800   6.305 -0.0212  0.4092  0.0077
  978YOPC   D3B14093  11.432  13.540   6.723 -0.1903  0.1862  0.1448
  978YOPC   C4B14094  11.041  13.292   6.798  0.1461 -0.1449 -0.1476
  979YOPC   NC314095   8.163   7.863   4.828 -0.1387  0.0396  0.1471
  979YOPC   PO414096   8.125   7.833   5.233 -0.2690 -0.4611 -0.0412
  979YOPC   GL114097   8.101   7.959   5.647  0.0331  0.2378  0.2097
  979YOPC   GL214098   8.263   8.297   5.771  0.1759 -0.4886  0.4005
  979YOPC   C1A14099   8.017   7.811   6.064 -0.1683 -0.0928 -0.1035
  979YOPC   D2A14100   7.721   7.743   6.271 -0.1286  0.1179  0.1539
  979YOPC   C3A14101   7.892   7.497   6.488 -0.2038 -0.0760  0.4345
  979YOPC   C4A14102   7.929   7.045   6.363 -0.1472 -0.0352  0.5734
  979YOPC   C1B14103   8.141   8.399   6.141 -0.1084  0.1331 -0.0970
  979YOPC   C2B14104   8.144   8.208   6.525  0.1405 -0.0460 -0.2009
  979YOPC   D3B14105   8.494   8.172   6.757  0.0424  0.5214 -0.1271
  979YOPC   C4B14106   8.808   7.847   6.654 -0.0705 -0.2595 -0.0487
  980YOPC   NC314107  19.070  11.666   5.473  0.1856  0.0331 -0.0307
  980YOPC   PO414108  18.898  11.970   5.249 -0.4338 -0.1035 -0.4308
  980YOPC   GL114109  19.062  12.050   5.714  0.0919  0.0634 -0.1141
  980YOPC   GL214110  19.417  11.890   5.761 -0.1859  0.3326  0.0274
  980YOPC   C1A14111  18.853  12.176   6.097 -0.1942  0.1557 -0.3842
  980YOPC   D2A14112  18.411  12.102   6.262 -0.0811  0.0607 -0.1183
  980YOPC   C3A14113  18.398  11.936   6.712 -0.1217  0.3718 -0.2062
  980YOPC   C4A14114  18.009  11.994   6.754 -0.1509 -0.2601 -0.0549
  980YOPC   C1B14115  19.288  11.745   6.155 -0.4329 -0.1767  0.2385
  980YOPC   C2B14116  19.234  11.581   6.656 -0.0574 -0.0633 -0.0748
  980YOPC   D3B14117  19.047  11.244   6.929  0.2958  0.1207  0.1164
  980YOPC   C4B14118  18.910  10.987   7.163  0.0635  0.2678  0.0092
  981YOPC   NC314119   9.376   7.888   5.047 -0.0309 -0.2101 -0.1270
  981YOPC   PO414120   9.520   7.991   5.421  0.1587  0.0225  0.1562
  981YOPC   GL114121   9.731   7.945   5.844  0.1558 -0.1542 -0.0871
  981YOPC   GL214122   9.623   7.620   6.005  0.0995 -0.0591 -0.0992
  981YOPC   C1A14123   9.970   8.402   5.975  0.3664  0.4602 -0.2392
  981YOPC   D2A14124  10.230   8.397   6.308 -0.0196 -0.3692 -0.1660
  981YOPC   C3A14125  10.354   8.731   6.615 -0.1439  0.0539 -0.0540
  981YOPC   C4A14126  10.331   8.653   7.053  0.3845 -0.1601 -0.0856
  981YOPC   C1B14127   9.604   7.688   6.492 -0.2086  0.2058  0.0002
  981YOPC   C2B14128   9.345   7.696   6.781 -0.0642 -0.3998  0.1073
  981YOPC   D3B14129   9.023   7.377   6.692 -0.1839  0.2002 -0.0508
  981YOPC   C4B14130   8.717   7.341   6.427 -0.4094 -0.1176 -0.1666
  982YOPC   NC314131   4.213   2.344   5.659 -0.1304 -0.4163 -0.0551
  982YOPC   PO414132   4.408   2.744   5.748  0.0346  0.3892 -0.0486
  982YOPC   GL114133   4.583   2.358   6.014 -0.1737  0.1489 -0.1317
  982YOPC   GL214134   4.360   2.342   6.201  0.2999  0.0078 -0.0151
  982YOPC   C1A14135   4.845   2.388   6.329  0.2885  0.1513 -0.3844
  982YOPC   D2A14136   4.963   2.541   6.736 -0.3382 -0.1611 -0.2245
  982YOPC   C3A14137   5.308   2.432   7.062 -0.1181  0.1305  0.0300
  982YOPC   C4A14138   5.593   2.371   7.296 -0.2726 -0.0185  0.0097
  982YOPC   C1B14139   4.365   2.390   6.612  0.0691 -0.6514  0.0688
  982YOPC   C2B14140   4.472   2.576   6.977  0.1240  0.0926 -0.3759
  982YOPC   D3B14141   4.865   2.635   7.245  0.0124 -0.1148  0.3255
  982YOPC   C4B14142   5.133   2.731   7.515  0.0706 -0.1089 -0.0106
  983YOPC   NC314143   6.774   6.783   5.575 -0.0896  0.1819 -0.3159
  983YOPC   PO414144   6.609   6.429   5.792  0.2007  0.1003 -0.1281
  983YOPC   GL114145   6.593   6.374   6.259  0.0659 -0.1411  0.3076
  983YOPC   GL214146   6.679   6.567   6.401  0.1507 -0.2713 -0.2669
  983YOPC   C1A14147   6.522   6.216   6.678 -0.1340  0.1048 -0.3019
  983YOPC   D2A14148   6.598   6.184   7.019  0.0614  0.2999 -0.2239
  983YOPC   C3A14149   6.295   6.480   7.260 -0.3741  0.1939  0.2117
  983YOPC   C4A14150   6.007   6.605   7.436 -0.0788  0.0787  0.1423
  983YOPC   C1B14151   6.928   6.806   6.552  0.0635  0.3693  0.0747
  983YOPC   C2B14152   6.760   7.156   6.780 -0.2034 -0.0663  0.0593
  983YOPC   D3B14153   6.646   7.278   7.122  0.5670 -0.0073  0.2343
  983YOPC   C4B14154   6.277   7.559   7.174 -0.4802 -0.0012 -0.3381
  984YOPC   NC314155   3.605   3.664   5.677 -0.1834 -0.3388  0.0274
  984YOPC   PO414156   3.824   4.096   5.841  0.1612  0.3833 -0.1950
  984YOPC   GL114157   3.803   3.959   6.181 -0.0017 -0.0742  0.0461
  984YOPC   GL214158   3.823   4.257   6.341  0.0140  0.0081 -0.1479
  984YOPC   C1A14159   3.698   3.806   6.574 -0.1441  0.2420  0.0402
  984YOPC   D2A14160   3.691   3.446   6.818  0.2805 -0.1278 -0.1125
  984YOPC   C3A14161   4.007   3.283   7.195 -0.1379  0.1118 -0.0809
  984YOPC   C4A14162   4.362   3.503   7.486  0.2233  0.0660 -0.1053
  984YOPC   C1B14163   3.608   4.332   6.779 -0.0147 -0.1713 -0.0903
  984YOPC   C2B14164   3.670   4.846   6.949 -0.0437  0.2143  0.2052
  984YOPC   D3B14165   3.617   4.996   7.346  0.0763 -0.1452  0.0867
  984YOPC   C4B14166   3.620   5.222   7.775 -0.0958  0.0729 -0.2555
  985YOPC   NC314167  10.242   2.181   5.332  0.1762 -0.0647 -0.0520
  985YOPC   PO414168  10.390   1.717   5.442 -0.1013  0.1596  0.0339
  985YOPC   GL114169  10.619   1.438   5.678 -0.2777  0.2876 -0.0955
  985YOPC   GL214170  11.026   1.424   5.901  0.2685 -0.0374  0.0722
  985YOPC   C1A14171  10.590   1.452   6.060 -0.0946  0.0601 -0.0737
  985YOPC   D2A14172  10.466   1.410   6.461  0.2628 -0.2727 -0.2145
  985YOPC   C3A14173  10.722   1.382   6.803 -0.0029 -0.1799  0.2574
  985YOPC   C4A14174  10.754   1.269   7.197 -0.1267  0.1707  0.2647
  985YOPC   C1B14175  11.327   1.157   6.118  0.0611 -0.0233  0.0255
  985YOPC   C2B14176  11.493   0.959   6.470  0.0232 -0.1300 -0.1294
  985YOPC   D3B14177  11.433   0.695   6.700 -0.1260 -0.1991  0.4837
  985YOPC   C4B14178  11.486   0.642   7.119 -0.2293 -0.1333 -0.1114
  986YOPC   NC314179   1.680  15.424   4.783 -0.3031  0.3447 -0.1388
  986YOPC   PO414180   1.837  15.119   5.223 -0.2072  0.1831  0.0053
  986YOPC   GL114181   1.807  15.221   5.646  0.0766 -0.1211  0.0209
  986YOPC   GL214182   2.101  15.206   5.745  0.1918 -0.1345  0.2979
  986YOPC   C1A14183   1.693  15.209   6.100 -0.2960 -0.0342 -0.1869
  986YOPC   D2A14184   1.778  15.123   6.525 -0.1451  0.1336 -0.0724
  986YOPC   C3A14185   2.058  14.771   6.603  0.1212 -0.1422  0.0743
  986YOPC   C4A14186   2.364  14.488   6.555  0.1994 -0.1326  0.0617
  986YOPC   C1B14187   2.121  15.408   6.182 -0.1541 -0.0910  0.0078
  986YOPC   C2B14188   2.178  15.376   6.613  0.1367 -0.4162  0.0331
  986YOPC   D3B14189   2.257  15.216   7.034 -0.0498  0.1437  0.4174
  986YOPC   C4B14190   1.995  15.102   7.405 -0.1008 -0.1087 -0.0597
  987YOPC   NC314191   8.960  17.709   4.928 -0.0628 -0.2828  0.1216
  987YOPC   PO414192   9.124  17.478   5.170  0.0956 -0.1986  0.3071
  987YOPC   GL114193   9.167  17.357   5.549  0.2693  0.0315 -0.0098
  987YOPC   GL214194   8.975  17.192   5.748  0.1777  0.1305  0.4632
  987YOPC   C1A14195   9.191  17.638   5.961 -0.0580 -0.2565  0.1370
  987YOPC   D2A14196   9.378  17.638   6.303  0.1310 -0.1739 -0.1482
  987YOPC   C3A14197   9.330  17.385   6.634 -0.0528 -0.0302  0.2420
  987YOPC   C4A14198   9.401  17.422   7.096 -0.0693 -0.0973  0.2168
  987YOPC   C1B14199   9.194  17.139   6.066  0.1907 -0.2166 -0.1835
  987YOPC   C2B14200   9.495  16.977   6.286 -0.2321 -0.3775  0.0337
  987YOPC   D3B14201   9.841  17.264   6.467  0.0473 -0.0474  0.0934
  987YOPC   C4B14202  10.024  17.247   6.879 -0.1191 -0.1257 -0.0009
  988YOPC   NC314203   5.586   3.354   5.765  0.3278  0.0909  0.1016
  988YOPC   PO414204   5.396   3.632   5.478 -0.0008 -0.0297  0.3483
  988YOPC   GL114205   5.120   3.511   5.905 -0.0929  0.1418 -0.3031
  988YOPC   GL214206   4.930   3.222   5.832  0.2929 -0.2436  0.0130
  988YOPC   C1A14207   5.123   3.507   6.298  0.0354 -0.0596 -0.0912
  988YOPC   D2A14208   5.008   3.327   6.656 -0.0766  0.1092  0.1389
  988YOPC   C3A14209   4.845   2.986   6.921  0.3216  0.2975 -0.1037
  988YOPC   C4A14210   4.423   3.031   7.186  0.3579  0.1351  0.1179
  988YOPC   C1B14211   4.772   3.071   6.260 -0.0557  0.1817  0.0353
  988YOPC   C2B14212   4.469   2.843   6.491  0.4559  0.0522  0.2623
  988YOPC   D3B14213   4.119   2.878   6.842 -0.1234  0.2557 -0.1405
  988YOPC   C4B14214   4.066   2.683   7.278  0.1396  0.1602  0.0533
  989YOPC   NC314215  13.731  18.915   5.517  0.2154 -0.0517 -0.0242
  989YOPC   PO414216  14.126  18.895   5.509 -0.0105 -0.0914  0.0544
  989YOPC   GL114217  14.114  18.781   5.835 -0.0308  0.0267  0.2145
  989YOPC   GL214218  13.873  18.611   5.921 -0.0687 -0.0445 -0.0554
  989YOPC   C1A14219  14.181  18.362   6.192 -0.0600 -0.0114  0.1425
  989YOPC   D2A14220  14.262  18.325   6.668  0.0141 -0.3091 -0.0658
  989YOPC   C3A14221  14.511  17.984   6.900  0.3008  0.2904 -0.0154
  989YOPC   C4A14222  14.806  17.859   7.235  0.2895 -0.1465  0.0226
  989YOPC   C1B14223  13.980  18.841   6.393 -0.0554 -0.1990 -0.0321
  989YOPC   C2B14224  14.116  18.909   6.853 -0.0753 -0.2248  0.3137
  989YOPC   D3B14225  14.427  18.545   7.063 -0.3688 -0.0682 -0.0264
  989YOPC   C4B14226  14.750  18.341   7.168  0.0038  0.1607  0.0186
  990YOPC   NC314227  10.023   6.980   4.927  0.3058  0.1191 -0.2166
  990YOPC   PO414228  10.019   6.570   5.127  0.1195 -0.2040  0.2958
  990YOPC   GL114229   9.961   6.621   5.589  0.1689 -0.4000  0.0497
  990YOPC   GL214230  10.104   6.310   5.800  0.0921 -0.2234  0.0585
  990YOPC   C1A14231   9.808   6.669   6.075  0.2222  0.2498 -0.1819
  990YOPC   D2A14232   9.882   7.077   6.270 -0.1781  0.2190 -0.1808
  990YOPC   C3A14233  10.131   7.097   6.703  0.0519 -0.2367 -0.2870
  990YOPC   C4A14234  10.103   7.197   7.109  0.1194 -0.2467 -0.1244
  990YOPC   C1B14235  10.036   6.259   6.253  0.0978 -0.1065 -0.0336
  990YOPC   C2B14236   9.812   6.126   6.601 -0.4969 -0.2195 -0.0925
  990YOPC   D3B14237   9.985   6.181   7.002  0.3977 -0.0728  0.1295
  990YOPC   C4B14238  10.205   6.134   7.391  0.2689 -0.3101 -0.2117
  991YOPC   NC314239  14.204   7.473   5.663 -0.2057  0.0631  0.1905
  991YOPC   PO414240  13.930   7.159   5.663 -0.0501 -0.0484 -0.0413
  991YOPC   GL114241  13.582   6.996   5.993  0.0380  0.0679  0.0816
  991YOPC   GL214242  13.323   7.214   6.111 -0.1505  0.1057 -0.0018
  991YOPC   C1A14243  13.176   6.703   6.158 -0.0478 -0.0416  0.1483
  991YOPC   D2A14244  12.966   6.685   6.580  0.1208  0.0293 -0.0099
  991YOPC   C3A14245  12.580   6.958   6.822 -0.2493 -0.1809  0.0516
  991YOPC   C4A14246  12.672   7.082   7.215  0.2466 -0.0840  0.1836
  991YOPC   C1B14247  13.415   6.976   6.498  0.0390  0.0090  0.1384
  991YOPC   C2B14248  13.526   6.765   6.859 -0.3819 -0.0821  0.1104
  991YOPC   D3B14249  13.840   6.606   7.122  0.2270  0.1116  0.1185
  991YOPC   C4B14250  13.920   6.810   7.565  0.2621  0.0182  0.1371
  992YOPC   NC314251  13.407  12.589   4.323  0.0870 -0.0408 -0.1005
  992YOPC   PO414252  13.768  12.849   4.512 -0.1451  0.1557 -0.2883
  992YOPC   GL114253  13.556  12.580   4.836 -0.0399 -0.1273 -0.0165
  992YOPC   GL214254  13.363  12.699   5.126  0.1429  0.2311 -0.3288
  992YOPC   C1A14255  13.652  12.266   5.235 -0.0345  0.1019  0.0490
  992YOPC   D2A14256  13.667  12.254   5.706  0.0105  0.0923 -0.1624
  992YOPC   C3A14257  13.920  12.337   5.956 -0.1814  0.2782  0.1060
  992YOPC   C4A14258  14.241  12.326   6.114 -0.1363 -0.0974  0.2183
  992YOPC   C1B14259  13.242  12.561   5.613  0.0195  0.0428 -0.1291
  992YOPC   C2B14260  13.406  12.691   5.955  0.1245 -0.2959  0.1669
  992YOPC   D3B14261  13.792  12.889   6.021 -0.0570 -0.0158  0.1174
  992YOPC   C4B14262  13.920  12.682   6.376  0.1792  0.3743 -0.1603
  993YOPC   NC314263  14.743   0.104   5.709 -0.1014  0.0129  0.0343
  993YOPC   PO414264  14.712  -0.316   5.537 -0.0153 -0.1118  0.0346
  993YOPC   GL114265  14.826  -0.278   6.024 -0.1000 -0.0880  0.0166
  993YOPC   GL214266  14.812  -0.019   6.191 -0.0212  0.1927 -0.0789
  993YOPC   C1A14267  15.033  -0.443   6.370 -0.1833  0.0227 -0.0694
  993YOPC   D2A14268  14.916  -0.750   6.640  0.1004 -0.1482 -0.1166
  993YOPC   C3A14269  14.708  -1.061   6.453  0.0880 -0.1938  0.1629
  993YOPC   C4A14270  14.860  -1.549   6.708 -0.0586 -0.0184 -0.0549
  993YOPC   C1B14271  15.014   0.348   6.356  0.3100  0.0943 -0.1233
  993YOPC   C2B14272  15.228   0.360   6.807 -0.0304  0.1269 -0.3311
  993YOPC   D3B14273  15.555   0.425   7.203  0.4839  0.3175  0.1696
  993YOPC   C4B14274  15.364   0.461   7.571 -0.1264  0.1322 -0.0987
  994YOPC   NC314275  14.036   1.712   5.380 -0.2168  0.1295 -0.2911
  994YOPC   PO414276  13.681   1.665   5.141  0.0151 -0.2826 -0.0129
  994YOPC   GL114277  13.608   1.536   5.691  0.1559  0.1910  0.2424
  994YOPC   GL214278  13.402   1.232   5.770  0.1361  0.1673 -0.1281
  994YOPC   C1A14279  13.414   1.899   5.916 -0.1877 -0.0757  0.0982
  994YOPC   D2A14280  13.558   2.187   6.323 -0.3517 -0.1643 -0.3888
  994YOPC   C3A14281  13.757   2.065   6.719 -0.1903 -0.1220  0.1722
  994YOPC   C4A14282  14.048   2.280   7.093  0.1958  0.2607 -0.0428
  994YOPC   C1B14283  13.367   1.384   6.128 -0.0556 -0.0898 -0.1150
  994YOPC   C2B14284  13.253   1.388   6.534  0.2921 -0.0887  0.2019
  994YOPC   D3B14285  13.335   1.125   6.925 -0.1123  0.2599 -0.1871
  994YOPC   C4B14286  13.678   0.919   7.170  0.3337  0.3457  0.0028
  995YOPC   NC314287   6.493  14.414   5.039  0.0098 -0.1891  0.1643
  995YOPC   PO414288   6.084  14.346   4.947  0.0439  0.0386  0.2768
  995YOPC   GL114289   6.037  14.444   5.390 -0.6090 -0.2374  0.0112
  995YOPC   GL214290   6.336  14.350   5.573 -0.0999  0.0857 -0.1939
  995YOPC   C1A14291   5.901  14.648   5.725 -0.1166  0.0129 -0.1113
  995YOPC   D2A14292   5.882  14.645   6.181 -0.1004  0.1349  0.1083
  995YOPC   C3A14293   5.903  15.081   6.380 -0.3366 -0.1769  0.2343
  995YOPC   C4A14294   5.905  15.515   6.412 -0.5838 -0.2544 -0.1688
  995YOPC   C1B14295   6.199  14.357   6.013 -0.0219  0.5643 -0.3603
  995YOPC   C2B14296   6.115  14.267   6.398  0.0229  0.1133  0.2672
  995YOPC   D3B14297   6.311  14.073   6.818  0.1992 -0.1691 -0.0178
  995YOPC   C4B14298   6.536  14.013   7.167  0.4390 -0.0063  0.0808
  996YOPC   NC314299  17.175   5.896   5.826 -0.0877 -0.0629  0.0386
  996YOPC   PO414300  17.588   5.740   5.719 -0.0934 -0.0545 -0.4009
  996YOPC   GL114301  17.428   5.638   6.184  0.0462  0.0311 -0.0863
  996YOPC   GL214302  17.137   5.724   6.288 -0.0475 -0.1779  0.1369
  996YOPC   C1A14303  17.458   5.810   6.677  0.1464  0.1176  0.0033
  996YOPC   D2A14304  17.502   5.525   7.047  0.2980 -0.2125 -0.0727
  996YOPC   C3A14305  17.833   5.087   7.015  0.0969 -0.0296  0.1348
  996YOPC   C4A14306  18.139   4.938   6.792 -0.1066  0.2138 -0.2532
  996YOPC   C1B14307  17.030   6.174   6.602 -0.2542 -0.2990 -0.0504
  996YOPC   C2B14308  16.870   6.189   6.934 -0.4576 -0.0179 -0.2830
  996YOPC   D3B14309  17.174   5.894   7.132 -0.2123  0.0787  0.0735
  996YOPC   C4B14310  17.319   5.701   7.464 -0.1680 -0.0478  0.0299
  997YOPC   NC314311  16.146  11.747   4.726  0.4954  0.2145  0.2583
  997YOPC   PO414312  16.426  11.841   5.142  0.0682 -0.0698  0.1053
  997YOPC   GL114313  16.241  11.768   5.482 -0.3074 -0.0347 -0.0410
  997YOPC   GL214314  16.466  11.541   5.726  0.1717  0.0804  0.0374
  997YOPC   C1A14315  16.097  11.985   5.902 -0.4237 -0.0700 -0.1961
  997YOPC   D2A14316  15.940  11.980   6.297  0.1811  0.3118  0.0193
  997YOPC   C3A14317  16.108  12.001   6.678 -0.1204 -0.0469  0.1590
  997YOPC   C4A14318  16.468  11.842   6.834  0.2244 -0.0377  0.1234
  997YOPC   C1B14319  16.284  11.546   6.057 -0.0117  0.2903 -0.0443
  997YOPC   C2B14320  16.325  11.509   6.461  0.0634  0.1381  0.2504
  997YOPC   D3B14321  16.100  11.456   6.869 -0.1838 -0.3006  0.4243
  997YOPC   C4B14322  15.949  11.747   7.199  0.2471 -0.2326  0.0334
  998YOPC   NC314323   0.947  11.702   4.915  0.2539  0.1142 -0.2060
  998YOPC   PO414324   0.946  11.447   5.157  0.2299  0.1919  0.0165
  998YOPC   GL114325   0.791  11.307   5.456 -0.1689 -0.0682 -0.4406
  998YOPC   GL214326   0.801  11.633   5.629  0.1238 -0.0875  0.1210
  998YOPC   C1A14327   0.608  11.273   5.920 -0.1595 -0.0366  0.0906
  998YOPC   D2A14328   0.584  11.590   6.128  0.1082  0.1409 -0.2301
  998YOPC   C3A14329   0.614  12.025   6.065 -0.1371  0.1409 -0.0551
  998YOPC   C4A14330   0.753  12.454   6.145  0.0820  0.0652  0.0169
  998YOPC   C1B14331   1.078  11.998   5.767 -0.3263  0.0349  0.0344
  998YOPC   C2B14332   1.487  11.961   6.022 -0.3537 -0.0262  0.0193
  998YOPC   D3B14333   1.535  12.229   6.345 -0.1224 -0.0813  0.0788
  998YOPC   C4B14334   1.764  12.143   6.746 -0.1018  0.0037 -0.1779
  999YOPC   NC314335   6.040  10.617   4.523 -0.2902  0.1578  0.0101
  999YOPC   PO414336   6.389  10.729   4.970  0.2286  0.0739  0.1374
  999YOPC   GL114337   6.522  10.634   5.404  0.0506  0.0978 -0.0530
  999YOPC   GL214338   6.786  10.698   5.500 -0.2229 -0.3924 -0.0976
  999YOPC   C1A14339   6.562  10.500   5.916  0.3522  0.0135 -0.0113
  999YOPC   D2A14340   6.878  10.575   6.200 -0.1710 -0.1299  0.2386
  999YOPC   C3A14341   6.765  10.819   6.543 -0.3418 -0.3259  0.0544
  999YOPC   C4A14342   7.004  11.036   6.963 -0.0541 -0.0039 -0.0731
  999YOPC   C1B14343   7.027  10.378   5.714 -0.0536  0.0382  0.0509
  999YOPC   C2B14344   7.287   9.925   5.849 -0.2086  0.0869  0.1801
  999YOPC   D3B14345   6.998   9.619   6.022 -0.0709 -0.2766  0.1253
  999YOPC   C4B14346   6.864   9.313   6.219 -0.0120  0.1082  0.0141
 1000YOPC   NC314347  11.427   4.251   5.104  0.0813  0.2066 -0.1427
 1000YOPC   PO414348  11.130   4.585   5.168  0.3002  0.2173 -0.1384
 1000YOPC   GL114349  11.156   4.432   5.614 -0.0896  0.0608  0.1238
 1000YOPC   GL214350  10.853   4.381   5.681  0.0109  0.1642  0.0174
 1000YOPC   C1A14351  11.489   4.283   5.946  0.0351 -0.0148 -0.1245
 1000YOPC   D2A14352  11.681   4.008   6.291 -0.1276  0.0845 -0.6950
 1000YOPC   C3A14353  12.021   3.926   6.605 -0.1670  0.0141 -0.1822
 1000YOPC   C4A14354  12.228   4.129   6.951 -0.0197 -0.0399 -0.0135
 1000YOPC   C1B14355  10.945   4.442   6.082  0.1696 -0.0150  0.1397
 1000YOPC   C2B14356  11.161   4.203   6.416 -0.0036 -0.1210 -0.0311
 1000YOPC   D3B14357  10.966   4.032   6.700  0.1947  0.2182  0.2966
 1000YOPC   C4B14358  10.830   3.881   7.121  0.3140  0.2012 -0.0131
 1001YOPC   NC314359  17.082   9.983   4.629 -0.1574  0.2834  0.1432
 1001YOPC   PO414360  16.701  10.047   4.829 -0.5772 -0.1762  0.0551
 1001YOPC   GL114361  16.897  10.024   5.219 -0.0994  0.0407 -0.1383
 1001YOPC   GL214362  16.613  10.146   5.467  0.3388  0.0297 -0.0585
 1001YOPC   C1A14363  17.190  10.057   5.598  0.0807  0.2406  0.2666
 1001YOPC   D2A14364  17.493  10.046   5.791 -0.2095  0.0487 -0.1291
 1001YOPC   C3A14365  17.343  10.021   6.252  0.0592 -0.2075  0.1381
 1001YOPC   C4A14366  17.347  10.007   6.650 -0.4010 -0.1738 -0.2234
 1001YOPC   C1B14367  16.833  10.412   5.835 -0.0715 -0.1138  0.2548
 1001YOPC   C2B14368  17.022  10.405   6.195  0.1076 -0.0904  0.2096
 1001YOPC   D3B14369  16.968  10.351   6.606 -0.0733 -0.2338 -0.0233
 1001YOPC   C4B14370  16.625  10.260   6.874  0.0208  0.0822  0.0924
 1002YOPC   NC314371  18.198   3.936   5.466 -0.0380 -0.1551 -0.0122
 1002YOPC   PO414372  18.263   4.196   5.765  0.0000  0.3407  0.0848
 1002YOPC   GL114373  18.141   4.384   6.180  0.0008  0.1317  0.3349
 1002YOPC   GL214374  18.232   4.429   6.539 -0.0279  0.0973 -0.0601
 1002YOPC   C1A14375  17.890   4.114   6.412 -0.3614  0.2432  0.0689
 1002YOPC   D2A14376  17.584   4.008   6.608  0.0696 -0.2717 -0.0075
 1002YOPC   C3A14377  17.504   4.135   6.940  0.0467  0.0112 -0.2443
 1002YOPC   C4A14378  17.744   4.220   7.313  0.1541 -0.0648 -0.0941
 1002YOPC   C1B14379  18.143   4.152   6.888  0.3307  0.1751  0.2439
 1002YOPC   C2B14380  18.222   4.038   7.280  0.1291  0.0997 -0.2348
 1002YOPC   D3B14381  17.966   3.735   7.298 -0.0508 -0.0803 -0.0133
 1002YOPC   C4B14382  17.847   3.439   7.643  0.5690  0.3286  0.4290
 1003YOPC   NC314383   3.325   4.269   5.869 -0.0385 -0.2718 -0.3626
 1003YOPC   PO414384   2.927   4.183   5.884  0.3105 -0.0348  0.0250
 1003YOPC   GL114385   2.783   4.416   6.237 -0.2776  0.0771  0.0447
 1003YOPC   GL214386   2.484   4.260   6.209 -0.0846 -0.1014 -0.1362
 1003YOPC   C1A14387   2.666   4.281   6.671  0.1034  0.1682  0.1558
 1003YOPC   D2A14388   2.574   4.406   7.066  0.0734 -0.3298  0.0782
 1003YOPC   C3A14389   2.390   4.029   7.244  0.2770  0.0311 -0.1185
 1003YOPC   C4A14390   2.253   3.862   7.513 -0.1986  0.1443 -0.3042
 1003YOPC   C1B14391   2.446   4.670   6.446  0.2140 -0.1088 -0.1702
 1003YOPC   C2B14392   2.500   4.854   6.893  0.2120 -0.1091  0.0751
 1003YOPC   D3B14393   2.345   5.257   7.003 -0.1081 -0.1996 -0.1763
 1003YOPC   C4B14394   2.090   5.569   6.858  0.1027 -0.2331 -0.1343
 1004YOPC   NC314395  11.711  11.124   5.402 -0.0528  0.1821 -0.1117
 1004YOPC   PO414396  12.172  11.010   5.469 -0.0282 -0.0119 -0.0913
 1004YOPC   GL114397  12.011  11.178   5.826 -0.2896 -0.1702  0.0666
 1004YOPC   GL214398  11.954  11.340   6.229 -0.2340  0.1414  0.4817
 1004YOPC   C1A14399  11.620  11.024   6.183 -0.2913  0.3426  0.1008
 1004YOPC   D2A14400  11.563  10.820   6.475  0.0315 -0.0253  0.0388
 1004YOPC   C3A14401  11.255  10.738   6.372  0.0038 -0.2370 -0.1014
 1004YOPC   C4A14402  10.910  11.007   6.119 -0.0697  0.3317 -0.3009
 1004YOPC   C1B14403  11.588  11.444   6.470  0.2711 -0.1463  0.1124
 1004YOPC   C2B14404  11.659  11.623   6.809 -0.0279  0.0625 -0.2087
 1004YOPC   D3B14405  12.075  11.833   6.926 -0.1192 -0.1831 -0.1116
 1004YOPC   C4B14406  12.530  11.736   6.832  0.0326 -0.0731 -0.0105
 1005YOPC   NC314407   0.304   5.639   5.929  0.2887 -0.0670 -0.0469
 1005YOPC   PO414408  -0.064   6.041   5.877  0.0210 -0.1618  0.0900
 1005YOPC   GL114409  -0.355   6.051   6.208  0.3063  0.1359 -0.0188
 1005YOPC   GL214410  -0.270   6.284   6.435  0.0522  0.1243  0.2596
 1005YOPC   C1A14411  -0.555   5.796   6.694 -0.0514  0.1371 -0.1345
 1005YOPC   D2A14412  -0.606   5.762   7.105  0.1130  0.0087  0.0866
 1005YOPC   C3A14413  -0.288   5.439   7.280 -0.3710 -0.0687  0.1768
 1005YOPC   C4A14414  -0.277   5.165   7.664 -0.1101 -0.1556 -0.0113
 1005YOPC   C1B14415  -0.001   6.244   6.712  0.4016  0.1118  0.1398
 1005YOPC   C2B14416  -0.187   6.148   7.081 -0.0447  0.0199 -0.3190
 1005YOPC   D3B14417  -0.062   6.131   7.401  0.1386 -0.1046 -0.5667
 1005YOPC   C4B14418  -0.296   6.489   7.523  0.1538 -0.2595 -0.0519
 1006YOPC   NC314419   2.000   8.523   5.569  0.0730  0.0954  0.0684
 1006YOPC   PO414420   2.101   8.340   5.997 -0.1541 -0.0114  0.2368
 1006YOPC   GL114421   1.903   8.029   6.251 -0.0187  0.2019  0.1522
 1006YOPC   GL214422   2.099   7.834   6.301 -0.0175  0.2240 -0.1170
 1006YOPC   C1A14423   1.525   7.827   6.376 -0.0147 -0.0245  0.1469
 1006YOPC   D2A14424   1.143   7.682   6.330 -0.2532 -0.1041 -0.0294
 1006YOPC   C3A14425   1.024   8.024   6.495  0.0024 -0.1234 -0.0610
 1006YOPC   C4A14426   1.177   8.209   6.865  0.0215  0.1867 -0.2164
 1006YOPC   C1B14427   2.032   7.740   6.734 -0.3022 -0.1674 -0.2014
 1006YOPC   C2B14428   2.180   7.430   7.070 -0.2949 -0.0126 -0.0846
 1006YOPC   D3B14429   2.306   7.608   7.403  0.0690  0.4333 -0.2549
 1006YOPC   C4B14430   2.313   8.094   7.574  0.1789  0.0666  0.3643
 1007YOPC   NC314431   4.699   0.759   5.223 -0.1506 -0.1771 -0.2857
 1007YOPC   PO414432   4.809   0.431   5.370  0.2073 -0.0370  0.0707
 1007YOPC   GL114433   4.646   0.365   5.792 -0.2310  0.4924  0.3231
 1007YOPC   GL214434   4.739   0.092   5.818  0.3389  0.1850 -0.2933
 1007YOPC   C1A14435   4.765   0.433   6.181 -0.2017 -0.1016 -0.1929
 1007YOPC   D2A14436   4.572   0.120   6.487  0.0458 -0.0294  0.2369
 1007YOPC   C3A14437   4.321  -0.005   6.825  0.0136 -0.2164 -0.1004
 1007YOPC   C4A14438   4.032  -0.129   7.163  0.1740  0.0020 -0.0917
 1007YOPC   C1B14439   4.880  -0.044   6.122 -0.0861 -0.1332 -0.0498
 1007YOPC   C2B14440   4.863  -0.340   6.416 -0.2164 -0.0114 -0.2502
 1007YOPC   D3B14441   5.037  -0.203   6.766 -0.3546  0.0332  0.1492
 1007YOPC   C4B14442   4.837   0.045   6.951 -0.0769 -0.1243 -0.3475
 1008YOPC   NC314443  15.208  13.739   5.021 -0.0611 -0.4327  0.2012
 1008YOPC   PO414444  14.851  13.895   5.248 -0.2819  0.2468 -0.2794
 1008YOPC   GL114445  14.719  13.650   5.574 -0.5288 -0.1241  0.2376
 1008YOPC   GL214446  14.490  13.856   5.544 -0.3184 -0.3036 -0.0981
 1008YOPC   C1A14447  14.730  13.849   6.008 -0.3131 -0.0460  0.1042
 1008YOPC   D2A14448  14.760  13.945   6.429 -0.2202 -0.1377  0.0193
 1008YOPC   C3A14449  14.436  13.986   6.589  0.0713  0.1517  0.2985
 1008YOPC   C4A14450  14.230  14.005   6.956 -0.3188  0.0012 -0.2050
 1008YOPC   C1B14451  14.262  13.548   5.792  0.1899 -0.1026 -0.1265
 1008YOPC   C2B14452  14.103  13.373   6.133 -0.1296  0.0581  0.5567
 1008YOPC   D3B14453  13.605  13.346   6.084 -0.1652 -0.3053 -0.1420
 1008YOPC   C4B14454  13.288  13.172   6.181 -0.1172 -0.0957  0.2338
 1009YOPC   NC314455   4.993   5.627   5.763  0.0794  0.1885 -0.4138
 1009YOPC   PO414456   4.458   5.576   5.851 -0.1296  0.0108 -0.0175
 1009YOPC   GL114457   4.505   5.807   6.185  0.0503 -0.1504 -0.2454
 1009YOPC   GL214458   4.792   6.078   6.162  0.2060 -0.1078 -0.5081
 1009YOPC   C1A14459   4.561   5.984   6.648  0.2488 -0.1858  0.1076
 1009YOPC   D2A14460   4.337   6.113   7.046 -0.2157  0.1443 -0.2124
 1009YOPC   C3A14461   4.019   6.411   7.406 -0.1853  0.1756  0.1071
 1009YOPC   C4A14462   4.140   6.557   7.838 -0.0834 -0.5469  0.2536
 1009YOPC   C1B14463   5.124   6.135   6.526  0.2593  0.1132 -0.0975
 1009YOPC   C2B14464   5.526   6.318   6.723  0.1291 -0.1922 -0.2842
 1009YOPC   D3B14465   5.411   6.639   7.007 -0.2642 -0.1587 -0.0119
 1009YOPC   C4B14466   5.273   6.694   7.463  0.0352  0.3735  0.1618
 1010YOPC   NC314467  12.649   4.693   5.055 -0.0437 -0.0349  0.0588
 1010YOPC   PO414468  12.443   4.453   5.302 -0.0304  0.0762  0.1487
 1010YOPC   GL114469  12.233   4.504   5.667 -0.0036  0.3023 -0.0499
 1010YOPC   GL214470  12.200   4.158   5.672  0.0493  0.1808  0.4094
 1010YOPC   C1A14471  12.092   4.573   6.034 -0.3470 -0.0854 -0.1841
 1010YOPC   D2A14472  12.164   4.904   6.307  0.1628 -0.2134  0.0069
 1010YOPC   C3A14473  12.432   4.816   6.729  0.1270 -0.4421  0.1529
 1010YOPC   C4A14474  12.335   4.915   7.209  0.1440 -0.5916 -0.1331
 1010YOPC   C1B14475  12.220   4.031   6.046 -0.0110 -0.0480 -0.0056
 1010YOPC   C2B14476  12.333   4.271   6.352  0.0978 -0.1706 -0.0156
 1010YOPC   D3B14477  12.101   4.474   6.591  0.2383  0.0270  0.0937
 1010YOPC   C4B14478  11.987   4.700   6.993 -0.1371  0.1699  0.0770
 1011YOPC   NC314479  10.687   7.716   5.331 -0.2684 -0.0443  0.1725
 1011YOPC   PO414480  10.304   7.455   5.297  0.1643  0.5506  0.0540
 1011YOPC   GL114481  10.302   7.278   5.685 -0.1496  0.2774 -0.2601
 1011YOPC   GL214482  10.019   7.390   5.855 -0.1030  0.1300 -0.2330
 1011YOPC   C1A14483  10.388   6.984   5.958 -0.1263 -0.0211  0.0107
 1011YOPC   D2A14484  10.699   7.018   6.278 -0.1433 -0.2676  0.1438
 1011YOPC   C3A14485  10.577   7.266   6.460 -0.1188  0.1122 -0.0034
 1011YOPC   C4A14486  10.830   7.460   6.676 -0.1368 -0.3242 -0.2592
 1011YOPC   C1B14487  10.130   7.475   6.279  0.2886  0.3144 -0.1324
 1011YOPC   C2B14488  10.115   7.598   6.687 -0.0091 -0.1172  0.2482
 1011YOPC   D3B14489  10.370   7.582   6.886  0.0162 -0.0868 -0.2296
 1011YOPC   C4B14490  10.540   7.814   7.112  0.1399 -0.2129 -0.2082
 1012YOPC   NC314491  10.838  13.177   4.802  0.1734  0.0131 -0.0081
 1012YOPC   PO414492  11.214  13.159   4.991  0.0485  0.0283  0.3505
 1012YOPC   GL114493  11.627  13.182   5.238  0.1815 -0.0897 -0.1886
 1012YOPC   GL214494  11.742  12.922   5.460 -0.0147 -0.1804 -0.4317
 1012YOPC   C1A14495  11.993  13.295   5.271  0.0741 -0.3042  0.3394
 1012YOPC   D2A14496  12.257  13.485   5.614  0.2783 -0.3298 -0.1506
 1012YOPC   C3A14497  12.560  13.231   5.913 -0.3392 -0.1276  0.0299
 1012YOPC   C4A14498  12.660  13.051   6.316  0.1199 -0.2381 -0.1756
 1012YOPC   C1B14499  12.154  12.943   5.647 -0.1176  0.1032 -0.5407
 1012YOPC   C2B14500  12.387  12.809   6.069 -0.0592 -0.3537  0.0548
 1012YOPC   D3B14501  12.126  12.723   6.428 -0.4324 -0.0791  0.2124
 1012YOPC   C4B14502  11.739  12.621   6.791 -0.0403 -0.2303 -0.0740
 1013YOPC   NC314503   6.490  17.603   4.614 -0.0204  0.1331 -0.1940
 1013YOPC   PO414504   6.543  17.550   5.035  0.0857  0.4236  0.0318
 1013YOPC   GL114505   6.498  17.436   5.375  0.0916 -0.0251 -0.0690
 1013YOPC   GL214506   6.529  17.136   5.562 -0.1921 -0.2096 -0.2206
 1013YOPC   C1A14507   6.454  17.557   5.792  0.0144 -0.1999  0.0651
 1013YOPC   D2A14508   6.420  17.606   6.140 -0.1754  0.0792 -0.2607
 1013YOPC   C3A14509   6.326  17.305   6.428  0.2054  0.1636  0.0763
 1013YOPC   C4A14510   6.190  17.035   6.869 -0.2583 -0.5374  0.0843
 1013YOPC   C1B14511   5.991  16.977   5.660 -0.2067 -0.0413  0.0995
 1013YOPC   C2B14512   5.620  16.916   5.973 -0.1121 -0.0852  0.1300
 1013YOPC   D3B14513   5.759  16.866   6.329 -0.3304  0.2667 -0.1123
 1013YOPC   C4B14514   5.662  16.952   6.816 -0.1350  0.2097 -0.1882
 1014YOPC   NC314515   7.076  18.818   5.485  0.2246 -0.4274 -0.0044
 1014YOPC   PO414516   7.415  18.725   5.485  0.1394 -0.5718 -0.0271
 1014YOPC   GL114517   7.391  18.673   5.913 -0.0462  0.2756  0.0028
 1014YOPC   GL214518   7.299  18.943   6.131  0.0875 -0.1312  0.1409
 1014YOPC   C1A14519   7.503  18.429   6.298 -0.1222 -0.0562 -0.0427
 1014YOPC   D2A14520   7.408  18.157   6.586 -0.1019 -0.0300  0.3193
 1014YOPC   C3A14521   7.666  18.059   6.957  0.1242  0.2664  0.2836
 1014YOPC   C4A14522   7.913  17.836   7.174  0.2845  0.0677  0.1382
 1014YOPC   C1B14523   7.346  18.836   6.480 -0.4178  0.1192 -0.0275
 1014YOPC   C2B14524   7.227  18.936   6.946 -0.4180 -0.4199 -0.0086
 1014YOPC   D3B14525   7.005  18.741   7.249  0.1897 -0.3185  0.2729
 1014YOPC   C4B14526   6.561  18.447   7.392 -0.0406  0.2055  0.2041
 1015YOPC   NC314527   6.164   8.290   5.399 -0.0673  0.1344 -0.5076
 1015YOPC   PO414528   6.495   8.508   5.324 -0.2872  0.4838  0.2076
 1015YOPC   GL114529   6.409   8.492   5.768 -0.0341 -0.0011 -0.2572
 1015YOPC   GL214530   6.705   8.493   5.876 -0.0782  0.1568  0.1751
 1015YOPC   C1A14531   6.191   8.786   6.098  0.1547  0.2218  0.0304
 1015YOPC   D2A14532   5.917   8.792   6.501 -0.0258  0.1570  0.1107
 1015YOPC   C3A14533   6.071   9.072   6.847  0.0960 -0.1032  0.1996
 1015YOPC   C4A14534   6.269   9.170   7.158  0.2720 -0.0849 -0.1162
 1015YOPC   C1B14535   6.932   8.775   6.243  0.2423  0.0385  0.0471
 1015YOPC   C2B14536   6.980   8.551   6.699  0.1368 -0.1618 -0.1004
 1015YOPC   D3B14537   6.670   8.458   6.992 -0.1942 -0.1175 -0.0785
 1015YOPC   C4B14538   6.510   8.710   7.299  0.0019 -0.1565 -0.0597
 1016YOPC   NC314539  11.075   0.393   5.351 -0.1935  0.0828  0.1275
 1016YOPC   PO414540  11.422   0.399   5.183 -0.0389  0.2239 -0.3008
 1016YOPC   GL114541  11.526   0.615   5.573  0.1674  0.0234  0.0425
 1016YOPC   GL214542  11.774   0.741   5.592 -0.0131  0.4711 -0.0474
 1016YOPC   C1A14543  11.569   0.306   5.846 -0.2597  0.1009 -0.1575
 1016YOPC   D2A14544  11.415  -0.011   6.175 -0.2892  0.2445  0.0209
 1016YOPC   C3A14545  11.577  -0.474   6.074  0.0843 -0.6957  0.2472
 1016YOPC   C4A14546  11.587  -0.864   5.930 -0.0100 -0.1853  0.0839
 1016YOPC   C1B14547  11.758   0.738   6.031 -0.2148 -0.0660  0.0087
 1016YOPC   C2B14548  11.959   0.761   6.416 -0.0807  0.1945  0.0829
 1016YOPC   D3B14549  12.237   1.196   6.555  0.3737  0.0727 -0.1150
 1016YOPC   C4B14550  12.375   1.220   6.944  0.0613 -0.1380 -0.0888
 1017YOPC   NC314551  13.926   9.117   5.598  0.2304 -0.0148  0.0606
 1017YOPC   PO414552  14.256   8.855   5.356 -0.0165  0.4099  0.0099
 1017YOPC   GL114553  14.344   8.859   5.795  0.0419  0.1402 -0.0465
 1017YOPC   GL214554  14.636   8.654   5.880  0.0283 -0.1081  0.4610
 1017YOPC   C1A14555  14.195   8.904   6.271 -0.1668  0.2094 -0.0968
 1017YOPC   D2A14556  14.046   8.812   6.661  0.0630  0.2170  0.2123
 1017YOPC   C3A14557  13.692   8.866   6.797 -0.1502 -0.2155 -0.2188
 1017YOPC   C4A14558  13.436   9.027   6.649  0.0251  0.0414  0.4730
 1017YOPC   C1B14559  14.619   8.620   6.283 -0.2053  0.1335 -0.1868
 1017YOPC   C2B14560  14.594   8.893   6.692  0.3004  0.0490 -0.1101
 1017YOPC   D3B14561  14.736   8.891   7.072  0.1713 -0.1678 -0.0772
 1017YOPC   C4B14562  15.219   9.013   7.134  0.3319  0.2059  0.2391
 1018YOPC   NC314563  12.508   9.212   5.212 -0.3630  0.2036  0.1773
 1018YOPC   PO414564  12.212   9.505   5.031 -0.1028 -0.1173  0.0284
 1018YOPC   GL114565  12.184   9.372   5.516  0.3234  0.0211  0.0596
 1018YOPC   GL214566  12.000   9.077   5.649  0.0014  0.0972 -0.3677
 1018YOPC   C1A14567  12.379   9.241   5.959 -0.0875 -0.3188  0.0771
 1018YOPC   D2A14568  12.651   9.168   6.369 -0.0579  0.0226  0.2064
 1018YOPC   C3A14569  12.337   9.042   6.707  0.0886 -0.3144 -0.0109
 1018YOPC   C4A14570  12.438   8.965   7.118 -0.2500  0.0661 -0.1716
 1018YOPC   C1B14571  11.882   9.449   5.941  0.0612 -0.2371 -0.1324
 1018YOPC   C2B14572  11.768   9.692   6.309  0.0284  0.1706  0.1319
 1018YOPC   D3B14573  11.944   9.568   6.745 -0.5485  0.4102  0.1674
 1018YOPC   C4B14574  12.162   9.367   7.079  0.0472 -0.3235 -0.0805
 1019YOPC   NC314575  13.034   6.880   5.512 -0.0823 -0.0426  0.0295
 1019YOPC   PO414576  12.648   6.671   5.470 -0.1217  0.0044 -0.5116
 1019YOPC   GL114577  12.681   6.649   6.000  0.1964 -0.0066 -0.1140
 1019YOPC   GL214578  12.382   6.375   5.934  0.1506 -0.3432  0.1100
 1019YOPC   C1A14579  12.501   6.599   6.427 -0.0647 -0.0441 -0.0179
 1019YOPC   D2A14580  12.157   6.785   6.723  0.2364 -0.0126  0.3809
 1019YOPC   C3A14581  11.944   6.519   7.120  0.0368  0.0011  0.0288
 1019YOPC   C4A14582  11.881   6.606   7.545 -0.0096  0.0240  0.3213
 1019YOPC   C1B14583  12.770   6.263   6.180 -0.0098  0.1386  0.0614
 1019YOPC   C2B14584  12.803   6.184   6.521  0.0224 -0.1562 -0.1284
 1019YOPC   D3B14585  12.680   5.861   6.768  0.1736 -0.1437  0.3614
 1019YOPC   C4B14586  12.297   5.756   6.850  0.2430 -0.0515  0.0482
 1020YOPC   NC314587  16.482   2.769   5.002  0.1893  0.0824  0.2970
 1020YOPC   PO414588  16.368   2.891   5.331  0.2261 -0.2716 -0.0968
 1020YOPC   GL114589  16.568   3.027   5.622  0.0294 -0.3102  0.1932
 1020YOPC   GL214590  16.339   3.248   5.829  0.0724 -0.2844  0.1919
 1020YOPC   C1A14591  16.730   3.039   6.065  0.1150  0.2594 -0.1592
 1020YOPC   D2A14592  16.946   3.089   6.469 -0.4885  0.0984 -0.0732
 1020YOPC   C3A14593  16.786   3.085   6.807  0.2145 -0.3020  0.1860
 1020YOPC   C4A14594  16.723   2.889   7.252  0.2310  0.0043 -0.1529
 1020YOPC   C1B14595  15.920   3.075   5.908 -0.0247  0.0329  0.0464
 1020YOPC   C2B14596  15.673   3.327   6.196  0.2119 -0.1343  0.0111
 1020YOPC   D3B14597  15.717   3.677   6.405 -0.2795  0.1562 -0.2105
 1020YOPC   C4B14598  15.560   3.987   6.659 -0.3684  0.2240 -0.1125
 1021YOPC   NC314599   0.950   5.264   5.722  0.2272  0.0060  0.0178
 1021YOPC   PO414600   0.842   5.491   6.137  0.0639  0.0086 -0.0471
 1021YOPC   GL114601   0.816   5.638   6.475 -0.1722 -0.0746  0.2148
 1021YOPC   GL214602   0.452   5.716   6.530 -0.3237 -0.3607 -0.1551
 1021YOPC   C1A14603   1.066   5.814   6.827 -0.3397  0.0954 -0.1141
 1021YOPC   D2A14604   1.098   6.218   6.842 -0.0925  0.1797  0.0775
 1021YOPC   C3A14605   1.280   6.438   7.150 -0.0368  0.2350  0.1540
 1021YOPC   C4A14606   1.679   6.401   7.374 -0.3169 -0.2076  0.1520
 1021YOPC   C1B14607   0.529   5.938   6.889  0.1433 -0.2364 -0.5043
 1021YOPC   C2B14608   0.778   6.020   7.209  0.1969  0.0087 -0.1656
 1021YOPC   D3B14609   0.813   5.716   7.602  0.0384  0.0231  0.1174
 1021YOPC   C4B14610   0.771   5.908   7.957 -0.0525 -0.4034  0.2323
 1022YOPC   NC314611  10.301  14.429   4.964  0.1020  0.1945 -0.3392
 1022YOPC   PO414612  10.616  14.078   4.852  0.1474  0.0586 -0.0289
 1022YOPC   GL114613  10.837  13.943   5.223 -0.1709  0.1108 -0.0042
 1022YOPC   GL214614  10.691  13.786   5.534 -0.3408 -0.0443 -0.1036
 1022YOPC   C1A14615  10.944  14.152   5.714  0.1249  0.2943 -0.1003
 1022YOPC   D2A14616  10.664  14.188   5.911 -0.1265  0.0632  0.0581
 1022YOPC   C3A14617  10.449  13.777   6.177  0.1097  0.1888  0.4717
 1022YOPC   C4A14618  10.265  13.557   6.490 -0.2288  0.0485 -0.3298
 1022YOPC   C1B14619  10.887  13.601   5.878 -0.1540  0.1046 -0.1046
 1022YOPC   C2B14620  10.935  13.840   6.283 -0.1619 -0.1148 -0.2155
 1022YOPC   D3B14621  11.046  14.272   6.234  0.1065 -0.2616  0.1952
 1022YOPC   C4B14622  11.263  14.512   5.987  0.0426  0.0008 -0.0384
 1023YOPC   NC314623  13.643  15.248   5.214  0.2564 -0.0978  0.0620
 1023YOPC   PO414624  13.226  15.088   5.240 -0.0648  0.3991  0.0666
 1023YOPC   GL114625  13.265  14.753   5.462 -0.2187  0.1859 -0.0548
 1023YOPC   GL214626  13.358  14.983   5.725  0.0750  0.1271  0.4431
 1023YOPC   C1A14627  13.214  14.497   5.827  0.0244  0.0514 -0.2259
 1023YOPC   D2A14628  13.221  14.396   6.263  0.3089 -0.3591  0.1593
 1023YOPC   C3A14629  13.509  14.545   6.575 -0.0304 -0.2653  0.4614
 1023YOPC   C4A14630  13.602  14.963   6.892 -0.0755  0.1162 -0.0623
 1023YOPC   C1B14631  13.113  14.894   6.102 -0.0986  0.0718 -0.3352
 1023YOPC   C2B14632  13.243  15.005   6.508 -0.2378 -0.4316  0.2306
 1023YOPC   D3B14633  12.842  14.825   6.625  0.1053 -0.1874  0.0189
 1023YOPC   C4B14634  12.529  15.027   6.926  0.2601  0.3226  0.2479
 1024YOPC   NC314635   9.600  16.534   5.194  0.1268  0.1241  0.0420
 1024YOPC   PO414636   9.174  16.452   5.200  0.0507 -0.4290 -0.1989
 1024YOPC   GL114637   8.997  16.476   5.430 -0.1024  0.0819 -0.0609
 1024YOPC   GL214638   8.918  16.636   5.644 -0.1468  0.1445 -0.0135
 1024YOPC   C1A14639   8.968  16.131   5.805  0.0607  0.1060  0.0445
 1024YOPC   D2A14640   8.892  16.060   6.243  0.4170  0.2106  0.0415
 1024YOPC   C3A14641   8.569  15.876   6.436  0.2231  0.1747  0.0503
 1024YOPC   C4A14642   8.425  15.513   6.730 -0.3601 -0.0519  0.0368
 1024YOPC   C1B14643   8.879  16.761   5.940  0.1242  0.3214 -0.1333
 1024YOPC   C2B14644   8.914  16.525   6.338 -0.2389 -0.2682  0.0220
 1024YOPC   D3B14645   9.021  16.838   6.567 -0.0557 -0.1610 -0.2832
 1024YOPC   C4B14646   8.946  17.219   6.881  0.0625 -0.1113  0.0958
 1025YOPC   NC314647  14.191   8.396   5.531  0.5244 -0.3033 -0.2118
 1025YOPC   PO414648  14.142   8.014   5.711  0.0182 -0.0189 -0.2008
 1025YOPC   GL114649  14.287   8.291   6.054  0.2817 -0.4040  0.0663
 1025YOPC   GL214650  14.657   8.074   6.176 -0.1590  0.1857 -0.2012
 1025YOPC   C1A14651  14.174   8.405   6.429 -0.1224  0.1504  0.0970
 1025YOPC   D2A14652  14.080   8.205   6.790  0.0060 -0.4195  0.1630
 1025YOPC   C3A14653  13.994   8.386   7.194  0.0048 -0.2522  0.0815
 1025YOPC   C4A14654  13.957   8.713   7.158  0.1705 -0.1264  0.1085
 1025YOPC   C1B14655  14.521   8.086   6.601 -0.0375 -0.0643  0.2628
 1025YOPC   C2B14656  14.307   7.803   6.887 -0.1950 -0.0841 -0.0558
 1025YOPC   D3B14657  14.441   7.301   6.838 -0.0060  0.3063  0.4698
 1025YOPC   C4B14658  14.312   7.127   7.206 -0.0760 -0.0255 -0.0057
 1026YOPC   NC314659  17.211  17.160   5.136 -0.1738 -0.3113  0.4146
 1026YOPC   PO414660  17.667  17.313   5.061 -0.4368  0.1014 -0.0845
 1026YOPC   GL114661  17.686  17.613   5.457 -0.0478  0.1663  0.3531
 1026YOPC   GL214662  17.551  17.979   5.323 -0.1631  0.0692 -0.0167
 1026YOPC   C1A14663  17.935  17.845   5.686  0.2126 -0.1645 -0.0713
 1026YOPC   D2A14664  18.210  18.220   5.890 -0.2009  0.1614  0.2012
 1026YOPC   C3A14665  18.248  18.395   6.251  0.3144 -0.2793  0.2426
 1026YOPC   C4A14666  17.972  18.245   6.679 -0.2130  0.1295 -0.0738
 1026YOPC   C1B14667  17.667  18.300   5.750  0.0726  0.3812 -0.1101
 1026YOPC   C2B14668  17.721  18.126   6.239  0.4530  0.3015 -0.0496
 1026YOPC   D3B14669  17.414  18.215   6.594 -0.2471  0.0243 -0.0394
 1026YOPC   C4B14670  17.398  18.195   6.996  0.3685  0.0142  0.1427
 1027YOPC   NC314671  12.708  14.375   4.582 -0.0342 -0.1315 -0.1574
 1027YOPC   PO414672  12.906  14.011   4.398 -0.0626  0.1754 -0.0197
 1027YOPC   GL114673  12.827  13.991   4.827 -0.0000  0.2262 -0.4056
 1027YOPC   GL214674  12.540  13.998   5.014  0.0630 -0.0043  0.1671
 1027YOPC   C1A14675  13.122  13.714   5.108  0.0195  0.0625 -0.2738
 1027YOPC   D2A14676  13.256  13.247   5.123  0.1412  0.2665 -0.3023
 1027YOPC   C3A14677  12.946  12.934   5.148 -0.3842  0.5808 -0.2011
 1027YOPC   C4A14678  12.620  13.022   5.397  0.2191  0.1669  0.0416
 1027YOPC   C1B14679  12.512  13.916   5.462  0.1860 -0.0218  0.0309
 1027YOPC   C2B14680  12.564  13.775   5.898 -0.0593  0.1111 -0.2066
 1027YOPC   D3B14681  12.868  13.614   6.042 -0.0355  0.2146  0.0437
 1027YOPC   C4B14682  13.265  13.701   6.331 -0.1744  0.1234  0.0415
 1028YOPC   NC314683   7.159   4.344   5.280  0.3072 -0.1794  0.0252
 1028YOPC   PO414684   7.258   4.722   5.579  0.1965  0.3593  0.1881
 1028YOPC   GL114685   7.160   4.767   5.998 -0.2195  0.3093 -0.1868
 1028YOPC   GL214686   7.146   5.120   6.107  0.0174 -0.2188  0.1020
 1028YOPC   C1A14687   7.308   4.550   6.337  0.0797 -0.0885  0.0078
 1028YOPC   D2A14688   7.630   4.443   6.606  0.0128  0.0312 -0.1534
 1028YOPC   C3A14689   7.930   4.162   6.759 -0.0699  0.2609  0.1294
 1028YOPC   C4A14690   8.283   3.992   6.603 -0.2892 -0.0630  0.2502
 1028YOPC   C1B14691   7.440   5.013   6.462 -0.3360 -0.1773  0.1414
 1028YOPC   C2B14692   7.654   4.885   6.963  0.1478  0.4272 -0.0432
 1028YOPC   D3B14693   7.571   4.580   7.212 -0.0776  0.0378  0.2435
 1028YOPC   C4B14694   7.663   4.641   7.596 -0.0250  0.1380  0.2146
 1029YOPC   NC314695  12.731  11.362   5.271  0.0788  0.0333 -0.2862
 1029YOPC   PO414696  12.555  11.797   5.142  0.1696 -0.1879 -0.0897
 1029YOPC   GL114697  12.677  11.961   5.496  0.1858  0.1256 -0.1685
 1029YOPC   GL214698  12.451  12.128   5.552 -0.1494 -0.2165 -0.4019
 1029YOPC   C1A14699  12.592  11.958   6.005 -0.3363  0.2420  0.1587
 1029YOPC   D2A14700  12.822  11.871   6.326 -0.0219  0.1192  0.1140
 1029YOPC   C3A14701  12.859  12.129   6.666  0.2244  0.0181 -0.1370
 1029YOPC   C4A14702  13.234  12.137   6.878 -0.5113 -0.4657 -0.0128
 1029YOPC   C1B14703  12.645  12.450   5.816 -0.3218 -0.0026  0.0700
 1029YOPC   C2B14704  12.831  12.818   5.854  0.1216  0.0854 -0.0233
 1029YOPC   D3B14705  13.087  13.099   5.670 -0.0740  0.1375 -0.1307
 1029YOPC   C4B14706  13.431  13.056   5.534  0.1935  0.1353 -0.2384
 1030YOPC   NC314707  12.216   6.434   5.465 -0.0608 -0.1356 -0.0227
 1030YOPC   PO414708  11.848   6.630   5.481 -0.3499  0.0213 -0.1896
 1030YOPC   GL114709  11.961   6.703   5.996  0.2782  0.0899 -0.2765
 1030YOPC   GL214710  12.283   6.861   5.767  0.3500 -0.0806  0.1245
 1030YOPC   C1A14711  11.895   6.545   6.370  0.0929 -0.1111 -0.0599
 1030YOPC   D2A14712  11.520   6.435   6.762 -0.1664 -0.3362 -0.0370
 1030YOPC   C3A14713  11.359   6.696   7.071 -0.0619 -0.1374 -0.1304
 1030YOPC   C4A14714  11.605   6.991   7.446 -0.5288  0.1462 -0.4567
 1030YOPC   C1B14715  12.202   7.014   6.281 -0.1625 -0.3836 -0.1680
 1030YOPC   C2B14716  12.322   7.334   6.663  0.3904 -0.3465 -0.1939
 1030YOPC   D3B14717  12.308   7.743   6.624  0.1322  0.1162  0.0073
 1030YOPC   C4B14718  12.130   8.037   6.619 -0.0512  0.2077 -0.3250
 1031YOPC   NC314719   3.583   2.639   5.774 -0.2759  0.0192 -0.0990
 1031YOPC   PO414720   3.735   3.082   5.809 -0.2065 -0.1762  0.2273
 1031YOPC   GL114721   3.488   3.263   6.201 -0.0568  0.1100  0.0812
 1031YOPC   GL214722   3.711   3.474   6.233  0.1191 -0.2574 -0.0582
 1031YOPC   C1A14723   3.374   3.121   6.502 -0.1422 -0.1523  0.3546
 1031YOPC   D2A14724   3.148   3.206   6.861  0.0240  0.0743 -0.0276
 1031YOPC   C3A14725   3.178   3.312   7.244 -0.0568  0.1655  0.2392
 1031YOPC   C4A14726   3.552   3.413   7.338 -0.0414 -0.0589 -0.0316
 1031YOPC   C1B14727   4.038   3.284   6.571 -0.2711 -0.1367  0.0089
 1031YOPC   C2B14728   4.473   3.363   6.608 -0.1758  0.0700  0.1416
 1031YOPC   D3B14729   4.614   3.438   6.995  0.3755  0.2174  0.0146
 1031YOPC   C4B14730   4.877   3.555   7.138 -0.0066 -0.4502  0.2768
 1032YOPC   NC314731   5.496   5.715   5.506  0.0283 -0.2527  0.0381
 1032YOPC   PO414732   5.766   5.858   5.726  0.0881  0.1636  0.0688
 1032YOPC   GL114733   5.733   6.179   6.063  0.3865  0.0335 -0.0865
 1032YOPC   GL214734   5.478   6.368   6.237 -0.3691  0.2191 -0.2018
 1032YOPC   C1A14735   5.964   6.288   6.487  0.2469  0.1859  0.1243
 1032YOPC   D2A14736   6.060   6.270   6.813 -0.0865 -0.1521  0.0874
 1032YOPC   C3A14737   5.677   6.252   7.218 -0.1773 -0.0612  0.0165
 1032YOPC   C4A14738   5.526   6.214   7.570  0.0144 -0.0769  0.0809
 1032YOPC   C1B14739   5.592   5.955   6.442  0.1585  0.2404 -0.2362
 1032YOPC   C2B14740   5.497   5.658   6.566 -0.1114  0.3319 -0.2583
 1032YOPC   D3B14741   5.418   5.652   6.872  0.0163 -0.0585  0.0715
 1032YOPC   C4B14742   5.800   5.838   7.013 -0.1779 -0.2641  0.2143
 1033YOPC   NC314743   0.620  10.565   5.357  0.0501  0.1588  0.4614
 1033YOPC   PO414744   0.174  10.351   5.381  0.2190  0.1244 -0.1074
 1033YOPC   GL114745   0.282  10.573   5.727 -0.0359 -0.0626  0.0068
 1033YOPC   GL214746   0.610  10.701   5.826  0.1317  0.2931  0.4004
 1033YOPC   C1A14747   0.156  10.951   5.787  0.1576 -0.0101 -0.1816
 1033YOPC   D2A14748   0.124  11.264   6.113 -0.0775 -0.1154 -0.5285
 1033YOPC   C3A14749  -0.005  11.007   6.523  0.3717 -0.0202 -0.0231
 1033YOPC   C4A14750   0.090  10.546   6.588 -0.0998 -0.2406  0.2522
 1033YOPC   C1B14751   0.931  10.633   6.133 -0.1129  0.2014  0.0119
 1033YOPC   C2B14752   1.087  10.707   6.638  0.2327  0.1556  0.2996
 1033YOPC   D3B14753   1.004  10.553   7.009  0.3609  0.0125  0.1730
 1033YOPC   C4B14754   1.001  10.486   7.435 -0.1369  0.0514 -0.0883
 1034YOPC   NC314755  13.473   1.253   5.254  0.1300  0.0070 -0.2492
 1034YOPC   PO414756  13.852   1.060   5.464 -0.0512 -0.0639 -0.1452
 1034YOPC   GL114757  13.929   0.979   5.917  0.2742 -0.0751  0.1657
 1034YOPC   GL214758  14.246   0.972   6.038  0.0245 -0.0682  0.0032
 1034YOPC   C1A14759  13.709   1.084   6.285  0.3701  0.1935 -0.2600
 1034YOPC   D2A14760  13.799   1.014   6.682 -0.2826  0.0415  0.1993
 1034YOPC   C3A14761  13.997   1.331   7.046  0.0004 -0.0510  0.5585
 1034YOPC   C4A14762  14.357   1.428   7.123  0.0642  0.1647  0.0550
 1034YOPC   C1B14763  14.162   0.769   6.444 -0.1412 -0.1240  0.1586
 1034YOPC   C2B14764  14.232   0.471   6.719  0.0832 -0.4426 -0.0123
 1034YOPC   D3B14765  14.238   0.047   6.524  0.1769 -0.2891 -0.1160
 1034YOPC   C4B14766  14.307  -0.095   6.169  0.0082  0.0174 -0.0040
 1035YOPC   NC314767   1.126  12.739   5.350  0.2920 -0.1681  0.0431
 1035YOPC   PO414768   0.930  12.456   5.312 -0.0993 -0.1730 -0.1245
 1035YOPC   GL114769   0.688  12.604   5.539 -0.1230  0.0514 -0.1863
 1035YOPC   GL214770   0.734  13.005   5.513  0.0438  0.1946 -0.2828
 1035YOPC   C1A14771   0.401  12.714   5.938 -0.3281 -0.0742  0.2296
 1035YOPC   D2A14772   0.125  13.079   5.987  0.2246 -0.0497  0.0444
 1035YOPC   C3A14773  -0.318  13.148   6.088  0.1992 -0.3256  0.0395
 1035YOPC   C4A14774  -0.663  13.059   6.360  0.1220  0.1213 -0.0539
 1035YOPC   C1B14775   1.031  13.230   5.788 -0.1211 -0.1467  0.0720
 1035YOPC   C2B14776   1.053  13.697   5.876  0.1589  0.0329  0.2761
 1035YOPC   D3B14777   1.301  13.812   6.221 -0.0742 -0.0283 -0.0169
 1035YOPC   C4B14778   1.414  14.266   6.428 -0.0016 -0.2136 -0.0952
 1036YOPC   NC314779  10.229   2.665   5.391 -0.2806 -0.0770 -0.2259
 1036YOPC   PO414780  10.624   2.526   5.211 -0.1529  0.0566  0.1301
 1036YOPC   GL114781  10.703   2.320   5.539  0.1298 -0.1855 -0.0684
 1036YOPC   GL214782  10.480   2.495   5.799 -0.1200  0.2047 -0.0103
 1036YOPC   C1A14783  10.863   2.083   5.710  0.1027 -0.6965 -0.0318
 1036YOPC   D2A14784  10.745   1.892   5.983 -0.0718  0.0867  0.2523
 1036YOPC   C3A14785  10.911   1.755   6.318  0.2733 -0.2988 -0.0660
 1036YOPC   C4A14786  11.119   1.450   6.518 -0.0346  0.1407 -0.2720
 1036YOPC   C1B14787  10.614   2.356   6.167 -0.0265 -0.0332  0.1774
 1036YOPC   C2B14788  10.850   2.306   6.448 -0.0917  0.0628  0.2016
 1036YOPC   D3B14789  10.999   1.994   6.812  0.1187  0.3885  0.1130
 1036YOPC   C4B14790  11.025   1.633   7.214 -0.1386 -0.1459  0.0480
 1037YOPC   NC314791  18.967   9.560   5.352  0.0204  0.1316  0.3139
 1037YOPC   PO414792  18.924   9.094   5.385 -0.2273 -0.2749 -0.1421
 1037YOPC   GL114793  19.060   9.231   5.760  0.0252 -0.1363 -0.4887
 1037YOPC   GL214794  19.052   9.002   5.984  0.5450 -0.1094 -0.0375
 1037YOPC   C1A14795  19.195   9.475   6.102 -0.1962  0.0255  0.2665
 1037YOPC   D2A14796  19.304   9.766   6.358 -0.0133  0.0923 -0.1180
 1037YOPC   C3A14797  19.389  10.080   6.651 -0.0727  0.0530  0.1677
 1037YOPC   C4A14798  19.251  10.200   7.049 -0.3601 -0.1515  0.2215
 1037YOPC   C1B14799  19.064   8.879   6.443  0.3778 -0.2793  0.0986
 1037YOPC   C2B14800  18.945   8.829   6.801 -0.4038  0.2740 -0.3892
 1037YOPC   D3B14801  18.950   8.552   7.180  0.1497 -0.1562 -0.1874
 1037YOPC   C4B14802  19.325   8.320   7.341  0.2491 -0.2627 -0.0267
 1038YOPC   NC314803   5.335  17.650   5.152  0.1661  0.1382 -0.1585
 1038YOPC   PO414804   5.425  18.117   5.220 -0.0754  0.0467 -0.0889
 1038YOPC   GL114805   5.499  17.853   5.609  0.0016  0.0782  0.0945
 1038YOPC   GL214806   5.771  17.793   5.836  0.0349  0.1860  0.2147
 1038YOPC   C1A14807   5.286  17.831   5.990 -0.2132 -0.0691  0.2021
 1038YOPC   D2A14808   5.211  17.920   6.392 -0.1545  0.3531 -0.1168
 1038YOPC   C3A14809   5.404  17.578   6.602 -0.3883 -0.2493 -0.1722
 1038YOPC   C4A14810   5.860  17.437   6.700  0.3649  0.0270  0.0032
 1038YOPC   C1B14811   5.918  17.372   6.032  0.1124  0.2956 -0.1986
 1038YOPC   C2B14812   6.319  17.098   5.982 -0.2803  0.1303  0.3222
 1038YOPC   D3B14813   6.315  16.759   6.309 -0.0769 -0.1266 -0.0200
 1038YOPC   C4B14814   6.568  16.473   6.601 -0.2593  0.2340  0.2482
 1039YOPC   NC314815  13.215   9.525   5.646  0.0005  0.2058  0.0073
 1039YOPC   PO414816  13.403   9.080   5.597 -0.0269  0.2014 -0.0136
 1039YOPC   GL114817  13.599   9.070   5.957 -0.0441  0.0069 -0.0745
 1039YOPC   GL214818  13.548   9.177   6.163  0.1777 -0.3191 -0.3962
 1039YOPC   C1A14819  13.653   8.630   6.296  0.0925 -0.3230  0.2370
 1039YOPC   D2A14820  13.599   8.388   6.678 -0.4109 -0.1816 -0.3081
 1039YOPC   C3A14821  13.479   8.458   7.069  0.0265  0.5049  0.1169
 1039YOPC   C4A14822  13.585   8.112   7.313 -0.0297  0.1620  0.1753
 1039YOPC   C1B14823  13.721   9.404   6.524 -0.1646  0.2977 -0.1424
 1039YOPC   C2B14824  13.980   9.672   6.795  0.1301 -0.0773 -0.1028
 1039YOPC   D3B14825  14.142  10.078   6.916  0.2296  0.2064 -0.1054
 1039YOPC   C4B14826  14.220  10.309   7.213  0.0325 -0.3158 -0.3354
 1040YOPC   NC314827  17.454   0.539   4.951 -0.0829  0.0835  0.0558
 1040YOPC   PO414828  17.660   1.054   5.068  0.0646 -0.0430 -0.0187
 1040YOPC   GL114829  17.460   0.831   5.382  0.3724 -0.0190 -0.0254
 1040YOPC   GL214830  17.666   0.563   5.414  0.3170  0.1444 -0.2377
 1040YOPC   C1A14831  17.238   0.985   5.766 -0.1890 -0.6123 -0.4031
 1040YOPC   D2A14832  17.415   1.117   5.998  0.2189  0.0229  0.0134
 1040YOPC   C3A14833  17.536   0.762   6.321  0.0794 -0.0675 -0.0148
 1040YOPC   C4A14834  17.268   0.456   6.564 -0.2445 -0.1047  0.2992
 1040YOPC   C1B14835  17.598   0.260   5.627 -0.1050  0.3921  0.0997
 1040YOPC   C2B14836  17.199   0.044   5.720 -0.1580  0.0576 -0.3104
 1040YOPC   D3B14837  17.224  -0.374   5.646 -0.2587 -0.1282 -0.0832
 1040YOPC   C4B14838  17.214  -0.662   5.971 -0.0625  0.0233  0.5049
 1041YOPC   NC314839   8.542   8.588   4.981 -0.1141  0.2294 -0.0973
 1041YOPC   PO414840   8.247   8.307   5.051  0.1604 -0.0542 -0.0025
 1041YOPC   GL114841   8.247   8.674   5.427  0.1900 -0.0224 -0.0719
 1041YOPC   GL214842   8.618   8.840   5.563 -0.2597 -0.0548  0.0769
 1041YOPC   C1A14843   8.192   8.846   5.815  0.1542 -0.2339  0.1906
 1041YOPC   D2A14844   7.806   8.861   6.137 -0.2152 -0.3147 -0.1254
 1041YOPC   C3A14845   7.858   8.610   6.511 -0.1153 -0.0788  0.1262
 1041YOPC   C4A14846   7.959   8.448   6.931 -0.0292  0.3159 -0.3764
 1041YOPC   C1B14847   8.622   8.519   5.965 -0.1225 -0.2371  0.0282
 1041YOPC   C2B14848   8.516   7.988   6.081  0.2126  0.0423 -0.0079
 1041YOPC   D3B14849   8.348   7.750   6.421  0.1338 -0.0226 -0.0989
 1041YOPC   C4B14850   8.303   7.399   6.742  0.2288  0.1634  0.1543
 1042YOPC   NC314851   8.357  12.637   4.427 -0.1627 -0.4082  0.2680
 1042YOPC   PO414852   8.219  12.689   4.824 -0.1940  0.4113  0.1423
 1042YOPC   GL114853   8.131  12.815   5.279  0.0557 -0.2261 -0.2065
 1042YOPC   GL214854   8.458  12.850   5.462  0.0243  0.2556 -0.0516
 1042YOPC   C1A14855   8.162  13.279   5.360 -0.2848 -0.2604  0.1691
 1042YOPC   D2A14856   7.983  13.605   5.676 -0.1441 -0.0876 -0.0564
 1042YOPC   C3A14857   8.209  13.844   5.902  0.2721  0.0792  0.0879
 1042YOPC   C4A14858   8.586  13.830   6.176 -0.0136  0.0291 -0.2866
 1042YOPC   C1B14859   8.182  12.989   5.751 -0.2691  0.1098  0.1959
 1042YOPC   C2B14860   7.816  13.009   5.964 -0.1093 -0.0663 -0.0142
 1042YOPC   D3B14861   7.761  13.306   6.178 -0.0869 -0.0931 -0.1698
 1042YOPC   C4B14862   7.835  13.684   6.180 -0.2035 -0.1769  0.0252
 1043YOPC   NC314863   1.632   9.667   5.042  0.0851  0.2200 -0.2527
 1043YOPC   PO414864   1.958   9.532   5.262 -0.1336  0.0635  0.1740
 1043YOPC   GL114865   2.034   9.468   5.728  0.0352 -0.2670 -0.3196
 1043YOPC   GL214866   2.381   9.605   5.932  0.1948 -0.1192 -0.0316
 1043YOPC   C1A14867   1.938   9.892   6.004  0.0652 -0.0970 -0.1564
 1043YOPC   D2A14868   1.659   9.992   6.400 -0.3594 -0.0151  0.0200
 1043YOPC   C3A14869   1.758   9.934   6.741 -0.0867 -0.2477 -0.0802
 1043YOPC   C4A14870   1.829  10.190   7.039  0.2882 -0.3550 -0.0418
 1043YOPC   C1B14871   2.602   9.167   6.102 -0.1149  0.1242 -0.0442
 1043YOPC   C2B14872   2.896   9.063   6.475  0.0951 -0.2620 -0.5868
 1043YOPC   D3B14873   2.783   9.159   6.904  0.3189 -0.1328  0.1020
 1043YOPC   C4B14874   2.301   9.220   7.020 -0.1682  0.0688  0.1787
 1044YOPC   NC314875  18.500  17.711   5.079  0.1057  0.0449  0.2643
 1044YOPC   PO414876  18.509  18.006   5.269 -0.1158  0.0446 -0.1674
 1044YOPC   GL114877  18.487  18.450   5.605  0.2367  0.1245 -0.2927
 1044YOPC   GL214878  18.473  18.794   5.588 -0.1158  0.0842 -0.0621
 1044YOPC   C1A14879  18.701  18.572   6.024 -0.0813 -0.2237  0.3796
 1044YOPC   D2A14880  18.936  18.628   6.489  0.1339  0.0442  0.0346
 1044YOPC   C3A14881  19.390  18.678   6.464  0.0700  0.0121 -0.2198
 1044YOPC   C4A14882  19.670  19.092   6.462  0.0139  0.2011 -0.1205
 1044YOPC   C1B14883  18.362  18.987   5.941 -0.0952  0.0611 -0.3274
 1044YOPC   C2B14884  18.226  18.978   6.315 -0.1867 -0.3153 -0.0259
 1044YOPC   D3B14885  17.889  18.976   6.533  0.2910  0.1053  0.0705
 1044YOPC   C4B14886  17.604  19.252   6.848 -0.1446  0.1569  0.1268
 1045YOPC   NC314887  16.945   7.539   5.669  0.1874  0.0586  0.1111
 1045YOPC   PO414888  16.945   7.072   5.686  0.0248 -0.0692 -0.1498
 1045YOPC   GL114889  16.903   7.147   6.030  0.3816 -0.1899 -0.0600
 1045YOPC   GL214890  17.159   7.341   6.108 -0.1104  0.2660 -0.0409
 1045YOPC   C1A14891  16.761   6.891   6.299 -0.0503  0.0177 -0.0960
 1045YOPC   D2A14892  16.800   6.693   6.706 -0.0192  0.2569 -0.0027
 1045YOPC   C3A14893  16.505   6.555   6.903 -0.2461 -0.1103  0.2787
 1045YOPC   C4A14894  16.238   6.417   7.207 -0.1865  0.0095 -0.0332
 1045YOPC   C1B14895  17.424   7.554   6.371 -0.3130 -0.2346 -0.3247
 1045YOPC   C2B14896  17.665   7.467   6.676  0.0615 -0.0285  0.1439
 1045YOPC   D3B14897  17.528   7.051   6.914  0.0645 -0.1604 -0.3695
 1045YOPC   C4B14898  17.481   6.856   7.285  0.4055  0.1848 -0.2397
 1046YOPC   NC314899   5.557  19.132   5.489 -0.4422  0.1305 -0.3064
 1046YOPC   PO414900   5.477  18.694   5.558  0.1589  0.0938 -0.0280
 1046YOPC   GL114901   5.606  18.594   5.931  0.0281  0.2527 -0.3623
 1046YOPC   GL214902   5.669  18.231   5.988 -0.2483 -0.0205  0.0089
 1046YOPC   C1A14903   5.683  18.501   6.452  0.1281  0.2677  0.3425
 1046YOPC   D2A14904   5.737  18.566   6.976 -0.1308  0.2465 -0.1733
 1046YOPC   C3A14905   5.926  18.190   7.364 -0.0491 -0.0306  0.1730
 1046YOPC   C4A14906   6.246  18.010   7.458 -0.4091 -0.2192 -0.1675
 1046YOPC   C1B14907   5.678  17.878   6.354  0.0459  0.2055 -0.2813
 1046YOPC   C2B14908   5.855  17.963   6.765  0.1365 -0.1005 -0.0524
 1046YOPC   D3B14909   6.308  18.018   6.984 -0.1238  0.1019 -0.1293
 1046YOPC   C4B14910   6.692  17.979   7.219  0.0711 -0.1009  0.1135
 1047YOPC   NC314911   5.641  15.269   4.826  0.1325 -0.3582 -0.0474
 1047YOPC   PO414912   5.411  15.590   4.830  0.0669 -0.2325  0.0590
 1047YOPC   GL114913   5.708  15.555   5.231  0.1725 -0.1008  0.0636
 1047YOPC   GL214914   5.515  15.671   5.493  0.0810 -0.0508  0.1442
 1047YOPC   C1A14915   6.095  15.760   5.393 -0.0885 -0.1568  0.2455
 1047YOPC   D2A14916   6.468  16.060   5.466  0.2917  0.1883 -0.0618
 1047YOPC   C3A14917   6.736  15.855   5.806 -0.1695  0.0707  0.0709
 1047YOPC   C4A14918   6.826  15.605   6.165  0.3720  0.0397 -0.3814
 1047YOPC   C1B14919   5.609  15.991   5.784  0.1093 -0.0285 -0.0034
 1047YOPC   C2B14920   5.619  16.054   6.117  0.3398  0.4090 -0.1488
 1047YOPC   D3B14921   5.510  15.825   6.451 -0.0650 -0.2003 -0.1039
 1047YOPC   C4B14922   5.427  15.743   6.949  0.0040 -0.2243 -0.2835
 1048YOPC   NC314923  15.599  17.337   5.279  0.2467  0.0583  0.0693
 1048YOPC   PO414924  15.340  16.863   5.300 -0.1274 -0.0464  0.1112
 1048YOPC   GL114925  15.689  16.810   5.525 -0.3147 -0.0643  0.0476
 1048YOPC   GL214926  15.920  17.015   5.458  0.1304 -0.0556 -0.1780
 1048YOPC   C1A14927  15.718  16.851   5.922 -0.1625 -0.0921 -0.3314
 1048YOPC   D2A14928  15.780  17.064   6.244 -0.1167 -0.2117 -0.1496
 1048YOPC   C3A14929  15.556  17.292   6.330 -0.2246  0.1197 -0.0795
 1048YOPC   C4A14930  15.140  17.425   6.304 -0.3022 -0.1290 -0.1267
 1048YOPC   C1B14931  16.145  17.188   5.883 -0.1864 -0.0855  0.1937
 1048YOPC   C2B14932  16.260  17.402   6.304 -0.1526 -0.1566  0.0402
 1048YOPC   D3B14933  15.920  17.386   6.612 -0.1460  0.0452  0.5277
 1048YOPC   C4B14934  15.674  17.289   7.102  0.1302  0.6168 -0.0584
 1049YOPC   NC314935  12.529   3.907   5.244 -0.1736  0.1505  0.2577
 1049YOPC   PO414936  12.550   3.478   5.408  0.3195 -0.2609  0.1043
 1049YOPC   GL114937  12.285   3.281   5.747  0.1421  0.0990  0.1363
 1049YOPC   GL214938  12.581   3.137   6.029  0.4820 -0.3662 -0.5776
 1049YOPC   C1A14939  12.013   3.093   6.062  0.2500 -0.3498 -0.0687
 1049YOPC   D2A14940  11.741   2.959   6.388  0.1042 -0.0784  0.0938
 1049YOPC   C3A14941  11.664   3.061   6.755 -0.2364  0.0823  0.0999
 1049YOPC   C4A14942  11.281   3.090   6.946  0.1991 -0.1987  0.0250
 1049YOPC   C1B14943  12.447   3.115   6.293  0.2140 -0.0445 -0.0459
 1049YOPC   C2B14944  12.195   3.252   6.696 -0.0947  0.0088 -0.2524
 1049YOPC   D3B14945  12.265   3.625   6.817 -0.1522  0.3379  0.0006
 1049YOPC   C4B14946  12.561   3.713   7.104  0.0657 -0.0981  0.0873
 1050YOPC   NC314947  15.300   3.115   5.140 -0.1696 -0.0933  0.1640
 1050YOPC   PO414948  15.337   3.309   5.607 -0.0170  0.1198  0.3082
 1050YOPC   GL114949  15.289   3.107   5.975 -0.0901  0.5166 -0.1054
 1050YOPC   GL214950  15.037   3.300   6.077 -0.2016  0.1406 -0.0330
 1050YOPC   C1A14951  15.239   3.014   6.387 -0.0386  0.1424  0.1660
 1050YOPC   D2A14952  15.347   3.327   6.614 -0.0219 -0.0794 -0.1727
 1050YOPC   C3A14953  15.754   3.307   6.841 -0.0475 -0.1389 -0.0460
 1050YOPC   C4A14954  16.102   3.274   7.084  0.1601  0.1068  0.1317
 1050YOPC   C1B14955  14.846   3.350   6.491  0.1687  0.1170 -0.0648
 1050YOPC   C2B14956  14.568   3.343   6.738  0.1351  0.0209 -0.1452
 1050YOPC   D3B14957  14.475   3.654   7.141 -0.5186  0.3508  0.0441
 1050YOPC   C4B14958  14.447   3.950   7.510 -0.4268  0.2483  0.4962
 1051YOPC   NC314959  14.425  15.853   5.027 -0.1965 -0.0564 -0.0699
 1051YOPC   PO414960  14.672  16.138   4.943  0.2483 -0.2600 -0.0254
 1051YOPC   GL114961  14.817  16.222   5.366 -0.2338  0.0801  0.2467
 1051YOPC   GL214962  14.983  16.533   5.350  0.1864 -0.0574  0.0249
 1051YOPC   C1A14963  14.928  16.267   5.866 -0.2027 -0.0564 -0.0329
 1051YOPC   D2A14964  14.874  15.928   6.114 -0.2066 -0.0962 -0.0456
 1051YOPC   C3A14965  14.643  16.027   6.503 -0.1153  0.2355 -0.2012
 1051YOPC   C4A14966  14.262  16.003   6.783 -0.1040 -0.1181  0.3359
 1051YOPC   C1B14967  14.716  16.680   5.711 -0.3301 -0.0535 -0.5864
 1051YOPC   C2B14968  14.345  16.739   5.932 -0.0897  0.2746 -0.2336
 1051YOPC   D3B14969  14.332  16.896   6.409 -0.0339  0.2783 -0.1753
 1051YOPC   C4B14970  14.295  16.907   6.834 -0.1957  0.0333  0.0839
 1052YOPC   NC314971   3.845  10.620   4.918  0.1732 -0.0642 -0.1692
 1052YOPC   PO414972   3.966  10.998   4.889  0.0734  0.1795 -0.0471
 1052YOPC   GL114973   3.872  11.045   5.289  0.3799  0.1454 -0.0825
 1052YOPC   GL214974   3.549  10.871   5.258 -0.2797 -0.0418 -0.0694
 1052YOPC   C1A14975   3.730  11.297   5.653  0.4054  0.0819 -0.1612
 1052YOPC   D2A14976   3.496  11.388   6.077 -0.1082  0.0759 -0.0285
 1052YOPC   C3A14977   3.591  11.692   6.369  0.0713 -0.0351  0.3255
 1052YOPC   C4A14978   3.493  11.855   6.672 -0.0751  0.0200  0.2257
 1052YOPC   C1B14979   3.479  10.878   5.744  0.1753  0.1249  0.2570
 1052YOPC   C2B14980   3.792  10.998   6.076  0.0814  0.4615  0.1021
 1052YOPC   D3B14981   3.600  11.197   6.480 -0.0996 -0.0516 -0.3022
 1052YOPC   C4B14982   3.659  11.006   6.917 -0.3793  0.0654 -0.0885
 1053YOPC   NC314983   1.599  13.336   5.517 -0.2569 -0.1571  0.1726
 1053YOPC   PO414984   1.583  12.914   5.418 -0.2661 -0.0797  0.3212
 1053YOPC   GL114985   1.826  12.855   5.806  0.4466 -0.3755 -0.2579
 1053YOPC   GL214986   2.133  12.819   5.766 -0.1822 -0.1400 -0.1795
 1053YOPC   C1A14987   1.835  12.833   6.237  0.1768 -0.0425 -0.1952
 1053YOPC   D2A14988   1.704  13.225   6.480  0.3465  0.3603 -0.0096
 1053YOPC   C3A14989   1.674  13.233   6.911  0.1946 -0.1076  0.0251
 1053YOPC   C4A14990   1.631  13.235   7.295  0.0627 -0.0233 -0.2278
 1053YOPC   C1B14991   2.319  12.443   5.945 -0.2434  0.0944  0.0896
 1053YOPC   C2B14992   2.586  12.101   5.890 -0.1364 -0.0954 -0.2783
 1053YOPC   D3B14993   2.848  12.040   6.229  0.1155 -0.0767  0.0663
 1053YOPC   C4B14994   2.942  11.856   6.554  0.0859 -0.1884 -0.1658
 1054YOPC   NC314995   0.556  17.779   4.918  0.2579 -0.0230 -0.1547
 1054YOPC   PO414996   0.870  17.995   5.179  0.2095  0.1587 -0.0717
 1054YOPC   GL114997   0.860  18.041   5.584 -0.1138  0.1080  0.0918
 1054YOPC   GL214998   0.549  17.935   5.776  0.1762  0.1861  0.2139
 1054YOPC   C1A14999   0.992  18.161   5.976 -0.1762  0.0706  0.0515
 1054YOPC   D2A15000   0.875  18.202   6.465  0.2167  0.2543  0.0442
 1054YOPC   C3A15001   1.136  18.027   6.779 -0.0993  0.0294  0.2269
 1054YOPC   C4A15002   1.242  17.891   7.223 -0.0605 -0.0553  0.2062
 1054YOPC   C1B15003   0.359  17.750   6.145  0.3670  0.2404 -0.0804
 1054YOPC   C2B15004   0.218  17.774   6.591  0.1970 -0.1407 -0.0108
 1054YOPC   D3B15005   0.014  17.411   6.766 -0.0628  0.0269  0.1403
 1054YOPC   C4B15006  -0.164  16.980   6.963  0.0861  0.2860 -0.1492
 1055YOPC   NC315007   0.478  13.267   5.192  0.1202 -0.2071  0.0764
 1055YOPC   PO415008   0.604  13.660   5.037  0.3404  0.2220  0.2652
 1055YOPC   GL115009   0.643  13.644   5.481 -0.0370  0.2574  0.0130
 1055YOPC   GL215010   0.569  13.800   5.830  0.2803 -0.1641 -0.0541
 1055YOPC   C1A15011   0.525  13.351   5.880 -0.0890  0.3431  0.0716
 1055YOPC   D2A15012   0.359  13.314   6.330  0.0583 -0.2471 -0.1276
 1055YOPC   C3A15013   0.332  12.870   6.539  0.1072 -0.1801  0.3579
 1055YOPC   C4A15014   0.457  12.794   6.966 -0.0269 -0.2100  0.0037
 1055YOPC   C1B15015   0.334  14.132   6.113  0.0321 -0.1355 -0.2110
 1055YOPC   C2B15016   0.288  14.371   6.586  0.0746  0.1757  0.3582
 1055YOPC   D3B15017   0.454  14.754   6.590 -0.0730 -0.0076  0.0208
 1055YOPC   C4B15018   0.357  14.978   6.983  0.1750 -0.0973  0.1743
 1056YOPC   NC315019   5.457  10.889   5.205 -0.0900 -0.0138  0.1980
 1056YOPC   PO415020   5.084  10.792   5.290  0.0009  0.1143 -0.1649
 1056YOPC   GL115021   5.013  10.731   5.725 -0.4657  0.1501  0.0825
 1056YOPC   GL215022   4.604  10.775   5.784 -0.0380  0.1075 -0.1579
 1056YOPC   C1A15023   4.913  10.891   6.146  0.1618  0.2239  0.0880
 1056YOPC   D2A15024   4.588  10.741   6.370  0.1214 -0.0038 -0.0094
 1056YOPC   C3A15025   4.231  10.654   6.110 -0.0963 -0.2582  0.0887
 1056YOPC   C4A15026   3.816  10.488   6.097 -0.2755 -0.1283  0.1256
 1056YOPC   C1B15027   4.774  10.421   6.025  0.2174  0.1246 -0.3934
 1056YOPC   C2B15028   4.762  10.249   6.463 -0.3264 -0.1409 -0.3244
 1056YOPC   D3B15029   4.533   9.945   6.736 -0.0863 -0.2581 -0.0472
 1056YOPC   C4B15030   4.472   9.643   7.031 -0.2153 -0.0844 -0.1855
 1057YOPC   NC315031  14.404  14.056   5.116  0.4089  0.3530 -0.2555
 1057YOPC   PO415032  14.712  14.429   5.161 -0.3590  0.1805 -0.1374
 1057YOPC   GL115033  14.734  14.408   5.486 -0.3983 -0.1130 -0.1275
 1057YOPC   GL215034  14.943  14.220   5.666  0.0532 -0.3437 -0.2068
 1057YOPC   C1A15035  14.536  14.527   5.831  0.2968 -0.0207  0.0513
 1057YOPC   D2A15036  14.396  14.305   6.179 -0.1604  0.1150 -0.2246
 1057YOPC   C3A15037  14.151  13.908   6.186 -0.2025  0.1744  0.0052
 1057YOPC   C4A15038  14.186  13.604   6.529  0.0038  0.0515 -0.0356
 1057YOPC   C1B15039  14.896  14.388   6.109  0.2422 -0.2885  0.3697
 1057YOPC   C2B15040  14.795  14.506   6.515 -0.1776  0.3783 -0.0498
 1057YOPC   D3B15041  14.349  14.542   6.698 -0.0060  0.0176  0.1398
 1057YOPC   C4B15042  13.957  14.170   6.545  0.0050 -0.2892  0.0862
 1058YOPC   NC315043   8.013   4.115   5.721  0.0987  0.2366  0.0857
 1058YOPC   PO415044   8.310   3.814   5.718 -0.2655 -0.1312  0.0859
 1058YOPC   GL115045   8.361   3.463   5.977  0.1923 -0.0635  0.1486
 1058YOPC   GL215046   8.597   3.287   6.029  0.0761  0.1287  0.1165
 1058YOPC   C1A15047   8.347   3.441   6.442  0.3526  0.0738 -0.1498
 1058YOPC   D2A15048   8.083   3.199   6.783  0.0731 -0.0708  0.1802
 1058YOPC   C3A15049   7.755   3.103   7.095  0.0980  0.2885  0.0006
 1058YOPC   C4A15050   7.622   3.109   7.598 -0.1051 -0.1617 -0.0736
 1058YOPC   C1B15051   8.818   3.565   6.473 -0.0495 -0.2023  0.1334
 1058YOPC   C2B15052   8.925   3.789   6.886  0.0336  0.1345 -0.2139
 1058YOPC   D3B15053   9.221   3.813   7.120  0.0472 -0.0952 -0.1227
 1058YOPC   C4B15054   9.426   3.905   7.440  0.1893  0.1204  0.2126
 1059YOPC   NC315055  16.266  12.964   5.460 -0.2748  0.1027  0.1427
 1059YOPC   PO415056  15.709  12.960   5.425  0.0679 -0.0001 -0.3468
 1059YOPC   GL115057  15.658  12.813   5.785 -0.3048  0.1781  0.0279
 1059YOPC   GL215058  15.387  12.693   5.851  0.0558 -0.1532  0.1406
 1059YOPC   C1A15059  15.702  12.814   6.250  0.0564 -0.1023 -0.1262
 1059YOPC   D2A15060  15.589  12.680   6.685 -0.2587  0.0084 -0.1386
 1059YOPC   C3A15061  15.765  12.320   6.833 -0.0444 -0.2111  0.0747
 1059YOPC   C4A15062  15.590  11.921   6.906 -0.0498  0.1123  0.0516
 1059YOPC   C1B15063  15.143  12.624   6.239  0.1840  0.1689  0.0233
 1059YOPC   C2B15064  15.029  12.427   6.605 -0.2360 -0.1469  0.1020
 1059YOPC   D3B15065  15.344  12.418   7.034 -0.2457  0.0167 -0.1090
 1059YOPC   C4B15066  15.292  12.481   7.452 -0.4986 -0.1747 -0.4544
 1060YOPC   NC315067  11.410   8.845   4.766  0.0183 -0.1166 -0.0098
 1060YOPC   PO415068  11.644   8.699   5.249  0.1390  0.3471  0.3081
 1060YOPC   GL115069  11.851   8.559   5.597 -0.0318 -0.3001  0.1424
 1060YOPC   GL215070  12.176   8.319   5.703 -0.1540 -0.1033  0.1881
 1060YOPC   C1A15071  11.508   8.413   5.908 -0.4561  0.1891  0.0530
 1060YOPC   D2A15072  11.218   8.249   6.174 -0.2617  0.2257 -0.1717
 1060YOPC   C3A15073  11.292   8.324   6.641 -0.0843 -0.3245  0.2945
 1060YOPC   C4A15074  11.243   8.423   6.945  0.0845  0.1775 -0.1926
 1060YOPC   C1B15075  12.212   8.758   5.927  0.0915  0.1368  0.2358
 1060YOPC   C2B15076  12.267   8.804   6.252  0.1808  0.0486 -0.0497
 1060YOPC   D3B15077  12.574   8.584   6.511 -0.0240 -0.0944 -0.0222
 1060YOPC   C4B15078  12.563   8.294   6.804  0.5044 -0.1229 -0.1369
 1061YOPC   NC315079   9.219  13.103   5.284 -0.3693 -0.1868 -0.2063
 1061YOPC   PO415080   9.500  12.825   5.467 -0.0181 -0.3861 -0.2416
 1061YOPC   GL115081   9.668  12.948   5.806  0.2017  0.1601  0.3292
 1061YOPC   GL215082   9.250  13.130   5.807  0.1009 -0.1392  0.2011
 1061YOPC   C1A15083   9.842  12.772   6.132 -0.0120  0.1922  0.0587
 1061YOPC   D2A15084  10.297  12.712   6.044  0.1790 -0.1727  0.2510
 1061YOPC   C3A15085  10.521  12.792   6.342 -0.2792 -0.1141  0.2756
 1061YOPC   C4A15086  10.334  12.530   6.628 -0.0396 -0.1078  0.0698
 1061YOPC   C1B15087   9.329  12.798   6.211 -0.0403 -0.0240  0.0384
 1061YOPC   C2B15088   9.440  12.617   6.544 -0.0246 -0.1243 -0.0830
 1061YOPC   D3B15089   9.758  12.843   6.631 -0.1517 -0.1303 -0.0198
 1061YOPC   C4B15090  10.100  12.970   6.778  0.0802  0.1880 -0.0075
 1062YOPC   NC315091   1.085   9.378   5.320 -0.1103 -0.0225  0.2829
 1062YOPC   PO415092   1.166   9.486   5.820  0.1055  0.1709  0.0787
 1062YOPC   GL115093   1.335   9.969   5.916 -0.0404 -0.0989 -0.3475
 1062YOPC   GL215094   1.407  10.222   5.685  0.0618  0.2069 -0.1850
 1062YOPC   C1A15095   1.408  10.370   6.269 -0.0900 -0.1113 -0.1027
 1062YOPC   D2A15096   1.517  10.739   6.324 -0.2308  0.0015  0.2941
 1062YOPC   C3A15097   1.635  11.003   6.659  0.1669 -0.1191  0.3499
 1062YOPC   C4A15098   1.589  11.341   6.809  0.0142  0.0457  0.3182
 1062YOPC   C1B15099   1.392  10.606   5.836 -0.1256 -0.0057  0.1191
 1062YOPC   C2B15100   1.621  10.971   5.870 -0.1213  0.2865  0.0456
 1062YOPC   D3B15101   1.861  11.004   6.140  0.0709 -0.2542  0.0296
 1062YOPC   C4B15102   2.017  11.392   6.431  0.2449  0.1522  0.2772
 1063YOPC   NC315103  11.995   5.996   4.870 -0.0459  0.0717 -0.0595
 1063YOPC   PO415104  12.153   6.034   5.242 -0.1737 -0.2751  0.0338
 1063YOPC   GL115105  12.222   5.896   5.706 -0.1711  0.0537  0.1489
 1063YOPC   GL215106  12.023   6.010   5.968  0.2011  0.0102  0.1235
 1063YOPC   C1A15107  12.475   5.951   5.986 -0.0537  0.5184 -0.1432
 1063YOPC   D2A15108  12.552   5.776   6.271 -0.1630 -0.0491  0.2804
 1063YOPC   C3A15109  12.947   5.596   6.208  0.0100  0.0856 -0.1285
 1063YOPC   C4A15110  13.312   5.409   6.312 -0.1244  0.2368  0.2957
 1063YOPC   C1B15111  12.190   6.157   6.307  0.3493  0.2098 -0.0853
 1063YOPC   C2B15112  12.021   6.205   6.697  0.1095 -0.1378 -0.2967
 1063YOPC   D3B15113  12.315   6.112   7.117  0.0852 -0.0029 -0.0508
 1063YOPC   C4B15114  12.739   6.094   7.313 -0.1248  0.0092  0.0818
 1064YOPC   NC315115   9.633  18.038   4.615 -0.1220  0.1268 -0.1574
 1064YOPC   PO415116   9.951  18.230   4.873  0.0106  0.0394  0.0281
 1064YOPC   GL115117   9.999  18.135   5.255  0.2385  0.1130 -0.0651
 1064YOPC   GL215118   9.771  18.307   5.423  0.1341  0.2726  0.1321
 1064YOPC   C1A15119   9.979  17.980   5.814 -0.0453 -0.0696 -0.0618
 1064YOPC   D2A15120  10.357  17.994   6.166 -0.3385  0.1613 -0.0674
 1064YOPC   C3A15121  10.478  18.395   6.484 -0.2697  0.2029 -0.0253
 1064YOPC   C4A15122  10.512  18.453   6.994 -0.0054 -0.0786  0.2787
 1064YOPC   C1B15123   9.852  18.500   5.757  0.0493  0.0597  0.2275
 1064YOPC   C2B15124  10.237  18.434   6.044 -0.0183 -0.1637  0.2479
 1064YOPC   D3B15125  10.751  18.374   6.049 -0.0032  0.0694 -0.2504
 1064YOPC   C4B15126  11.042  18.561   5.783  0.3578 -0.2202 -0.0647
 1065YOPC   NC315127   2.048  15.654   5.585 -0.0412 -0.2809  0.1912
 1065YOPC   PO415128   2.562  15.426   5.466  0.1077  0.0650  0.2223
 1065YOPC   GL115129   2.897  15.409   5.786  0.1689 -0.1092  0.1874
 1065YOPC   GL215130   3.129  15.422   5.669 -0.0630 -0.2072  0.1796
 1065YOPC   C1A15131   2.912  15.291   6.174  0.0548 -0.1022  0.2957
 1065YOPC   D2A15132   2.933  15.119   6.615  0.0039  0.1906 -0.3880
 1065YOPC   C3A15133   2.857  14.640   6.477  0.0926 -0.1304  0.1312
 1065YOPC   C4A15134   2.828  14.318   6.134  0.0205 -0.5262  0.1159
 1065YOPC   C1B15135   3.508  15.138   5.904  0.2347  0.2441 -0.0399
 1065YOPC   C2B15136   3.812  15.179   6.191 -0.0398 -0.1251  0.0215
 1065YOPC   D3B15137   4.040  15.002   6.510  0.3345  0.0457  0.3239
 1065YOPC   C4B15138   4.239  14.604   6.632 -0.0984 -0.0208 -0.1442
 1066YOPC   NC315139  18.840   0.705   4.923  0.1156  0.3244  0.1838
 1066YOPC   PO415140  18.426   0.422   5.232 -0.1171 -0.2184  0.1151
 1066YOPC   GL115141  18.180   0.444   5.591 -0.0770  0.1249 -0.3297
 1066YOPC   GL215142  18.386   0.220   5.695  0.1686 -0.0072 -0.1870
 1066YOPC   C1A15143  18.318   0.701   5.895 -0.0457 -0.0275  0.0047
 1066YOPC   D2A15144  18.365   0.780   6.296  0.1304 -0.0742 -0.0997
 1066YOPC   C3A15145  18.317   0.501   6.732  0.2856 -0.0332 -0.0868
 1066YOPC   C4A15146  18.160   0.097   6.912  0.3712 -0.0607 -0.1518
 1066YOPC   C1B15147  18.478   0.199   6.240  0.0477  0.2040  0.3479
 1066YOPC   C2B15148  18.514   0.092   6.525 -0.2454 -0.4455  0.1135
 1066YOPC   D3B15149  18.633  -0.216   6.646  0.0821  0.1510  0.0576
 1066YOPC   C4B15150  18.298  -0.466   6.824 -0.3841 -0.3313  0.0715
 1067YOPC   NC315151   6.660   5.901   5.941  0.2200 -0.0491 -0.1317
 1067YOPC   PO415152   6.763   5.419   5.869  0.0251 -0.1360 -0.3696
 1067YOPC   GL115153   6.985   5.652   6.225 -0.1600  0.0297  0.3365
 1067YOPC   GL215154   6.951   6.013   6.320 -0.0535 -0.1316 -0.1432
 1067YOPC   C1A15155   7.296   5.507   6.398 -0.3293  0.0368 -0.2634
 1067YOPC   D2A15156   7.636   5.462   6.595  0.0457 -0.0741 -0.1836
 1067YOPC   C3A15157   7.647   5.388   6.979 -0.0138 -0.3282  0.1829
 1067YOPC   C4A15158   7.400   5.344   7.327 -0.1487 -0.0703  0.0740
 1067YOPC   C1B15159   6.889   5.883   6.702 -0.1684 -0.1116  0.0573
 1067YOPC   C2B15160   7.237   5.672   6.891  0.2407  0.0751 -0.0451
 1067YOPC   D3B15161   7.495   5.870   7.259  0.3522 -0.2090 -0.1958
 1067YOPC   C4B15162   7.223   5.886   7.740 -0.1132 -0.0562 -0.4421
 1068YOPC   NC315163   2.681  12.128   5.126  0.1241 -0.1662 -0.1436
 1068YOPC   PO415164   3.198  12.211   5.230  0.1605  0.0088 -0.3452
 1068YOPC   GL115165   3.197  12.309   5.756  0.3115  0.2346  0.0952
 1068YOPC   GL215166   3.573  12.195   5.853  0.1683 -0.0647  0.0510
 1068YOPC   C1A15167   3.303  12.238   6.290 -0.0114 -0.0776  0.0924
 1068YOPC   D2A15168   3.138  12.332   6.679 -0.2940  0.1628  0.1765
 1068YOPC   C3A15169   3.089  12.739   6.828 -0.1270 -0.2170 -0.1033
 1068YOPC   C4A15170   3.056  12.991   7.180  0.2311  0.0104 -0.0144
 1068YOPC   C1B15171   3.285  11.840   5.885 -0.0014 -0.2451  0.1091
 1068YOPC   C2B15172   3.042  11.531   6.171  0.1839 -0.0112  0.2002
 1068YOPC   D3B15173   3.156  11.412   6.614  0.2767 -0.0151  0.0822
 1068YOPC   C4B15174   3.078  11.269   6.986  0.2260  0.1053 -0.3122
 1069YOPC   NC315175   7.961   1.070   5.797  0.2098  0.0995  0.1636
 1069YOPC   PO415176   7.495   1.190   5.636  0.3105 -0.1816  0.4186
 1069YOPC   GL115177   7.468   1.094   6.046  0.4476 -0.2296  0.0473
 1069YOPC   GL215178   7.642   0.830   6.099  0.1731  0.1022  0.0964
 1069YOPC   C1A15179   7.118   1.108   6.292  0.0145 -0.0396  0.0934
 1069YOPC   D2A15180   6.891   1.186   6.601 -0.2369  0.2194  0.2502
 1069YOPC   C3A15181   6.954   0.858   6.934  0.1508  0.3129  0.2568
 1069YOPC   C4A15182   7.201   0.710   7.217  0.1262 -0.2317 -0.1157
 1069YOPC   C1B15183   7.675   0.952   6.564 -0.0117 -0.0762 -0.0116
 1069YOPC   C2B15184   7.951   1.147   6.787  0.0239  0.1770  0.1545
 1069YOPC   D3B15185   7.971   1.330   7.115  0.0691 -0.0086  0.1318
 1069YOPC   C4B15186   7.767   1.233   7.421 -0.1253 -0.0853 -0.1787
 1070YOPC   NC315187  15.098  17.967   5.444  0.0890  0.0394  0.1777
 1070YOPC   PO415188  15.563  17.777   5.484 -0.1472  0.2652 -0.2167
 1070YOPC   GL115189  15.266  17.675   5.886  0.0522 -0.2940 -0.0157
 1070YOPC   GL215190  15.301  18.084   5.891  0.1819 -0.1547 -0.0993
 1070YOPC   C1A15191  14.874  17.865   6.011  0.1332  0.3743  0.1020
 1070YOPC   D2A15192  14.356  17.796   6.072  0.2871 -0.3032 -0.2149
 1070YOPC   C3A15193  14.198  17.908   6.486  0.0788  0.0421 -0.0716
 1070YOPC   C4A15194  13.896  17.929   6.940 -0.2428 -0.2004 -0.1418
 1070YOPC   C1B15195  15.232  18.076   6.349 -0.3548 -0.3420 -0.3467
 1070YOPC   C2B15196  15.187  18.054   6.840  0.0682 -0.2831  0.0255
 1070YOPC   D3B15197  15.261  18.183   7.386 -0.0100  0.0123 -0.0794
 1070YOPC   C4B15198  15.398  18.380   7.685 -0.1417 -0.5599 -0.0298
 1071YOPC   NC315199   4.192   8.054   5.596 -0.2913 -0.2377  0.1337
 1071YOPC   PO415200   4.462   8.363   5.814  0.0541  0.0243 -0.1775
 1071YOPC   GL115201   4.406   8.291   6.201  0.3241  0.1211  0.2518
 1071YOPC   GL215202   4.113   8.494   6.284 -0.3476  0.0413 -0.0862
 1071YOPC   C1A15203   4.515   8.377   6.514 -0.2628 -0.1504 -0.1000
 1071YOPC   D2A15204   4.354   8.213   7.019 -0.0845 -0.1608 -0.0736
 1071YOPC   C3A15205   4.506   8.284   7.409 -0.1143 -0.1175 -0.2970
 1071YOPC   C4A15206   4.983   8.479   7.436 -0.1002 -0.0033  0.3441
 1071YOPC   C1B15207   3.980   8.328   6.705  0.1495  0.3035 -0.1052
 1071YOPC   C2B15208   3.704   8.020   6.938  0.2528 -0.0429  0.1199
 1071YOPC   D3B15209   3.666   7.954   7.317  0.4324  0.0635  0.1515
 1071YOPC   C4B15210   3.575   7.520   7.472 -0.0267 -0.2292 -0.3581
 1072YOPC   NC315211  12.755  18.306   5.430 -0.0229  0.2958 -0.4000
 1072YOPC   PO415212  12.989  18.648   5.487 -0.0852 -0.1613 -0.3113
 1072YOPC   GL115213  12.813  18.656   5.861  0.1989 -0.2239  0.0076
 1072YOPC   GL215214  13.160  18.350   6.048 -0.0198 -0.1197  0.2078
 1072YOPC   C1A15215  12.608  18.485   6.244 -0.0776 -0.0504 -0.0918
 1072YOPC   D2A15216  12.351  18.175   6.557 -0.1609  0.1977  0.3877
 1072YOPC   C3A15217  12.593  18.224   6.951  0.1802 -0.0329  0.1643
 1072YOPC   C4A15218  12.742  18.609   7.101 -0.1003  0.0306  0.0899
 1072YOPC   C1B15219  13.410  18.544   6.359  0.1429 -0.1630 -0.2005
 1072YOPC   C2B15220  13.448  18.837   6.533 -0.0641  0.0811  0.1316
 1072YOPC   D3B15221  13.231  18.934   6.897 -0.1302  0.3834 -0.0953
 1072YOPC   C4B15222  13.364  19.055   7.289  0.2688 -0.2021 -0.2587
 1073YOPC   NC315223  16.484  18.840   5.258  0.0327 -0.0740  0.0732
 1073YOPC   PO415224  16.670  18.491   5.315 -0.0295  0.1231 -0.0555
 1073YOPC   GL115225  16.343  18.361   5.572 -0.2881 -0.0613 -0.2642
 1073YOPC   GL215226  16.248  18.686   5.759 -0.1512 -0.2560 -0.2523
 1073YOPC   C1A15227  16.217  18.202   6.025  0.0629 -0.1005 -0.1580
 1073YOPC   D2A15228  15.777  18.216   6.150  0.0805  0.1042  0.2407
 1073YOPC   C3A15229  15.725  17.834   6.365 -0.0513 -0.3210 -0.0138
 1073YOPC   C4A15230  15.530  17.667   6.747 -0.1352  0.1262 -0.4109
 1073YOPC   C1B15231  16.361  18.628   6.198 -0.2562 -0.0601  0.2753
 1073YOPC   C2B15232  16.740  18.688   6.474 -0.1269  0.2013  0.0441
 1073YOPC   D3B15233  16.608  18.917   6.890  0.1406 -0.0808 -0.1096
 1073YOPC   C4B15234  16.623  19.297   7.083 -0.1390  0.3102  0.0844
 1074YOPC   NC315235  18.204  14.893   5.120 -0.1404 -0.0003  0.0791
 1074YOPC   PO415236  17.846  15.256   5.281  0.2693 -0.1157  0.1458
 1074YOPC   GL115237  17.823  15.544   5.679  0.0011 -0.3037  0.1965
 1074YOPC   GL215238  17.488  15.624   5.927 -0.1828 -0.0917 -0.0068
 1074YOPC   C1A15239  17.975  15.361   6.003 -0.1414  0.0640 -0.1756
 1074YOPC   D2A15240  17.804  15.395   6.319 -0.1343 -0.2149 -0.3238
 1074YOPC   C3A15241  17.866  15.216   6.756 -0.0392  0.1661  0.0138
 1074YOPC   C4A15242  17.593  15.304   7.020  0.1082  0.0098  0.0758
 1074YOPC   C1B15243  17.083  15.418   6.076 -0.0765 -0.0638  0.2835
 1074YOPC   C2B15244  16.845  15.474   6.417 -0.0053 -0.0655 -0.1117
 1074YOPC   D3B15245  17.094  15.413   6.832  0.0492  0.0690 -0.1308
 1074YOPC   C4B15246  17.103  15.188   7.255  0.0951  0.1320  0.0542
 1075YOPC   NC315247   8.928  11.921   5.315  0.3205  0.1693 -0.2164
 1075YOPC   PO415248   8.524  11.894   5.146  0.0489 -0.1302 -0.0206
 1075YOPC   GL115249   8.580  12.213   5.621  0.0494 -0.1141 -0.2723
 1075YOPC   GL215250   8.288  12.394   5.659  0.0656 -0.0042  0.1213
 1075YOPC   C1A15251   8.675  12.265   6.085 -0.1782 -0.3777  0.0993
 1075YOPC   D2A15252   8.629  12.226   6.542  0.2440  0.1964  0.2062
 1075YOPC   C3A15253   8.580  11.873   6.863 -0.0604  0.2509  0.2261
 1075YOPC   C4A15254   8.322  11.454   7.024  0.2858 -0.4791 -0.1573
 1075YOPC   C1B15255   8.305  12.614   6.001 -0.3003  0.2462 -0.2453
 1075YOPC   C2B15256   8.358  12.897   6.288  0.0469  0.1152 -0.0838
 1075YOPC   D3B15257   8.580  12.779   6.667 -0.0191 -0.0735  0.1209
 1075YOPC   C4B15258   8.836  12.846   7.023  0.1314 -0.2093  0.1279
 1076YOPC   NC315259  12.557   1.108   4.953  0.2561  0.0318 -0.0302
 1076YOPC   PO415260  12.480   1.157   5.397 -0.1449 -0.0918 -0.0364
 1076YOPC   GL115261  12.522   0.864   5.892 -0.1364 -0.0985 -0.1499
 1076YOPC   GL215262  12.822   0.919   5.914  0.1927  0.2306  0.1698
 1076YOPC   C1A15263  12.424   0.724   6.297  0.0205 -0.0096  0.3862
 1076YOPC   D2A15264  12.486   0.773   6.782  0.1338 -0.0633  0.1230
 1076YOPC   C3A15265  12.500   0.464   7.074  0.0535 -0.2553  0.0302
 1076YOPC   C4A15266  12.271   0.597   7.469  0.1978 -0.0453  0.0334
 1076YOPC   C1B15267  13.015   1.064   6.314 -0.0804  0.1112 -0.0607
 1076YOPC   C2B15268  12.742   1.109   6.570 -0.1930 -0.2965 -0.1225
 1076YOPC   D3B15269  12.876   1.343   6.909 -0.0532 -0.0859 -0.0118
 1076YOPC   C4B15270  12.887   1.662   6.990 -0.0821 -0.2107 -0.3138
 1077YOPC   NC315271   7.387   9.751   4.854  0.1327  0.0540 -0.0527
 1077YOPC   PO415272   7.777   9.740   5.004  0.1207 -0.3263  0.2049
 1077YOPC   GL115273   7.984   9.620   5.389  0.0435  0.1572  0.0002
 1077YOPC   GL215274   7.949   9.911   5.552  0.0332 -0.1768  0.3230
 1077YOPC   C1A15275   7.806   9.447   5.702  0.1991 -0.1052 -0.2386
 1077YOPC   D2A15276   7.623   9.623   6.065 -0.2240 -0.1261  0.4947
 1077YOPC   C3A15277   7.811   9.763   6.450 -0.3802 -0.0467  0.2147
 1077YOPC   C4A15278   7.771   9.768   6.974 -0.3114 -0.1699  0.0442
 1077YOPC   C1B15279   8.013   9.938   5.955 -0.0131 -0.1236 -0.0206
 1077YOPC   C2B15280   8.235   9.884   6.241  0.5248 -0.1501 -0.4992
 1077YOPC   D3B15281   8.441  10.184   6.495 -0.1177  0.0590  0.0629
 1077YOPC   C4B15282   8.456  10.187   6.884  0.1918 -0.2478 -0.0186
 1078YOPC   NC315283   6.962  17.862   5.024  0.0991  0.0394 -0.0440
 1078YOPC   PO415284   6.960  17.506   4.719  0.0090  0.2282 -0.1857
 1078YOPC   GL115285   7.069  17.389   5.142  0.1774 -0.0682  0.0963
 1078YOPC   GL215286   7.207  17.028   5.316  0.1546  0.1513 -0.1125
 1078YOPC   C1A15287   6.939  17.472   5.569 -0.0818 -0.1090 -0.1911
 1078YOPC   D2A15288   6.881  17.781   5.874  0.1530  0.0387  0.0512
 1078YOPC   C3A15289   6.771  18.013   6.222 -0.0041 -0.0486  0.1039
 1078YOPC   C4A15290   6.960  18.303   6.398  0.2733 -0.1417 -0.1932
 1078YOPC   C1B15291   7.170  17.052   5.740 -0.1290 -0.1590  0.0639
 1078YOPC   C2B15292   7.322  16.736   6.011  0.2761  0.2652 -0.0876
 1078YOPC   D3B15293   7.481  16.697   6.364 -0.2261  0.4094 -0.2963
 1078YOPC   C4B15294   7.629  16.633   6.732 -0.2042  0.1428  0.1605
 1079YOPC   NC315295  16.003   7.140   5.561 -0.2152 -0.0818  0.2226
 1079YOPC   PO415296  16.003   6.753   5.838  0.0796 -0.3241  0.3046
 1079YOPC   GL115297  15.990   6.993   6.214  0.2432 -0.0421  0.2277
 1079YOPC   GL215298  16.130   7.305   6.197 -0.1202 -0.3475  0.2859
 1079YOPC   C1A15299  16.324   6.966   6.476  0.1059 -0.1274 -0.1635
 1079YOPC   D2A15300  16.607   7.296   6.436  0.0256  0.1901 -0.2917
 1079YOPC   C3A15301  16.921   7.601   6.569 -0.1740  0.0945  0.0480
 1079YOPC   C4A15302  17.230   7.613   6.867 -0.0624  0.2180 -0.0450
 1079YOPC   C1B15303  16.096   7.790   6.251  0.0520 -0.0903 -0.3290
 1079YOPC   C2B15304  16.098   8.176   6.428 -0.3914  0.0698 -0.3628
 1079YOPC   D3B15305  16.146   8.177   6.829  0.3607  0.3118 -0.0480
 1079YOPC   C4B15306  16.411   8.104   7.135  0.1947 -0.3610 -0.0671
 1080YOPC   NC315307  16.100   5.892   5.681 -0.0525  0.1502 -0.1763
 1080YOPC   PO415308  15.678   5.712   5.772 -0.1849 -0.0982  0.1216
 1080YOPC   GL115309  15.437   5.898   6.110  0.2511  0.0302  0.1971
 1080YOPC   GL215310  15.396   6.291   6.127  0.1371 -0.0548  0.2233
 1080YOPC   C1A15311  15.506   5.972   6.536 -0.0946  0.0666  0.2207
 1080YOPC   D2A15312  15.410   6.377   6.881 -0.1605  0.4599 -0.1256
 1080YOPC   C3A15313  15.773   6.503   7.148 -0.1304  0.0086  0.1284
 1080YOPC   C4A15314  15.931   6.366   7.685 -0.1092 -0.0095 -0.1426
 1080YOPC   C1B15315  15.168   6.372   6.343  0.0296  0.0759 -0.1595
 1080YOPC   C2B15316  15.065   6.154   6.622 -0.0717 -0.3237 -0.2586
 1080YOPC   D3B15317  14.873   6.285   6.988  0.4581  0.1280 -0.0466
 1080YOPC   C4B15318  14.552   6.169   7.190  0.2325  0.2340 -0.1453
 1081YOPC   NC315319  14.808   7.499   5.070  0.1761 -0.1433 -0.2184
 1081YOPC   PO415320  14.667   7.517   5.504 -0.0746 -0.1242 -0.1337
 1081YOPC   GL115321  14.620   7.537   5.962  0.1835  0.2638  0.1171
 1081YOPC   GL215322  14.309   7.291   6.084  0.1038  0.0649 -0.0542
 1081YOPC   C1A15323  14.596   7.607   6.436  0.3116  0.0467  0.0874
 1081YOPC   D2A15324  14.798   7.724   6.821 -0.4081 -0.0538  0.2259
 1081YOPC   C3A15325  14.672   7.550   7.256 -0.2409 -0.2181  0.0949
 1081YOPC   C4A15326  14.644   7.592   7.697 -0.0698 -0.0589  0.0226
 1081YOPC   C1B15327  14.000   7.028   6.305  0.0227 -0.0583 -0.1167
 1081YOPC   C2B15328  14.044   6.840   6.708  0.0897 -0.3198  0.2045
 1081YOPC   D3B15329  13.826   7.086   7.040  0.1700 -0.3017 -0.1577
 1081YOPC   C4B15330  13.525   7.130   7.463 -0.0198  0.2497 -0.4183
 1082YOPC   NC315331   7.602  11.976   4.524 -0.1387  0.4353 -0.4369
 1082YOPC   PO415332   7.555  12.146   5.006 -0.2713  0.2861 -0.0510
 1082YOPC   GL115333   7.581  12.247   5.425  0.1175  0.0166  0.1306
 1082YOPC   GL215334   7.397  12.512   5.351 -0.4386  0.1206 -0.4704
 1082YOPC   C1A15335   7.798  12.468   5.682  0.2412 -0.0279  0.1187
 1082YOPC   D2A15336   7.743  12.594   6.174  0.1764 -0.0943  0.4460
 1082YOPC   C3A15337   7.858  12.839   6.424 -0.4617 -0.0813 -0.2897
 1082YOPC   C4A15338   8.079  13.209   6.654  0.0368  0.0021  0.3162
 1082YOPC   C1B15339   7.095  12.364   5.641  0.2200 -0.0742 -0.0693
 1082YOPC   C2B15340   6.985  12.526   6.050 -0.1214 -0.1609 -0.0656
 1082YOPC   D3B15341   7.058  12.277   6.446 -0.0228 -0.0074 -0.0418
 1082YOPC   C4B15342   7.215  12.286   6.880  0.0980  0.2058  0.1047
 1083YOPC   NC315343   1.842  18.903   5.306 -0.3276  0.0921  0.0631
 1083YOPC   PO415344   1.405  18.782   5.483  0.1234 -0.2511  0.1223
 1083YOPC   GL115345   1.661  18.798   5.815  0.0670 -0.1801 -0.5317
 1083YOPC   GL215346   1.689  18.515   5.953 -0.1201 -0.1823 -0.0640
 1083YOPC   C1A15347   1.776  18.872   6.273 -0.0038 -0.0248  0.0699
 1083YOPC   D2A15348   1.692  18.722   6.664  0.2206  0.0870 -0.0080
 1083YOPC   C3A15349   1.986  18.421   6.855 -0.0409  0.3145  0.3592
 1083YOPC   C4A15350   2.012  18.169   7.271 -0.0615  0.1549  0.1959
 1083YOPC   C1B15351   1.322  18.623   6.144  0.3219 -0.4857 -0.1980
 1083YOPC   C2B15352   0.876  18.791   6.306  0.2225  0.2952  0.0694
 1083YOPC   D3B15353   0.682  18.697   6.696  0.2147 -0.1083  0.3223
 1083YOPC   C4B15354   0.537  18.623   7.004 -0.3430 -0.3989 -0.2570
 1084YOPC   NC315355   6.509  18.709   5.467  0.0610 -0.3536  0.0029
 1084YOPC   PO415356   6.378  18.308   5.351  0.2339 -0.2442  0.2916
 1084YOPC   GL115357   6.438  18.191   5.801 -0.1486 -0.1475  0.1991
 1084YOPC   GL215358   6.452  18.394   6.060  0.2306 -0.0719 -0.2601
 1084YOPC   C1A15359   6.147  18.055   6.153  0.0631  0.1246  0.1182
 1084YOPC   D2A15360   6.434  17.886   6.530 -0.2695 -0.0345 -0.0383
 1084YOPC   C3A15361   6.739  17.536   6.534 -0.2020 -0.0268 -0.2762
 1084YOPC   C4A15362   6.874  17.282   6.099 -0.0926  0.1331  0.0498
 1084YOPC   C1B15363   6.303  18.422   6.556 -0.0119  0.1228 -0.1351
 1084YOPC   C2B15364   6.667  18.318   6.877  0.6204  0.0548 -0.1770
 1084YOPC   D3B15365   7.128  18.492   6.821 -0.2704  0.1701 -0.2422
 1084YOPC   C4B15366   7.414  18.433   7.159  0.1290 -0.1654 -0.0095
 1085YOPC   NC315367   3.105   1.672   5.865 -0.0181  0.1608  0.1306
 1085YOPC   PO415368   2.960   1.216   5.956 -0.0744 -0.3488  0.0059
 1085YOPC   GL115369   3.038   0.834   6.039  0.4792 -0.0197  0.1488
 1085YOPC   GL215370   3.066   0.947   6.430  0.0477  0.0563  0.0545
 1085YOPC   C1A15371   3.097   0.425   6.346  0.0911 -0.0403 -0.1328
 1085YOPC   D2A15372   3.198   0.057   6.654  0.2919 -0.0586 -0.1603
 1085YOPC   C3A15373   3.026  -0.090   6.994  0.3422 -0.2685  0.2315
 1085YOPC   C4A15374   2.648  -0.040   7.118  0.1252  0.0991  0.0513
 1085YOPC   C1B15375   3.428   0.732   6.229 -0.0090  0.0555  0.0322
 1085YOPC   C2B15376   3.631   0.396   6.298  0.0289 -0.0675  0.0936
 1085YOPC   D3B15377   3.439  -0.043   6.177  0.0963 -0.1320  0.1811
 1085YOPC   C4B15378   3.319  -0.396   6.080 -0.3435  0.0779  0.1265
 1086YOPC   NC315379  10.157   9.733   4.741  0.1557 -0.0174 -0.2027
 1086YOPC   PO415380  10.253   9.720   5.222 -0.3062 -0.3552 -0.0497
 1086YOPC   GL115381  10.208   9.387   5.554  0.1182 -0.2195 -0.0255
 1086YOPC   GL215382   9.991   9.320   5.690  0.0809 -0.0087 -0.2079
 1086YOPC   C1A15383  10.098   9.607   6.079 -0.0821 -0.2541  0.1297
 1086YOPC   D2A15384   9.947   9.694   6.502  0.1995  0.0177  0.1285
 1086YOPC   C3A15385   9.914   9.732   6.921 -0.2175 -0.1024  0.0847
 1086YOPC   C4A15386  10.180   9.805   7.258 -0.0566  0.0846 -0.0368
 1086YOPC   C1B15387   9.690   9.316   6.112 -0.2985 -0.2669  0.3397
 1086YOPC   C2B15388   9.389   9.189   6.380 -0.3575 -0.0067  0.0431
 1086YOPC   D3B15389   9.555   9.332   6.752  0.1250 -0.1266  0.3184
 1086YOPC   C4B15390   9.526   9.332   7.171 -0.1186 -0.1446 -0.0039
 1087YOPC   NC315391   3.157  19.010   5.430 -0.0100 -0.0902 -0.3018
 1087YOPC   PO415392   3.420  18.609   5.429  0.2298 -0.2334  0.4092
 1087YOPC   GL115393   3.733  18.606   5.819 -0.0084 -0.1026  0.1666
 1087YOPC   GL215394   4.009  18.710   5.818 -0.0573 -0.0201 -0.0914
 1087YOPC   C1A15395   3.582  18.357   6.187  0.3378 -0.1877  0.0624
 1087YOPC   D2A15396   3.426  18.538   6.489  0.0375 -0.0583 -0.0723
 1087YOPC   C3A15397   3.146  18.784   6.537 -0.0659  0.0325  0.0021
 1087YOPC   C4A15398   2.717  18.808   6.766  0.1593  0.3161 -0.1864
 1087YOPC   C1B15399   3.870  18.841   6.242 -0.2545  0.0970 -0.0826
 1087YOPC   C2B15400   3.679  18.953   6.610 -0.2954 -0.2998 -0.1156
 1087YOPC   D3B15401   3.443  18.772   6.953  0.0467 -0.1743  0.1438
 1087YOPC   C4B15402   3.072  18.606   7.039 -0.2421 -0.2245  0.0588
 1088YOPC   NC315403   9.497  14.564   5.326  0.0495 -0.1565  0.1706
 1088YOPC   PO415404   9.808  14.268   5.046  0.3227 -0.0703  0.1894
 1088YOPC   GL115405   9.952  14.330   5.394 -0.1341  0.0515 -0.0561
 1088YOPC   GL215406   9.868  14.645   5.616  0.4903 -0.0634 -0.1206
 1088YOPC   C1A15407  10.048  14.018   5.729 -0.1783  0.0525 -0.1037
 1088YOPC   D2A15408   9.944  13.764   6.126  0.2730 -0.1931 -0.2183
 1088YOPC   C3A15409   9.795  13.388   6.197 -0.1108  0.0412 -0.3891
 1088YOPC   C4A15410   9.420  13.262   6.341 -0.2843 -0.1425  0.4821
 1088YOPC   C1B15411  10.096  14.626   5.868 -0.0804 -0.1754 -0.0470
 1088YOPC   C2B15412  10.212  14.300   6.111  0.2622 -0.1796  0.2399
 1088YOPC   D3B15413  10.522  14.272   6.424 -0.1340 -0.1345 -0.0322
 1088YOPC   C4B15414  10.853  14.259   6.716 -0.5804  0.3340 -0.1936
 1089YOPC   NC315415  17.752   1.586   4.830  0.0232 -0.1542 -0.1630
 1089YOPC   PO415416  17.543   1.866   5.194 -0.1250 -0.0311 -0.0052
 1089YOPC   GL115417  17.425   1.919   5.657  0.3338 -0.0342  0.0203
 1089YOPC   GL215418  17.355   1.608   5.797  0.1239 -0.1553 -0.1026
 1089YOPC   C1A15419  17.313   2.245   5.949  0.0562  0.1507  0.1183
 1089YOPC   D2A15420  17.223   2.207   6.402  0.3299 -0.0417 -0.2735
 1089YOPC   C3A15421  17.315   2.243   6.888 -0.2172  0.0747  0.1593
 1089YOPC   C4A15422  17.564   2.138   7.312 -0.2463  0.2132  0.0429
 1089YOPC   C1B15423  17.560   1.850   6.126 -0.0430 -0.0187  0.1037
 1089YOPC   C2B15424  17.785   1.875   6.497  0.1239  0.0224  0.0691
 1089YOPC   D3B15425  17.857   1.477   6.668 -0.0104  0.2336  0.0398
 1089YOPC   C4B15426  17.613   1.083   6.704  0.4223  0.0464 -0.1523
 1090YOPC   NC315427  10.217  16.892   4.719 -0.2045 -0.1096  0.0027
 1090YOPC   PO415428   9.888  16.936   5.072  0.2817  0.0075  0.2562
 1090YOPC   GL115429   9.997  16.786   5.423  0.0720  0.0514 -0.1249
 1090YOPC   GL215430  10.235  16.594   5.346 -0.4050 -0.3939 -0.2320
 1090YOPC   C1A15431   9.800  16.993   5.770  0.1894  0.3502  0.0363
 1090YOPC   D2A15432  10.037  17.123   6.022  0.0464 -0.0837 -0.4605
 1090YOPC   C3A15433  10.030  17.588   6.087 -0.0713  0.2877 -0.1663
 1090YOPC   C4A15434   9.795  17.794   6.448  0.3513  0.2734 -0.0300
 1090YOPC   C1B15435  10.436  16.341   5.655 -0.3788 -0.2144 -0.0457
 1090YOPC   C2B15436  10.565  16.223   5.983  0.0103 -0.3396 -0.0137
 1090YOPC   D3B15437  10.481  16.547   6.277  0.0548  0.2606 -0.0394
 1090YOPC   C4B15438  10.382  16.522   6.669 -0.1473  0.0324  0.2230
 1091YOPC   NC315439   4.157  14.973   5.048 -0.1157 -0.0643  0.2590
 1091YOPC   PO415440   3.761  14.854   5.192 -0.2250 -0.0694  0.0177
 1091YOPC   GL115441   3.903  14.733   5.632  0.0291  0.2894 -0.1045
 1091YOPC   GL215442   4.046  14.423   5.587 -0.2136  0.0685  0.1667
 1091YOPC   C1A15443   3.988  14.683   6.094  0.0466 -0.2502 -0.4001
 1091YOPC   D2A15444   3.782  14.580   6.459  0.2967  0.1217  0.0293
 1091YOPC   C3A15445   3.869  14.174   6.571  0.0243  0.2528 -0.0890
 1091YOPC   C4A15446   4.148  13.798   6.619 -0.0408 -0.0076  0.4530
 1091YOPC   C1B15447   4.439  14.569   5.825  0.1190 -0.3138  0.3177
 1091YOPC   C2B15448   4.807  14.893   5.838  0.1953 -0.2427 -0.0767
 1091YOPC   D3B15449   4.940  14.938   6.223  0.0544 -0.1574  0.0044
 1091YOPC   C4B15450   4.821  14.630   6.518 -0.0178 -0.0041 -0.4168
 1092YOPC   NC315451  10.494  15.262   5.084 -0.2484  0.1139 -0.4112
 1092YOPC   PO415452  10.415  14.811   5.210 -0.0352  0.2429 -0.0287
 1092YOPC   GL115453  10.196  15.088   5.477  0.1776 -0.2187 -0.0810
 1092YOPC   GL215454   9.996  15.340   5.378 -0.1628  0.1145 -0.0549
 1092YOPC   C1A15455  10.393  15.138   5.895  0.1834  0.0608 -0.0242
 1092YOPC   D2A15456  10.378  15.295   6.399  0.3431  0.0949 -0.0517
 1092YOPC   C3A15457  10.743  15.384   6.600 -0.0785  0.0625  0.2489
 1092YOPC   C4A15458  11.140  15.294   6.787  0.1345 -0.1396 -0.3421
 1092YOPC   C1B15459   9.893  15.161   5.820 -0.1999  0.0729 -0.2656
 1092YOPC   C2B15460   9.995  15.049   6.241  0.2080  0.0632  0.0324
 1092YOPC   D3B15461   9.829  15.343   6.539  0.1349  0.2931 -0.0619
 1092YOPC   C4B15462   9.731  15.835   6.551 -0.0349  0.1098  0.1360
 1093YOPC   NC315463   0.716   0.780   5.548 -0.0883 -0.1340 -0.3421
 1093YOPC   PO415464   0.847   1.235   5.493 -0.1530 -0.1599 -0.0020
 1093YOPC   GL115465   0.629   1.485   5.794  0.0925  0.1297  0.0282
 1093YOPC   GL215466   0.905   1.535   5.979  0.3386 -0.5081 -0.0873
 1093YOPC   C1A15467   0.247   1.280   6.020  0.1707 -0.0622 -0.2458
 1093YOPC   D2A15468  -0.080   0.931   6.114  0.0041  0.2498 -0.1902
 1093YOPC   C3A15469   0.041   0.514   6.108 -0.1511  0.0669  0.3246
 1093YOPC   C4A15470   0.348   0.316   6.215 -0.1675 -0.1722  0.3782
 1093YOPC   C1B15471   0.704   1.163   6.177  0.1792  0.1921 -0.4613
 1093YOPC   C2B15472   0.443   0.921   6.394 -0.2547  0.0442 -0.1256
 1093YOPC   D3B15473   0.466   0.550   6.677  0.2040 -0.1412  0.1350
 1093YOPC   C4B15474   0.680   0.300   7.092 -0.0519 -0.3348  0.0579
 1094YOPC   NC315475   5.332   1.227   5.677  0.0963 -0.0018  0.0672
 1094YOPC   PO415476   5.485   1.682   5.736  0.0619  0.1729  0.1192
 1094YOPC   GL115477   5.253   1.584   6.171  0.3498 -0.1268  0.1017
 1094YOPC   GL215478   4.970   1.531   6.287  0.0679 -0.2299 -0.1110
 1094YOPC   C1A15479   5.439   1.674   6.598  0.1485  0.0293 -0.2472
 1094YOPC   D2A15480   5.684   1.607   6.913  0.0796 -0.2446  0.3751
 1094YOPC   C3A15481   5.506   1.865   7.242  0.2547 -0.0168  0.2181
 1094YOPC   C4A15482   5.613   1.766   7.673 -0.0668 -0.0437  0.0677
 1094YOPC   C1B15483   4.814   1.922   6.526  0.0113 -0.1788 -0.2091
 1094YOPC   C2B15484   4.745   2.178   6.939  0.2177 -0.1121 -0.1658
 1094YOPC   D3B15485   5.001   2.124   7.311 -0.3815  0.0557 -0.1106
 1094YOPC   C4B15486   5.278   2.143   7.672 -0.1798  0.2294 -0.2248
 1095YOPC   NC315487  17.313  15.494   5.464 -0.2531 -0.2617 -0.0395
 1095YOPC   PO415488  17.388  15.916   5.538  0.2040 -0.0262  0.0739
 1095YOPC   GL115489  17.507  16.179   5.952  0.0556 -0.3579 -0.1558
 1095YOPC   GL215490  17.836  16.045   5.782 -0.1892  0.0637 -0.0479
 1095YOPC   C1A15491  17.651  16.269   6.319  0.1820  0.1355  0.0618
 1095YOPC   D2A15492  18.039  16.331   6.535  0.1403  0.1766  0.0514
 1095YOPC   C3A15493  18.104  16.267   6.985  0.0978 -0.1053  0.0549
 1095YOPC   C4A15494  18.093  16.341   7.381  0.0362  0.1274 -0.3737
 1095YOPC   C1B15495  18.111  15.904   6.126  0.1045  0.1912  0.0230
 1095YOPC   C2B15496  18.210  15.699   6.468 -0.0542 -0.1350 -0.2717
 1095YOPC   D3B15497  18.282  15.256   6.439  0.3585 -0.1368  0.0332
 1095YOPC   C4B15498  18.270  14.833   6.673  0.1076  0.0596  0.0355
 1096YOPC   NC315499   2.964  14.308   5.166  0.3085  0.2550 -0.0615
 1096YOPC   PO415500   2.752  14.596   5.366  0.1555  0.1781 -0.0551
 1096YOPC   GL115501   2.533  14.588   5.787 -0.0471  0.0042 -0.3268
 1096YOPC   GL215502   2.638  14.876   5.897 -0.5035 -0.3373 -0.0602
 1096YOPC   C1A15503   2.274  14.364   6.056  0.1842  0.1337  0.0102
 1096YOPC   D2A15504   1.929  14.366   6.308 -0.0960  0.3319 -0.0900
 1096YOPC   C3A15505   1.785  14.248   6.807 -0.0998  0.0087 -0.1309
 1096YOPC   C4A15506   1.339  14.287   6.931  0.1442  0.1832  0.0034
 1096YOPC   C1B15507   2.485  14.981   6.253 -0.1473 -0.0274  0.0222
 1096YOPC   C2B15508   2.462  14.990   6.694  0.0176  0.3230  0.2384
 1096YOPC   D3B15509   2.631  14.763   6.950  0.2308 -0.1701 -0.0408
 1096YOPC   C4B15510   2.568  14.547   7.405 -0.0078 -0.3361  0.2596
 1097YOPC   NC315511  18.302  12.842   5.020  0.1013  0.0427  0.0747
 1097YOPC   PO415512  18.138  13.180   5.244 -0.0747  0.1320 -0.0744
 1097YOPC   GL115513  18.178  13.390   5.658 -0.3564 -0.1005  0.3299
 1097YOPC   GL215514  17.850  13.302   5.753  0.0351  0.1076 -0.0633
 1097YOPC   C1A15515  18.261  13.270   6.005 -0.1143 -0.1969 -0.2647
 1097YOPC   D2A15516  18.125  13.433   6.454 -0.0788 -0.0172  0.0437
 1097YOPC   C3A15517  18.310  13.493   6.800 -0.1779 -0.0070  0.1246
 1097YOPC   C4A15518  18.618  13.797   6.906  0.1698 -0.1191 -0.2711
 1097YOPC   C1B15519  17.775  13.337   6.142  0.0728  0.1521 -0.2477
 1097YOPC   C2B15520  17.551  13.129   6.392  0.1456 -0.0587  0.1498
 1097YOPC   D3B15521  17.383  13.303   6.817 -0.3229 -0.0584 -0.4267
 1097YOPC   C4B15522  17.157  13.496   7.223 -0.1753  0.2455 -0.1943
 1098YOPC   NC315523  10.375   8.436   5.263  0.1108 -0.2784 -0.2013
 1098YOPC   PO415524  10.273   8.017   5.184  0.0213  0.0543 -0.1337
 1098YOPC   GL115525  10.337   8.050   5.639  0.0684 -0.0175  0.1089
 1098YOPC   GL215526  10.258   7.801   5.880 -0.0382  0.3817 -0.0539
 1098YOPC   C1A15527  10.592   8.224   5.998  0.1468 -0.0911  0.3486
 1098YOPC   D2A15528  10.713   8.453   6.395 -0.0556  0.0733  0.0222
 1098YOPC   C3A15529  10.666   8.416   6.787  0.1101  0.0278  0.1588
 1098YOPC   C4A15530  10.763   8.369   7.230  0.0600  0.3081 -0.1700
 1098YOPC   C1B15531  10.053   7.934   6.221  0.0963  0.2211 -0.2274
 1098YOPC   C2B15532   9.836   8.132   6.563  0.0273 -0.4027 -0.1309
 1098YOPC   D3B15533   9.809   8.069   6.872  0.0988  0.0687  0.2768
 1098YOPC   C4B15534  10.024   7.874   7.230  0.3326  0.0352  0.2290
 1099YOPC   NC315535   9.032   6.673   5.401  0.1260  0.0147  0.0212
 1099YOPC   PO415536   9.140   6.204   5.576  0.2275  0.2298 -0.2114
 1099YOPC   GL115537   9.505   6.257   5.883 -0.0849 -0.1703 -0.0796
 1099YOPC   GL215538   9.638   6.080   6.054  0.1563 -0.0310 -0.1439
 1099YOPC   C1A15539   9.518   6.442   6.396  0.0318  0.0874 -0.1383
 1099YOPC   D2A15540   9.427   6.801   6.525 -0.3606 -0.1962  0.0276
 1099YOPC   C3A15541   9.621   6.838   6.928  0.0009 -0.0596 -0.0015
 1099YOPC   C4A15542   9.491   6.939   7.358 -0.2063 -0.3220 -0.1564
 1099YOPC   C1B15543   9.837   5.693   6.266 -0.2209 -0.1240  0.1556
 1099YOPC   C2B15544  10.079   5.396   6.442  0.2949  0.2751 -0.0725
 1099YOPC   D3B15545  10.153   5.050   6.375  0.0280  0.1936 -0.3260
 1099YOPC   C4B15546   9.762   4.787   6.272  0.1365  0.2479  0.0146
 1100YOPC   NC315547  10.838  19.206   4.568  0.2318 -0.2560  0.1757
 1100YOPC   PO415548  10.759  19.496   4.992 -0.0283  0.1066 -0.1799
 1100YOPC   GL115549  10.762  19.263   5.271  0.1230 -0.1732 -0.2642
 1100YOPC   GL215550  10.642  19.531   5.533  0.0351  0.0677  0.1608
 1100YOPC   C1A15551  10.815  19.073   5.634 -0.0934  0.2773 -0.2034
 1100YOPC   D2A15552  11.020  19.475   5.903  0.2048  0.3606 -0.0125
 1100YOPC   C3A15553  11.014  19.431   6.311 -0.0651  0.2454 -0.1389
 1100YOPC   C4A15554  11.229  19.420   6.718  0.0929 -0.0507 -0.1405
 1100YOPC   C1B15555  10.574  19.707   5.987 -0.6333 -0.3784  0.2595
 1100YOPC   C2B15556  10.477  19.790   6.414 -0.0676  0.2603  0.1108
 1100YOPC   D3B15557  10.764  19.675   6.701  0.0381 -0.3123  0.1116
 1100YOPC   C4B15558  11.041  19.806   7.035 -0.1862 -0.1343 -0.4093
 1101YOPC   NC315559  12.491   5.602   5.336 -0.2279 -0.1186 -0.1380
 1101YOPC   PO415560  12.392   5.210   5.112 -0.1668  0.0581  0.2494
 1101YOPC   GL115561  12.311   4.955   5.537 -0.2582  0.0456  0.2491
 1101YOPC   GL215562  12.138   5.150   5.678 -0.2467  0.0999  0.1940
 1101YOPC   C1A15563  12.554   4.915   5.927  0.0419 -0.0147  0.0921
 1101YOPC   D2A15564  12.688   5.158   6.284 -0.0879 -0.1848 -0.3491
 1101YOPC   C3A15565  12.461   5.372   6.603 -0.0571 -0.2185  0.0083
 1101YOPC   C4A15566  12.180   5.245   6.785  0.0282 -0.0502 -0.1343
 1101YOPC   C1B15567  11.693   5.193   5.832 -0.0638  0.2349 -0.2838
 1101YOPC   C2B15568  11.620   4.811   6.082 -0.1694 -0.0805 -0.1440
 1101YOPC   D3B15569  11.548   4.509   6.446 -0.2836  0.1027  0.0022
 1101YOPC   C4B15570  11.519   4.113   6.765 -0.2578 -0.0862 -0.1880
 1102YOPC   NC315571  17.685   4.246   5.820  0.2099 -0.0951 -0.1051
 1102YOPC   PO415572  17.600   3.919   5.563  0.1564 -0.3738 -0.0278
 1102YOPC   GL115573  17.499   3.711   5.924  0.3212 -0.2849  0.0594
 1102YOPC   GL215574  17.374   3.476   5.798  0.2178 -0.2592 -0.2588
 1102YOPC   C1A15575  17.680   3.696   6.228 -0.0199 -0.1472  0.1219
 1102YOPC   D2A15576  17.985   3.267   6.474  0.0644  0.0874  0.2460
 1102YOPC   C3A15577  18.185   3.282   6.839  0.0333 -0.2037 -0.0688
 1102YOPC   C4A15578  18.189   3.256   7.285 -0.1343 -0.2126 -0.2595
 1102YOPC   C1B15579  17.513   3.209   6.070 -0.3909  0.4082 -0.0207
 1102YOPC   C2B15580  17.659   2.803   6.049 -0.1201 -0.0595  0.0606
 1102YOPC   D3B15581  18.023   2.746   6.215 -0.1566 -0.0038  0.1672
 1102YOPC   C4B15582  18.175   2.734   6.628  0.2775  0.2578 -0.3796
 1103ERGO   ROH15583   8.421   0.467   5.859  0.0728  0.1592  0.0780
 1103ERGO    R115584   8.408   0.289   6.079  0.1024  0.2087  0.1225
 1103ERGO    R215585   8.343   0.373   6.334  0.0371  0.2527  0.1015
 1103ERGO    R315586   8.153   0.179   6.315  0.1047  0.1881  0.1116
 1103ERGO    R415587   8.170   0.240   6.602  0.1633  0.1108  0.1116
 1103ERGO    R515588   8.189   0.043   6.509  0.2073  0.1494  0.0586
 1103ERGO    C115589   7.892  -0.019   6.740  0.3004 -0.0323  0.1270
 1103ERGO    C215590   7.704  -0.193   6.963 -0.2490  0.2834 -0.1714
 1104ERGO   ROH15591   3.169   5.861   9.489  0.0009 -0.3252 -0.0484
 1104ERGO    R115592   3.081   5.750   9.244 -0.1352 -0.0954 -0.1066
 1104ERGO    R215593   2.880   5.864   9.093 -0.0117  0.2213 -0.0454
 1104ERGO    R315594   3.067   5.857   8.896 -0.0205  0.1088 -0.0496
 1104ERGO    R415595   2.812   5.894   8.755 -0.0237 -0.0074 -0.0639
 1104ERGO    R515596   2.960   5.738   8.717 -0.0136 -0.0171  0.0320
 1104ERGO    C115597   2.949   5.904   8.374 -0.0389 -0.2461 -0.0787
 1104ERGO    C215598   2.800   6.026   8.068 -0.0766  0.2661 -0.5530
 1105ERGO   ROH15599  10.449   6.749   9.194  0.0330  0.1182 -0.0448
 1105ERGO    R115600  10.468   6.831   8.924 -0.0225  0.1714 -0.0325
 1105ERGO    R215601  10.500   6.653   8.716  0.2634  0.2320 -0.0439
 1105ERGO    R315602  10.279   6.778   8.617  0.1107 -0.0552 -0.0771
 1105ERGO    R415603  10.439   6.709   8.380  0.3478  0.3400 -0.0418
 1105ERGO    R515604  10.362   6.907   8.432  0.0051  0.1921  0.0428
 1105ERGO    C115605  10.197   6.858   8.091  0.2537  0.1331 -0.0717
 1105ERGO    C215606  10.088   6.987   7.838  0.0914  0.1477  0.1519
 1106ERGO   ROH15607  14.761   1.114   9.016 -0.0834  0.0800  0.0668
 1106ERGO    R115608  14.836   1.122   8.743 -0.0072 -0.0715  0.0826
 1106ERGO    R215609  14.837   0.898   8.582 -0.1240 -0.1309  0.1650
 1106ERGO    R315610  14.679   1.051   8.423  0.0242 -0.0756  0.0678
 1106ERGO    R415611  14.831   0.884   8.237 -0.0747 -0.2835  0.1691
 1106ERGO    R515612  14.816   1.101   8.233  0.0986 -0.2704  0.0670
 1106ERGO    C115613  14.679   1.020   7.887  0.0932 -0.3204  0.0803
 1106ERGO    C215614  14.688   1.182   7.624 -0.1680  0.0178 -0.0275
 1107ERGO   ROH15615   7.911  14.272   9.037  0.2640  0.1127  0.0503
 1107ERGO    R115616   7.990  14.397   8.796  0.2192 -0.0891 -0.0731
 1107ERGO    R215617   8.088  14.256   8.579 -0.0666 -0.3003 -0.0745
 1107ERGO    R315618   7.890  14.386   8.446 -0.0382 -0.1789  0.0023
 1107ERGO    R415619   8.089  14.322   8.240 -0.1399 -0.2599 -0.0661
 1107ERGO    R515620   8.005  14.519   8.283 -0.0206 -0.2222 -0.0175
 1107ERGO    C115621   7.903  14.483   7.918 -0.1559 -0.1225  0.0109
 1107ERGO    C215622   7.890  14.646   7.584 -0.0221  0.2147 -0.0052
 1108ERGO   ROH15623  10.640  10.281   6.062  0.0637 -0.0213  0.3281
 1108ERGO    R115624  10.738  10.321   6.325  0.0216 -0.0594  0.3506
 1108ERGO    R215625  10.779  10.572   6.432  0.0420 -0.0717  0.3823
 1108ERGO    R315626  10.619  10.479   6.630 -0.0121 -0.0667  0.3401
 1108ERGO    R415627  10.798  10.671   6.762  0.0633 -0.1983  0.4188
 1108ERGO    R515628  10.764  10.464   6.821 -0.0350 -0.1998  0.3440
 1108ERGO    C115629  10.658  10.641   7.141  0.0249 -0.2672  0.4003
 1108ERGO    C215630  10.584  10.795   7.472 -0.0486 -0.0006 -0.0664
 1109ERGO   ROH15631  16.267  17.207   8.904 -0.1171 -0.0754 -0.0084
 1109ERGO    R115632  16.333  17.250   8.633  0.0040 -0.1431  0.0102
 1109ERGO    R215633  16.293  17.059   8.438 -0.1787 -0.0880 -0.0052
 1109ERGO    R315634  16.155  17.258   8.315  0.0919  0.0859 -0.0355
 1109ERGO    R415635  16.279  17.107   8.096 -0.2771 -0.2502 -0.0258
 1109ERGO    R515636  16.295  17.322   8.131  0.1085 -0.2498 -0.1475
 1109ERGO    C115637  16.141  17.323   7.782 -0.0805 -0.1815 -0.0663
 1109ERGO    C215638  16.113  17.136   7.452 -0.0471 -0.1404 -0.0702
 1110ERGO   ROH15639  15.675   1.456   9.225 -0.0087 -0.1489 -0.0108
 1110ERGO    R115640  15.779   1.429   8.963 -0.0725 -0.0187 -0.0500
 1110ERGO    R215641  15.708   1.220   8.796  0.0627 -0.0639 -0.0510
 1110ERGO    R315642  15.645   1.422   8.625 -0.1833 -0.0989 -0.0050
 1110ERGO    R415643  15.742   1.207   8.452 -0.3663 -0.1082 -0.0981
 1110ERGO    R515644  15.814   1.413   8.456 -0.3919 -0.0967 -0.2188
 1110ERGO    C115645  15.703   1.389   8.092 -0.8472 -0.1670 -0.0823
 1110ERGO    C215646  15.691   1.339   7.773  0.3220  0.1031 -0.3516
 1111ERGO   ROH15647   0.895   3.157  10.052 -0.0133 -0.1724 -0.1387
 1111ERGO    R115648   0.956   3.219   9.783 -0.1005 -0.0194 -0.1258
 1111ERGO    R215649   1.037   3.028   9.600 -0.0325  0.0998 -0.2332
 1111ERGO    R315650   0.830   3.126   9.455 -0.1191  0.0551 -0.1378
 1111ERGO    R415651   1.016   3.019   9.255 -0.1617  0.1764 -0.2264
 1111ERGO    R515652   0.932   3.220   9.260 -0.2326  0.1372 -0.1517
 1111ERGO    C115653   0.809   3.106   8.918 -0.3184  0.1791 -0.1330
 1111ERGO    C215654   0.622   2.998   8.704  0.4457 -0.0116 -0.1340
 1112ERGO   ROH15655  10.455   0.991   5.909 -0.0348  0.2681 -0.0561
 1112ERGO    R115656  10.593   0.933   6.149  0.0619  0.0260 -0.1664
 1112ERGO    R215657  10.861   0.866   6.155  0.1505  0.3506 -0.3181
 1112ERGO    R315658  10.876   1.072   6.332 -0.0919  0.0746  0.0391
 1112ERGO    R415659  11.012   0.848   6.465  0.2680  0.0237 -0.3896
 1112ERGO    R515660  10.848   0.968   6.546  0.1171 -0.3426 -0.1248
 1112ERGO    C115661  11.114   1.031   6.812  0.1089 -0.4256 -0.0960
 1112ERGO    C215662  11.216   1.039   7.212  0.0662  0.1168 -0.1323
 1113ERGO   ROH15663   8.266   1.455   6.121  0.0960 -0.3465 -0.0825
 1113ERGO    R115664   8.374   1.325   6.349  0.1384 -0.0962  0.0437
 1113ERGO    R215665   8.555   1.447   6.518 -0.0952  0.2158  0.0755
 1113ERGO    R315666   8.374   1.379   6.708 -0.1118  0.0970  0.0182
 1113ERGO    R415667   8.620   1.430   6.857 -0.1752  0.2158  0.0910
 1113ERGO    R515668   8.499   1.250   6.867 -0.0825  0.1465  0.0379
 1113ERGO    C115669   8.488   1.357   7.233 -0.2373  0.1043  0.0462
 1113ERGO    C215670   8.504   1.514   7.550  0.1653  0.0652 -0.0308
 1114ERGO   ROH15671   9.125   7.877   8.880 -0.1826 -0.1277  0.1071
 1114ERGO    R115672   9.149   7.711   8.652 -0.1196 -0.0568  0.0613
 1114ERGO    R215673   9.040   7.778   8.407 -0.1295 -0.0219  0.0737
 1114ERGO    R315674   9.294   7.738   8.320 -0.1121  0.0829  0.0756
 1114ERGO    R415675   9.134   7.761   8.075 -0.0779  0.2618  0.0715
 1114ERGO    R515676   9.269   7.598   8.127 -0.0649  0.2372 -0.0432
 1114ERGO    C115677   9.428   7.713   7.800 -0.0315  0.5254  0.0720
 1114ERGO    C215678   9.407   7.756   7.494 -0.1597  0.0652  0.1067
 1115ERGO   ROH15679   3.045   0.266   9.504 -0.2768  0.1705 -0.0077
 1115ERGO    R115680   2.978   0.343   9.240 -0.1616  0.1136 -0.0534
 1115ERGO    R215681   3.169   0.416   9.053 -0.0909  0.2039  0.0574
 1115ERGO    R315682   3.050   0.223   8.904  0.1045  0.1280 -0.0046
 1115ERGO    R415683   3.150   0.417   8.708 -0.0586  0.2772  0.0547
 1115ERGO    R515684   2.946   0.342   8.724  0.0073  0.0791  0.0168
 1115ERGO    C115685   3.027   0.236   8.367  0.1437  0.2485 -0.0050
 1115ERGO    C215686   3.021   0.157   8.094 -0.0738 -0.1749 -0.3836
 1116ERGO   ROH15687   7.514   5.961   6.189  0.0901 -0.1734  0.1596
 1116ERGO    R115688   7.464   6.038   6.456  0.1020 -0.0787  0.1348
 1116ERGO    R215689   7.627   5.960   6.666  0.1193  0.0073  0.1534
 1116ERGO    R315690   7.639   6.227   6.713  0.1065  0.0257  0.0555
 1116ERGO    R415691   7.766   6.105   6.947  0.3204  0.1268 -0.0046
 1116ERGO    R515692   7.602   6.248   6.949  0.2931  0.0953  0.0809
 1116ERGO    C115693   7.858   6.440   7.156  0.4254  0.2137 -0.1885
 1116ERGO    C215694   7.858   6.615   7.584 -0.2805 -0.2424 -0.3182
 1117ERGO   ROH15695  16.022  18.760   9.030  0.4310  0.1756 -0.0308
 1117ERGO    R115696  15.932  18.728   8.763  0.2918 -0.1338  0.0480
 1117ERGO    R215697  16.039  18.871   8.552 -0.0789 -0.0911 -0.1221
 1117ERGO    R315698  16.079  18.624   8.446  0.2396 -0.1023  0.0142
 1117ERGO    R415699  16.059  18.802   8.214 -0.0696 -0.2645 -0.0859
 1117ERGO    R515700  15.943  18.621   8.249  0.1912 -0.4098  0.0496
 1117ERGO    C115701  16.108  18.529   7.918  0.2352 -0.3761  0.0631
 1117ERGO    C215702  16.054  18.432   7.632  0.4626  0.0621 -0.0421
 1118ERGO   ROH15703   2.854   2.044   9.667  0.0581  0.0340 -0.1291
 1118ERGO    R115704   2.742   2.028   9.408  0.0005  0.0309 -0.1041
 1118ERGO    R215705   2.814   1.832   9.226 -0.0119  0.0511 -0.1306
 1118ERGO    R315706   2.547   1.787   9.218 -0.0074  0.0116 -0.0711
 1118ERGO    R415707   2.636   1.751   8.942 -0.0147 -0.2883 -0.0363
 1118ERGO    R515708   2.476   1.882   9.010 -0.0263 -0.2283 -0.1770
 1118ERGO    C115709   2.281   1.660   8.768 -0.0121 -0.5230  0.0745
 1118ERGO    C215710   2.142   1.665   8.427  0.0590 -0.0733 -0.0645
 1119ERGO   ROH15711  15.336  16.551   5.770 -0.0029  0.2371  0.0302
 1119ERGO    R115712  15.225  16.639   6.015 -0.0768  0.3685 -0.0477
 1119ERGO    R215713  15.360  16.616   6.256 -0.3257  0.0722  0.0756
 1119ERGO    R315714  15.310  16.883   6.272  0.1228  0.1624  0.0852
 1119ERGO    R415715  15.312  16.791   6.550 -0.5056  0.0486  0.0607
 1119ERGO    R515716  15.154  16.904   6.452 -0.1470  0.3722 -0.1674
 1119ERGO    C115717  15.238  17.144   6.736 -0.1894  0.1194  0.0611
 1119ERGO    C215718  15.158  17.288   6.997 -0.1615  0.1313 -0.0393
 1120ERGO   ROH15719   3.916  15.495   6.552 -0.0423 -0.1652 -0.1725
 1120ERGO    R115720   4.072  15.529   6.786 -0.1074 -0.0824 -0.1404
 1120ERGO    R215721   4.059  15.354   6.999 -0.0156 -0.1220 -0.1673
 1120ERGO    R315722   4.328  15.340   6.962  0.0024  0.0819 -0.1218
 1120ERGO    R415723   4.278  15.178   7.201  0.1119  0.2176 -0.0027
 1120ERGO    R515724   4.419  15.343   7.183 -0.0273  0.3291 -0.1098
 1120ERGO    C115725   4.658  15.063   7.284  0.2031  0.6067  0.1358
 1120ERGO    C215726   4.975  14.882   7.388 -0.2152  0.2864  0.0809
 1121ERGO   ROH15727   9.112   9.668   9.173  0.2980  0.1222  0.1029
 1121ERGO    R115728   9.042   9.706   8.901  0.2196  0.2192  0.1362
 1121ERGO    R215729   9.151   9.907   8.746  0.4392  0.0618  0.0844
 1121ERGO    R315730   9.216   9.701   8.581  0.0614 -0.0375  0.0497
 1121ERGO    R415731   9.134   9.918   8.401  0.4179  0.1412  0.0874
 1121ERGO    R515732   9.056   9.715   8.403  0.0576  0.2701  0.0683
 1121ERGO    C115733   9.185   9.731   8.045  0.0510  0.0942  0.0566
 1121ERGO    C215734   9.234   9.872   7.680 -0.5101 -0.0292 -0.1970
 1122ERGO   ROH15735   3.834   0.781   6.005 -0.3362  0.1004  0.0219
 1122ERGO    R115736   3.919   0.828   6.270 -0.0684 -0.0986 -0.0227
 1122ERGO    R215737   3.789   1.005   6.439  0.2840  0.0232  0.1456
 1122ERGO    R315738   3.778   0.789   6.604  0.1275 -0.0290  0.0662
 1122ERGO    R415739   3.744   1.018   6.782 -0.0726 -0.1134  0.1068
 1122ERGO    R515740   3.890   0.859   6.803 -0.0907 -0.1005  0.2073
 1122ERGO    C115741   3.707   0.822   7.135 -0.4272 -0.2420  0.0096
 1122ERGO    C215742   3.576   0.683   7.543  0.1736  0.1284 -0.0583
 1123ERGO   ROH15743  17.844  10.265   6.092 -0.1417  0.2125 -0.2868
 1123ERGO    R115744  17.981  10.447   6.260 -0.1422  0.0498 -0.1051
 1123ERGO    R215745  18.078  10.689   6.169  0.1544 -0.0005  0.0509
 1123ERGO    R315746  17.931  10.789   6.375  0.0377  0.0604 -0.0612
 1123ERGO    R415747  18.187  10.932   6.390 -0.1477  0.4050 -0.2313
 1123ERGO    R515748  18.091  10.821   6.551  0.0015  0.4731 -0.1001
 1123ERGO    C115749  18.113  11.166   6.712 -0.4332  0.6982 -0.5009
 1123ERGO    C215750  18.212  11.486   6.818  0.0401 -0.0970  0.0929
 1124ERGO   ROH15751  13.302  11.885   5.546 -0.1053  0.0526 -0.0761
 1124ERGO    R115752  13.191  12.068   5.732 -0.1814 -0.1534  0.0858
 1124ERGO    R215753  13.146  12.002   5.997  0.2474 -0.2737  0.1395
 1124ERGO    R315754  13.296  12.224   6.043 -0.0491 -0.0320 -0.0191
 1124ERGO    R415755  13.163  12.171   6.298  0.2552 -0.2096  0.1029
 1124ERGO    R515756  13.162  12.359   6.188 -0.1301 -0.2208  0.0809
 1124ERGO    C115757  13.314  12.478   6.517 -0.0185  0.0546 -0.0674
 1124ERGO    C215758  13.440  12.675   6.924 -0.0755  0.2074  0.1433
 1125ERGO   ROH15759  18.862  12.900   8.581 -0.2310 -0.0327  0.0355
 1125ERGO    R115760  18.769  12.725   8.380 -0.2017 -0.0021 -0.0052
 1125ERGO    R215761  18.706  12.811   8.125 -0.0844  0.0227 -0.0274
 1125ERGO    R315762  18.880  12.616   8.051 -0.1065 -0.0203  0.0333
 1125ERGO    R415763  18.776  12.723   7.798 -0.0417 -0.0429 -0.0005
 1125ERGO    R515764  18.778  12.514   7.861 -0.0900 -0.0321  0.0321
 1125ERGO    C115765  18.981  12.488   7.539 -0.0377 -0.1213  0.0721
 1125ERGO    C215766  19.183  12.235   7.294 -0.0626  0.0286 -0.1315
 1126ERGO   ROH15767   0.327   1.145   7.406  0.1825 -0.0200  0.1475
 1126ERGO    R115768   0.147   1.354   7.470  0.1598 -0.0281  0.1073
 1126ERGO    R215769  -0.100   1.381   7.348  0.1956 -0.0294  0.0405
 1126ERGO    R315770  -0.191   1.381   7.605  0.1212 -0.0414  0.0154
 1126ERGO    R415771  -0.322   1.611   7.478  0.1260 -0.0572 -0.0264
 1126ERGO    R515772  -0.204   1.613   7.662  0.0740 -0.0407  0.0098
 1126ERGO    C115773  -0.536   1.746   7.795  0.0155 -0.0846 -0.0890
 1126ERGO    C215774  -0.822   1.886   7.826  0.3317  0.2589 -0.3574
 1127ERGO   ROH15775  18.236   1.548   6.323  0.1045  0.1748 -0.0438
 1127ERGO    R115776  18.338   1.308   6.431  0.1081  0.1146 -0.1758
 1127ERGO    R215777  18.607   1.242   6.420  0.1575  0.2481  0.0245
 1127ERGO    R315778  18.577   1.215   6.689 -0.1024 -0.0196 -0.0283
 1127ERGO    R415779  18.765   1.003   6.613  0.1418  0.2017 -0.0227
 1127ERGO    R515780  18.580   0.978   6.725  0.0457 -0.0481 -0.2377
 1127ERGO    C115781  18.829   0.837   6.977 -0.1113 -0.0767 -0.0996
 1127ERGO    C215782  19.166   0.979   7.109 -0.4148 -0.2453 -0.2333
 1128ERGO   ROH15783   1.997  14.110   8.557  0.1331  0.3880 -0.1379
 1128ERGO    R115784   1.954  14.115   8.277 -0.0568  0.2780 -0.1123
 1128ERGO    R215785   2.139  14.017   8.096 -0.0673  0.4353 -0.2100
 1128ERGO    R315786   1.927  13.870   8.009  0.0308  0.1855 -0.0371
 1128ERGO    R415787   2.127  13.847   7.796 -0.0059  0.1749 -0.0680
 1128ERGO    R515788   1.920  13.911   7.773 -0.0651 -0.0156 -0.0700
 1128ERGO    C115789   1.922  13.610   7.539  0.1219 -0.2112  0.1772
 1128ERGO    C215790   2.181  13.390   7.375  0.2313  0.0233 -0.0290
 1129ERGO   ROH15791  17.921  14.920   5.613 -0.1716  0.0536  0.1205
 1129ERGO    R115792  17.871  14.653   5.693 -0.3243  0.0421 -0.0039
 1129ERGO    R215793  18.043  14.513   5.858 -0.2910 -0.2081 -0.2344
 1129ERGO    R315794  17.818  14.476   6.007 -0.1969 -0.1038 -0.0653
 1129ERGO    R415795  17.983  14.238   6.059 -0.2145 -0.1034 -0.0677
 1129ERGO    R515796  17.775  14.241   5.992 -0.2543 -0.0982  0.0737
 1129ERGO    C115797  17.737  14.044   6.316 -0.0815  0.0557  0.1882
 1129ERGO    C215798  17.709  13.707   6.462 -0.1675 -0.1560 -0.0672
 1130ERGO   ROH15799  18.321   7.989   7.395  0.0977  0.2362 -0.0739
 1130ERGO    R115800  18.039   7.973   7.387  0.1037  0.0910 -0.0304
 1130ERGO    R215801  17.877   8.133   7.544  0.0454 -0.0678  0.0758
 1130ERGO    R315802  17.764   8.197   7.305 -0.0289 -0.0134  0.1257
 1130ERGO    R415803  17.537   8.162   7.489  0.0247 -0.1284  0.1685
 1130ERGO    R515804  17.565   8.063   7.296  0.0008 -0.0561  0.1288
 1130ERGO    C115805  17.233   8.240   7.232 -0.0568 -0.1126  0.2692
 1130ERGO    C215806  16.968   8.363   7.458  0.1759  0.0165 -0.1584
 1131ERGO   ROH15807   2.962  16.648   5.998 -0.0580  0.0747 -0.0506
 1131ERGO    R115808   2.957  16.805   6.234 -0.1280 -0.0495  0.0327
 1131ERGO    R215809   2.945  16.694   6.487  0.0865 -0.1953 -0.0156
 1131ERGO    R315810   3.167  16.845   6.528 -0.0507  0.0132 -0.0312
 1131ERGO    R415811   3.094  16.747   6.794  0.1058 -0.1175 -0.0389
 1131ERGO    R515812   3.127  16.955   6.737 -0.1095 -0.0729  0.0011
 1131ERGO    C115813   3.389  16.921   7.012 -0.0118  0.1234 -0.0670
 1131ERGO    C215814   3.635  17.243   7.335 -0.2109  0.1571  0.2267
 1132ERGO   ROH15815   2.787  19.132   9.711  0.1410 -0.0150  0.0548
 1132ERGO    R115816   2.778  19.017   9.452  0.0563  0.0910  0.0099
 1132ERGO    R215817   2.770  19.168   9.221  0.2569  0.1875  0.0669
 1132ERGO    R315818   2.987  19.018   9.155  0.1070 -0.0236  0.0432
 1132ERGO    R415819   2.844  19.058   8.902  0.0327 -0.0126  0.0811
 1132ERGO    R515820   2.906  18.868   8.987 -0.0911 -0.0311  0.1399
 1132ERGO    C115821   3.090  18.854   8.653 -0.2387 -0.3273  0.0673
 1132ERGO    C215822   3.049  18.917   8.330  0.0446 -0.1129  0.1506
 1133ERGO   ROH15823  18.874  17.573   8.892 -0.2986  0.0851 -0.0686
 1133ERGO    R115824  18.745  17.629   8.647 -0.1484  0.0510 -0.1580
 1133ERGO    R215825  18.836  17.820   8.470  0.0649 -0.0958 -0.2173
 1133ERGO    R315826  18.830  17.614   8.294  0.0089 -0.1847 -0.1112
 1133ERGO    R415827  18.788  17.853   8.129  0.2234 -0.2501 -0.2550
 1133ERGO    R515828  18.661  17.676   8.135  0.1134 -0.1666 -0.2122
 1133ERGO    C115829  18.754  17.678   7.765  0.2629 -0.4235 -0.1774
 1133ERGO    C215830  18.548  17.631   7.472  0.0181 -0.0550  0.2848
 1134ERGO   ROH15831   5.419   0.154   6.204  0.0812 -0.0648 -0.0370
 1134ERGO    R115832   5.247   0.331   6.343  0.1049 -0.0189 -0.0661
 1134ERGO    R215833   5.076   0.246   6.543  0.0541  0.0277 -0.0907
 1134ERGO    R315834   5.201   0.440   6.687  0.0805 -0.0005 -0.0750
 1134ERGO    R415835   4.915   0.505   6.705  0.1005  0.1391 -0.2209
 1134ERGO    R515836   5.075   0.639   6.640  0.1952  0.0499 -0.1766
 1134ERGO    C115837   4.939   0.839   6.934  0.1523  0.1774 -0.2820
 1134ERGO    C215838   4.926   0.950   7.088  0.0033  0.1737 -0.1261
 1135ERGO   ROH15839  18.698   6.551   9.848 -0.4267 -0.1389  0.0814
 1135ERGO    R115840  18.854   6.528   9.613 -0.3249 -0.3783  0.1694
 1135ERGO    R215841  18.748   6.442   9.373 -0.3484 -0.1295  0.0874
 1135ERGO    R315842  18.854   6.675   9.280  0.1479 -0.2972  0.1980
 1135ERGO    R415843  18.800   6.515   9.039 -0.3544 -0.0194  0.1102
 1135ERGO    R515844  18.990   6.608   9.094 -0.0983 -0.4928  0.0811
 1135ERGO    C115845  18.929   6.776   8.757  0.1082 -0.1125  0.2271
 1135ERGO    C215846  18.773   6.844   8.415  0.1479 -0.3651  0.0402
 1136ERGO   ROH15847  14.483  10.480   9.089 -0.0628  0.0069  0.0217
 1136ERGO    R115848  14.533  10.597   8.835 -0.0601  0.0205  0.0285
 1136ERGO    R215849  14.500  10.458   8.598  0.0210  0.0127  0.0200
 1136ERGO    R315850  14.340  10.668   8.535 -0.0318 -0.0423 -0.0016
 1136ERGO    R415851  14.385  10.531   8.281  0.1669  0.0835 -0.0173
 1136ERGO    R515852  14.419  10.741   8.322  0.0480  0.0713  0.0750
 1136ERGO    C115853  14.167  10.770   8.037  0.2023  0.0732 -0.0594
 1136ERGO    C215854  14.021  10.678   7.748 -0.2452  0.0390 -0.0927
 1137ERGO   ROH15855   5.592  15.966   9.210  0.2638  0.0394  0.0520
 1137ERGO    R115856   5.457  15.990   8.963  0.1798  0.0764  0.1001
 1137ERGO    R215857   5.577  16.099   8.737  0.0912  0.1506  0.0829
 1137ERGO    R315858   5.500  15.864   8.624  0.0947  0.1631  0.0574
 1137ERGO    R415859   5.521  16.049   8.400  0.1578  0.1644  0.0706
 1137ERGO    R515860   5.349  15.927   8.451  0.1390  0.1796  0.0282
 1137ERGO    C115861   5.417  15.800   8.098  0.1998  0.1842  0.0395
 1137ERGO    C215862   5.464  15.615   7.839 -0.0221  0.0950 -0.1641
 1138ERGO   ROH15863   3.158   6.844   9.676 -0.1483 -0.1692 -0.1488
 1138ERGO    R115864   3.227   6.898   9.407 -0.1268 -0.1381 -0.1369
 1138ERGO    R215865   3.157   6.731   9.199 -0.2323 -0.0419 -0.1774
 1138ERGO    R315866   3.049   6.958   9.095 -0.1037  0.0489 -0.1165
 1138ERGO    R415867   2.988   6.748   8.898 -0.3916  0.0898 -0.0821
 1138ERGO    R515868   3.087   6.939   8.859 -0.2525  0.0099 -0.1407
 1138ERGO    C115869   2.788   6.971   8.626 -0.3636  0.2518  0.0306
 1138ERGO    C215870   2.623   7.013   8.414  0.1727 -0.0554 -0.0802
 1139ERGO   ROH15871  15.629   3.226   9.224  0.2394 -0.1328  0.0921
 1139ERGO    R115872  15.736   3.357   8.997  0.1692 -0.1916  0.0237
 1139ERGO    R215873  15.882   3.225   8.803 -0.0740 -0.2847 -0.1028
 1139ERGO    R315874  15.699   3.335   8.636 -0.1209 -0.1299  0.0479
 1139ERGO    R415875  15.940   3.304   8.472 -0.1884 -0.0439 -0.0673
 1139ERGO    R515876  15.826   3.487   8.501 -0.1501 -0.0477  0.1138
 1139ERGO    C115877  15.802   3.453   8.121 -0.2989  0.2417  0.0947
 1139ERGO    C215878  15.724   3.516   7.851 -0.1335 -0.1325  0.2454
 1140ERGO   ROH15879  16.472  13.274   8.803 -0.0917  0.1821 -0.1023
 1140ERGO    R115880  16.395  13.279   8.531 -0.0443  0.0724 -0.1184
 1140ERGO    R215881  16.562  13.197   8.327  0.0032  0.0157 -0.0602
 1140ERGO    R315882  16.353  13.035   8.264  0.0328 -0.0327 -0.0344
 1140ERGO    R415883  16.540  13.005   8.041  0.0137 -0.0076 -0.0456
 1140ERGO    R515884  16.329  13.059   8.027  0.0048 -0.0544 -0.0310
 1140ERGO    C115885  16.331  12.742   7.814  0.0477 -0.0665 -0.0127
 1140ERGO    C215886  16.376  12.536   7.464 -0.1076  0.2917  0.2076
 1141ERGO   ROH15887  16.062   6.743   9.179  0.4666  0.0853 -0.0925
 1141ERGO    R115888  15.969   6.774   8.913  0.2641  0.0724 -0.0255
 1141ERGO    R215889  16.105   6.922   8.724  0.1426  0.0319 -0.1496
 1141ERGO    R315890  16.091   6.692   8.580 -0.0063  0.0179 -0.1129
 1141ERGO    R415891  16.121   6.904   8.379 -0.0332 -0.0220 -0.1551
 1141ERGO    R515892  15.964   6.752   8.385 -0.0810  0.0328 -0.0586
 1141ERGO    C115893  16.116   6.677   8.043 -0.2757 -0.0665 -0.1240
 1141ERGO    C215894  16.230   6.780   7.638 -0.0852 -0.3233  0.2327
 1142ERGO   ROH15895  16.941  16.399   8.902  0.0270 -0.1563 -0.1983
 1142ERGO    R115896  17.094  16.454   8.671  0.0600  0.0275 -0.1340
 1142ERGO    R215897  17.085  16.295   8.445  0.2163  0.1137 -0.2002
 1142ERGO    R315898  17.027  16.530   8.321  0.1146  0.1302 -0.1232
 1142ERGO    R415899  17.061  16.338   8.103 -0.0268  0.1614 -0.1791
 1142ERGO    R515900  17.164  16.529   8.124 -0.0215  0.1663 -0.2211
 1142ERGO    C115901  16.993  16.584   7.788 -0.2640  0.2047 -0.0946
 1142ERGO    C215902  16.845  16.608   7.447 -0.0807  0.0005  0.1443
 1143ERGO   ROH15903   2.195   1.675   6.118 -0.0438  0.1378  0.2657
 1143ERGO    R115904   2.227   1.457   6.296 -0.0543  0.1379  0.2675
 1143ERGO    R215905   2.467   1.322   6.323 -0.1131  0.0029  0.1251
 1143ERGO    R315906   2.433   1.381   6.586  0.0922  0.0509  0.1430
 1143ERGO    R415907   2.581   1.128   6.585 -0.0894 -0.0567  0.0711
 1143ERGO    R515908   2.395   1.168   6.690  0.0033  0.0866  0.1845
 1143ERGO    C115909   2.616   1.069   6.984  0.1170 -0.0465  0.0564
 1143ERGO    C215910   2.621   0.988   7.250 -0.2324  0.0276 -0.0386
 1144ERGO   ROH15911  11.210   0.151   9.069 -0.0289 -0.1819 -0.1718
 1144ERGO    R115912  11.180   0.236   8.801  0.0399 -0.1363 -0.1651
 1144ERGO    R215913  11.249   0.078   8.586 -0.0532 -0.1616 -0.1771
 1144ERGO    R315914  10.994   0.128   8.508 -0.0177  0.0134 -0.1848
 1144ERGO    R415915  11.134   0.053   8.261 -0.0587 -0.0731 -0.1820
 1144ERGO    R515916  11.017   0.234   8.294  0.0616  0.0054 -0.1804
 1144ERGO    C115917  10.827   0.086   7.998 -0.0286  0.1426 -0.1922
 1144ERGO    C215918  10.748   0.130   7.591  0.2634 -0.0863 -0.2299
 1145ERGO   ROH15919   3.938   9.190   9.717 -0.0144 -0.1046  0.0871
 1145ERGO    R115920   3.994   9.221   9.442  0.0208 -0.0850  0.0966
 1145ERGO    R215921   3.992   9.009   9.265  0.0617 -0.0749  0.0853
 1145ERGO    R315922   3.818   9.167   9.128  0.0681 -0.0815  0.0690
 1145ERGO    R415923   3.913   8.972   8.930 -0.0877 -0.2297  0.1353
 1145ERGO    R515924   3.917   9.189   8.911 -0.0095 -0.2398  0.0149
 1145ERGO    C115925   3.705   9.100   8.607 -0.1686 -0.3259  0.1493
 1145ERGO    C215926   3.622   8.992   8.272  0.2741 -0.0635  0.2343
 1146ERGO   ROH15927   1.866   9.144   6.708 -0.1172  0.1795  0.1494
 1146ERGO    R115928   1.792   9.039   6.960 -0.0694  0.0241  0.0986
 1146ERGO    R215929   1.726   9.199   7.175 -0.0588 -0.1098  0.1986
 1146ERGO    R315930   1.499   9.049   7.176 -0.0411 -0.1386  0.1481
 1146ERGO    R415931   1.476   9.221   7.413 -0.1048 -0.1468  0.1548
 1146ERGO    R515932   1.459   9.003   7.408 -0.0770 -0.1524  0.1421
 1146ERGO    C115933   1.118   9.093   7.552 -0.1149 -0.1954  0.0819
 1146ERGO    C215934   0.844   9.196   7.628  0.0987  0.0926 -0.2406
 1147ERGO   ROH15935   5.686   3.404   6.297  0.2270 -0.1252 -0.1570
 1147ERGO    R115936   5.680   3.333   6.571  0.0331 -0.0846 -0.1497
 1147ERGO    R215937   5.899   3.227   6.702 -0.0863 -0.1503 -0.0016
 1147ERGO    R315938   5.855   3.433   6.874 -0.1125 -0.1091 -0.0569
 1147ERGO    R415939   6.011   3.239   7.029  0.1222  0.0600 -0.0775
 1147ERGO    R515940   5.820   3.327   7.086  0.0989 -0.0470  0.0115
 1147ERGO    C115941   6.035   3.439   7.380  0.2191  0.2211 -0.1736
 1147ERGO    C215942   6.221   3.347   7.710 -0.4534  0.1189  0.1607
 1148ERGO   ROH15943   3.100  10.568   5.516 -0.1400  0.0256 -0.1130
 1148ERGO    R115944   2.989  10.652   5.763 -0.1608  0.0961 -0.1457
 1148ERGO    R215945   2.733  10.584   5.841 -0.1289  0.0249 -0.0997
 1148ERGO    R315946   2.861  10.491   6.063 -0.0753  0.1823 -0.0622
 1148ERGO    R415947   2.579  10.509   6.141 -0.1065 -0.0651 -0.1104
 1148ERGO    R515948   2.749  10.598   6.245 -0.2038  0.1122 -0.0990
 1148ERGO    C115949   2.609  10.378   6.524 -0.0431  0.0302 -0.0816
 1148ERGO    C215950   2.578  10.005   6.722 -0.1090  0.0439 -0.0537
 1149ERGO   ROH15951   6.785   3.396   9.494 -0.3004 -0.1181  0.0491
 1149ERGO    R115952   6.795   3.260   9.246 -0.2441 -0.0618  0.0200
 1149ERGO    R215953   6.568   3.169   9.116 -0.2117 -0.0684 -0.0327
 1149ERGO    R315954   6.667   3.314   8.909 -0.2046 -0.0070  0.0136
 1149ERGO    R415955   6.510   3.101   8.782 -0.2326  0.0518 -0.0537
 1149ERGO    R515956   6.719   3.151   8.741 -0.2285  0.0444 -0.0446
 1149ERGO    C115957   6.570   3.198   8.393 -0.2380  0.1795 -0.0226
 1149ERGO    C215958   6.591   3.412   8.098 -0.2798 -0.2964  0.0155
 1150ERGO   ROH15959  12.765  14.524   8.968 -0.1223 -0.0721  0.0932
 1150ERGO    R115960  12.844  14.593   8.704 -0.1050 -0.0067  0.1159
 1150ERGO    R215961  12.970  14.414   8.535 -0.0352  0.0564  0.1043
 1150ERGO    R315962  12.766  14.479   8.367 -0.0289  0.0304  0.0853
 1150ERGO    R415963  12.985  14.396   8.191  0.0654  0.2420  0.0968
 1150ERGO    R515964  12.874  14.583   8.181 -0.0366  0.1878  0.1657
 1150ERGO    C115965  12.802  14.446   7.832  0.1299  0.3256  0.0745
 1150ERGO    C215966  12.943  14.471   7.498 -0.0424 -0.1916  0.3265
 1151ERGO   ROH15967  16.215   5.434   9.486 -0.0702 -0.0280  0.2249
 1151ERGO    R115968  16.302   5.520   9.231 -0.1481 -0.1224  0.1674
 1151ERGO    R215969  16.559   5.475   9.139 -0.1193  0.0231  0.1931
 1151ERGO    R315970  16.429   5.363   8.928 -0.0329 -0.2159  0.2611
 1151ERGO    R415971  16.701   5.409   8.831 -0.1288  0.1942  0.1493
 1151ERGO    R515972  16.516   5.476   8.737 -0.2782 -0.1032  0.2072
 1151ERGO    C115973  16.661   5.265   8.454 -0.0532  0.0695  0.1876
 1151ERGO    C215974  16.715   5.249   8.098  0.1945 -0.2377  0.1674
 1152ERGO   ROH15975  18.171   9.147   8.909 -0.1467 -0.1601  0.0294
 1152ERGO    R115976  18.150   9.103   8.630 -0.1999 -0.0615  0.0170
 1152ERGO    R215977  18.077   9.303   8.452 -0.0212  0.0607  0.0743
 1152ERGO    R315978  18.309   9.234   8.329 -0.0895 -0.1230  0.0492
 1152ERGO    R415979  18.156   9.375   8.124  0.0051  0.0012  0.0679
 1152ERGO    R515980  18.244   9.177   8.106 -0.1558 -0.0674  0.0559
 1152ERGO    C115981  18.421   9.353   7.817 -0.0438 -0.2060  0.0406
 1152ERGO    C215982  18.655   9.572   7.682  0.0202 -0.1292 -0.0753
 1153ERGO   ROH15983   5.801   1.741   6.146 -0.1105 -0.0477  0.2305
 1153ERGO    R115984   5.865   1.805   6.414 -0.1506  0.0096  0.2261
 1153ERGO    R215985   5.995   1.629   6.583 -0.0831  0.0859  0.2496
 1153ERGO    R315986   6.168   1.837   6.614 -0.1731  0.1637  0.2394
 1153ERGO    R415987   6.242   1.645   6.823 -0.1499  0.2380  0.3101
 1153ERGO    R515988   6.195   1.856   6.851 -0.2422  0.2311  0.2454
 1153ERGO    C115989   6.549   1.848   6.993 -0.2733  0.3995  0.3358
 1153ERGO    C215990   6.836   1.881   7.275 -0.2797 -0.0224  0.2482
 1154ERGO   ROH15991  15.845   2.688   9.253  0.1496  0.0140  0.0336
 1154ERGO    R115992  15.927   2.801   9.007 -0.1342 -0.0387 -0.0885
 1154ERGO    R215993  16.179   2.760   8.900 -0.0888  0.3228 -0.1330
 1154ERGO    R315994  16.038   2.678   8.683 -0.0203 -0.1128 -0.0220
 1154ERGO    R415995  16.301   2.752   8.577 -0.1631  0.2145 -0.1590
 1154ERGO    R515996  16.107   2.825   8.507 -0.3049 -0.1607 -0.1810
 1154ERGO    C115997  16.239   2.669   8.185 -0.1422 -0.2574 -0.0700
 1154ERGO    C215998  16.155   2.636   7.866 -0.2355 -0.2184 -0.0144
 1155ERGO   ROH15999  15.273  12.170   5.688  0.0501 -0.0096 -0.0935
 1155ERGO    R116000  15.038  12.148   5.844  0.0251  0.0510 -0.1234
 1155ERGO    R216001  15.008  11.957   6.041 -0.0776  0.0114 -0.1810
 1155ERGO    R316002  14.952  12.173   6.196 -0.0007 -0.0078 -0.1245
 1155ERGO    R416003  14.816  11.949   6.329 -0.1732  0.0180 -0.2435
 1155ERGO    R516004  14.726  12.138   6.268 -0.0466  0.0949 -0.2088
 1155ERGO    C116005  14.652  12.148   6.642 -0.1566  0.0038 -0.2268
 1155ERGO    C216006  14.596  12.179   7.008  0.3795  0.0946 -0.1393
 1156ERGO   ROH16007  15.050  15.674   8.806 -0.2051  0.2339  0.1306
 1156ERGO    R116008  14.970  15.682   8.535 -0.0281  0.0979  0.0738
 1156ERGO    R216009  14.721  15.775   8.456  0.0310  0.0563 -0.1315
 1156ERGO    R316010  14.869  15.939   8.297  0.1252 -0.0231 -0.1302
 1156ERGO    R416011  14.618  15.902   8.152  0.0336  0.2061 -0.0721
 1156ERGO    R516012  14.818  15.868   8.074 -0.0021  0.0590 -0.1379
 1156ERGO    C116013  14.696  16.130   7.826  0.1236  0.2187 -0.0365
 1156ERGO    C216014  14.406  16.057   7.674 -0.2299  0.0475 -0.2965
 1157ERGO   ROH16015   6.634   6.945   6.085  0.0918 -0.0051  0.0944
 1157ERGO    R116016   6.555   7.019   6.346 -0.0875 -0.1148  0.0729
 1157ERGO    R216017   6.465   7.273   6.408  0.2398 -0.0224  0.1909
 1157ERGO    R316018   6.251   7.139   6.506 -0.0907  0.2180 -0.1714
 1157ERGO    R416019   6.249   7.396   6.648  0.4047 -0.0489  0.3560
 1157ERGO    R516020   6.245   7.198   6.739 -0.0490 -0.2425 -0.0448
 1157ERGO    C116021   5.921   7.342   6.880  0.1905  0.1612  0.1121
 1157ERGO    C216022   5.658   7.274   6.979 -0.1616 -0.1485  0.2274
 1158ERGO   ROH16023  10.613  13.330   8.934 -0.1233  0.1564  0.0471
 1158ERGO    R116024  10.624  13.242   8.666  0.0023  0.0802  0.0762
 1158ERGO    R216025  10.412  13.272   8.490 -0.0372 -0.2623  0.0585
 1158ERGO    R316026  10.599  13.395   8.336 -0.1954 -0.0594  0.0248
 1158ERGO    R416027  10.407  13.284   8.145 -0.0423 -0.3811  0.0542
 1158ERGO    R516028  10.622  13.252   8.146  0.0030 -0.0917  0.0721
 1158ERGO    C116029  10.579  13.406   7.799 -0.1936 -0.2598  0.0200
 1158ERGO    C216030  10.426  13.480   7.555 -0.2967 -0.1176  0.1098
 1159ERGO   ROH16031   3.338   3.330   9.430  0.2326  0.0629  0.0405
 1159ERGO    R116032   3.489   3.405   9.202  0.1595 -0.0784 -0.0565
 1159ERGO    R216033   3.523   3.239   8.985 -0.1639 -0.1004 -0.0962
 1159ERGO    R316034   3.426   3.452   8.847 -0.0350  0.0150 -0.0109
 1159ERGO    R416035   3.512   3.263   8.640 -0.0362  0.0998 -0.0878
 1159ERGO    R516036   3.572   3.472   8.658  0.0375  0.0676  0.0506
 1159ERGO    C116037   3.415   3.477   8.310  0.1592  0.3247 -0.0030
 1159ERGO    C216038   3.422   3.347   7.926  0.0012 -0.0977 -0.0794
 1160ERGO   ROH16039   7.060   3.273   6.205  0.0303  0.1704  0.0367
 1160ERGO    R116040   7.044   3.330   6.481 -0.1010  0.0375  0.0575
 1160ERGO    R216041   7.068   3.586   6.582  0.1867 -0.0505  0.2160
 1160ERGO    R316042   6.829   3.529   6.698  0.0100  0.2219  0.0019
 1160ERGO    R416043   6.950   3.732   6.872  0.3092 -0.2335  0.3608
 1160ERGO    R516044   6.874   3.537   6.933 -0.0905 -0.1951  0.0462
 1160ERGO    C116045   6.657   3.764   7.150  0.2147 -0.0844  0.2441
 1160ERGO    C216046   6.425   3.787   7.345 -0.2802 -0.3945  0.3436
 1161ERGO   ROH16047   8.134  13.973   5.278  0.0950 -0.0980  0.0659
 1161ERGO    R116048   8.314  14.046   5.483 -0.0555 -0.0206  0.1729
 1161ERGO    R216049   8.512  14.235   5.447  0.0857 -0.1603  0.1900
 1161ERGO    R316050   8.398  14.349   5.666 -0.0605  0.0938 -0.0134
 1161ERGO    R416051   8.684  14.334   5.731 -0.1444 -0.1279  0.3199
 1161ERGO    R516052   8.519  14.257   5.851 -0.3538  0.1056  0.1894
 1161ERGO    C116053   8.676  14.499   6.101 -0.4156  0.1296  0.2045
 1161ERGO    C216054   8.665  14.720   6.393 -0.0194  0.1594 -0.0963
 1162ERGO   ROH16055   2.293  14.874   9.101 -0.0758  0.1133  0.2181
 1162ERGO    R116056   2.267  15.028   8.865 -0.1022  0.1830  0.2665
 1162ERGO    R216057   2.453  15.219   8.791  0.0380  0.0063  0.1610
 1162ERGO    R316058   2.458  15.077   8.559 -0.2872  0.0413  0.1255
 1162ERGO    R416059   2.617  15.317   8.503  0.0853 -0.1994  0.1159
 1162ERGO    R516060   2.447  15.243   8.387 -0.0869  0.0990  0.1660
 1162ERGO    C116061   2.718  15.240   8.118 -0.1924 -0.2863  0.0562
 1162ERGO    C216062   2.925  15.457   7.847  0.0515 -0.1654  0.2420
 1163ERGO   ROH16063  15.793   9.971   5.788  0.0732 -0.1091  0.1498
 1163ERGO    R116064  16.003  10.089   5.937  0.1755 -0.0789 -0.0158
 1163ERGO    R216065  16.070  10.006   6.191  0.1083  0.2125  0.1020
 1163ERGO    R316066  16.318   9.979   6.082  0.0859 -0.1468  0.1285
 1163ERGO    R416067  16.366  10.015   6.369  0.1243  0.3680  0.0681
 1163ERGO    R516068  16.455  10.131   6.207  0.1869  0.0118 -0.1650
 1163ERGO    C116069  16.771   9.995   6.371  0.1126  0.1213  0.0732
 1163ERGO    C216070  16.884   9.861   6.665  0.0190 -0.3496 -0.4794
 1164ERGO   ROH16071  10.518   4.025   9.168  0.0210 -0.2181 -0.1114
 1164ERGO    R116072  10.605   4.168   8.940 -0.0196 -0.1447 -0.0817
 1164ERGO    R216073  10.508   4.117   8.686  0.0050 -0.1290 -0.0980
 1164ERGO    R316074  10.452   4.383   8.689 -0.0857 -0.1490 -0.0442
 1164ERGO    R416075  10.454   4.310   8.404  0.1516 -0.0420 -0.0667
 1164ERGO    R516076  10.569   4.470   8.498  0.0264 -0.0389  0.0762
 1164ERGO    C116077  10.370   4.671   8.242  0.1518 -0.0100  0.0019
 1164ERGO    C216078  10.426   4.797   7.964 -0.4551 -0.0455 -0.1740
 1165ERGO   ROH16079  18.162  17.005   5.689 -0.0333  0.1782  0.0361
 1165ERGO    R116080  18.237  16.987   5.961 -0.0273  0.0588  0.0281
 1165ERGO    R216081  18.381  17.186   6.088  0.0567 -0.0358  0.0900
 1165ERGO    R316082  18.175  17.177   6.265  0.0587 -0.0162  0.0919
 1165ERGO    R416083  18.351  17.389   6.367  0.0584 -0.0135  0.0728
 1165ERGO    R516084  18.278  17.216   6.478  0.0566  0.0003  0.0869
 1165ERGO    C116085  18.140  17.498   6.695  0.0610  0.0181  0.0646
 1165ERGO    C216086  18.040  17.767   6.909 -0.4731  0.1249 -0.1294
 1166ERGO   ROH16087   1.732  18.018   5.649  0.1387 -0.1023  0.1644
 1166ERGO    R116088   1.699  17.979   5.927  0.2738 -0.2304  0.1649
 1166ERGO    R216089   1.467  18.046   6.061  0.5029  0.1695  0.3948
 1166ERGO    R316090   1.478  17.787   6.143  0.0299  0.0755  0.1905
 1166ERGO    R416091   1.322  17.924   6.350  0.2930  0.1966  0.3018
 1166ERGO    R516092   1.499  17.801   6.381  0.0690 -0.1569  0.1990
 1166ERGO    C116093   1.249  17.611   6.596 -0.2733  0.1243  0.0559
 1166ERGO    C216094   1.082  17.520   6.919 -0.0415  0.3316 -0.1178
 1167ERGO   ROH16095   2.011   0.261   9.649  0.1464  0.0703  0.0157
 1167ERGO    R116096   1.896   0.247   9.391  0.0548  0.0685  0.0552
 1167ERGO    R216097   1.966   0.420   9.187 -0.0783  0.1233  0.0499
 1167ERGO    R316098   2.014   0.190   9.052 -0.0492  0.1571  0.0046
 1167ERGO    R416099   1.978   0.392   8.843 -0.0373  0.1947  0.0462
 1167ERGO    R516100   1.872   0.202   8.860 -0.0255  0.1874 -0.0077
 1167ERGO    C116101   2.030   0.160   8.515  0.0138  0.2681  0.0014
 1167ERGO    C216102   2.177   0.123   8.176  0.0860 -0.0713 -0.0268
 1168ERGO   ROH16103   3.035   8.882   9.628  0.2512 -0.0501  0.1473
 1168ERGO    R116104   3.098   8.710   9.412  0.1915  0.0072  0.0842
 1168ERGO    R216105   2.908   8.555   9.285  0.1357  0.1323  0.0167
 1168ERGO    R316106   3.002   8.678   9.062  0.1943  0.1785  0.0663
 1168ERGO    R416107   2.940   8.405   8.976 -0.0656  0.2730 -0.0745
 1168ERGO    R516108   3.130   8.509   8.950  0.0239  0.1245 -0.0558
 1168ERGO    C116109   3.047   8.433   8.586 -0.1278  0.3984 -0.0812
 1168ERGO    C216110   2.951   8.380   8.217  0.1919  0.1759 -0.3240
 1169ERGO   ROH16111   8.086   8.015   8.978  0.0606 -0.0252 -0.1326
 1169ERGO    R116112   8.128   8.021   8.698  0.0256 -0.0674 -0.1388
 1169ERGO    R216113   8.215   7.801   8.555  0.0512 -0.0756 -0.1088
 1169ERGO    R316114   7.993   7.851   8.406  0.0239 -0.1466 -0.0928
 1169ERGO    R416115   8.195   7.763   8.212  0.0630 -0.0179 -0.1159
 1169ERGO    R516116   8.079   7.947   8.204 -0.0222 -0.0673 -0.0764
 1169ERGO    C116117   7.976   7.789   7.872  0.0442 -0.0509 -0.1050
 1169ERGO    C216118   7.954   7.866   7.530 -0.1191 -0.2506  0.3918
 1170ERGO   ROH16119  15.463   4.420   9.469  0.0815  0.2628 -0.0816
 1170ERGO    R116120  15.379   4.475   9.204  0.2266  0.2739 -0.1270
 1170ERGO    R216121  15.557   4.530   9.000  0.3650 -0.0691 -0.1108
 1170ERGO    R316122  15.427   4.326   8.876  0.0982  0.0600 -0.0502
 1170ERGO    R416123  15.539   4.488   8.658  0.4394 -0.2311 -0.0949
 1170ERGO    R516124  15.331   4.427   8.681  0.3333  0.1041 -0.1450
 1170ERGO    C116125  15.406   4.272   8.342  0.2322 -0.2041 -0.0290
 1170ERGO    C216126  15.530   4.362   8.083  0.1809 -0.0713  0.5247
 1171ERGO   ROH16127  15.313   0.233   5.736 -0.0359  0.2340  0.0107
 1171ERGO    R116128  15.310   0.184   6.015  0.1177  0.1472 -0.0021
 1171ERGO    R216129  15.326  -0.071   6.121  0.0593  0.1030 -0.0926
 1171ERGO    R316130  15.535   0.034   6.258  0.2015 -0.0429 -0.1940
 1171ERGO    R416131  15.449  -0.196   6.418 -0.0310  0.1576 -0.0321
 1171ERGO    R516132  15.474   0.009   6.488  0.2109  0.1755 -0.1680
 1171ERGO    C116133  15.718  -0.169   6.721  0.0497  0.0526 -0.0922
 1171ERGO    C216134  15.761  -0.481   6.898 -0.0043  0.2774  0.0671
 1172ERGO   ROH16135   4.150  12.911   5.612 -0.2423  0.1663  0.1639
 1172ERGO    R116136   4.251  12.931   5.876 -0.1192  0.1117  0.1222
 1172ERGO    R216137   4.107  13.045   6.082 -0.0365  0.0452  0.2223
 1172ERGO    R316138   4.156  12.808   6.205  0.0488  0.0181  0.1357
 1172ERGO    R416139   4.073  12.988   6.421 -0.2218 -0.1519  0.1719
 1172ERGO    R516140   4.256  12.869   6.414 -0.1342 -0.0180  0.2326
 1172ERGO    C116141   4.099  12.732   6.734 -0.2496 -0.2922  0.0613
 1172ERGO    C216142   4.096  12.760   7.090  0.2038 -0.0406  0.1599
 1173ERGO   ROH16143  14.733   3.445   9.003  0.4139 -0.0604  0.0082
 1173ERGO    R116144  14.676   3.518   8.736  0.1497 -0.2078  0.0183
 1173ERGO    R216145  14.875   3.578   8.552 -0.0338  0.1315 -0.0949
 1173ERGO    R316146  14.751   3.386   8.405  0.2421 -0.1360  0.0141
 1173ERGO    R416147  14.887   3.554   8.208 -0.1530  0.0364 -0.0914
 1173ERGO    R516148  14.676   3.501   8.209 -0.0511 -0.3391  0.0128
 1173ERGO    C116149  14.777   3.361   7.869  0.0367 -0.2702  0.0129
 1173ERGO    C216150  14.743   3.321   7.516  0.0403 -0.0253 -0.1700
 1174ERGO   ROH16151  11.484   9.160   5.703 -0.0699 -0.0323 -0.1339
 1174ERGO    R116152  11.503   8.934   5.871  0.0071 -0.0220 -0.1269
 1174ERGO    R216153  11.722   8.887   6.033  0.0793 -0.0053 -0.2086
 1174ERGO    R316154  11.535   8.872   6.229  0.1548  0.0062 -0.1365
 1174ERGO    R416155  11.772   8.742   6.342  0.1439 -0.0995 -0.2633
 1174ERGO    R516156  11.571   8.658   6.329  0.1171 -0.0259 -0.2037
 1174ERGO    C116157  11.625   8.644   6.707  0.2524 -0.1435 -0.2274
 1174ERGO    C216158  11.695   8.524   7.024  0.2358 -0.0407  0.0022
 1175ERGO   ROH16159  17.105  12.458   8.866  0.2767 -0.2659  0.0500
 1175ERGO    R116160  17.267  12.498   8.637  0.1581 -0.3578 -0.0506
 1175ERGO    R216161  17.245  12.340   8.411 -0.1606 -0.2675 -0.0888
 1175ERGO    R316162  17.213  12.579   8.287 -0.0065 -0.1922  0.0114
 1175ERGO    R416163  17.298  12.396   8.074 -0.0365 -0.1359 -0.0485
 1175ERGO    R516164  17.390  12.587   8.126  0.0440 -0.2042  0.0660
 1175ERGO    C116165  17.298  12.654   7.761  0.1807  0.0113  0.0690
 1175ERGO    C216166  17.297  12.655   7.327  0.0415 -0.3930 -0.2069
 1176ERGO   ROH16167  15.331  14.223   8.860 -0.1021 -0.2733  0.0449
 1176ERGO    R116168  15.370  14.368   8.621 -0.2255 -0.2050  0.0672
 1176ERGO    R216169  15.619  14.450   8.535 -0.2987  0.0364  0.0877
 1176ERGO    R316170  15.548  14.320   8.307 -0.1672  0.0047  0.0670
 1176ERGO    R416171  15.768  14.498   8.227 -0.1751  0.0454  0.1474
 1176ERGO    R516172  15.570  14.486   8.136 -0.1295 -0.0062  0.0629
 1176ERGO    C116173  15.789  14.404   7.834  0.0204  0.0209  0.1627
 1176ERGO    C216174  15.881  14.470   7.442  0.1142 -0.3209 -0.5792
 1177ERGO   ROH16175   9.107  11.656   9.059 -0.0788 -0.0481 -0.0963
 1177ERGO    R116176   9.224  11.780   8.833  0.0057 -0.1843 -0.1305
 1177ERGO    R216177   9.352  11.637   8.634 -0.1607 -0.3343 -0.1424
 1177ERGO    R316178   9.178  11.769   8.472 -0.0679 -0.1844 -0.1191
 1177ERGO    R416179   9.410  11.710   8.301 -0.0839 -0.2261 -0.1049
 1177ERGO    R516180   9.319  11.906   8.334  0.0117 -0.2001 -0.0443
 1177ERGO    C116181   9.281  11.877   7.955  0.0481 -0.0223 -0.0611
 1177ERGO    C216182   9.284  11.869   7.571 -0.1314  0.1130 -0.1103
 1178ERGO   ROH16183  13.834   1.883   8.958  0.0402 -0.0553 -0.1124
 1178ERGO    R116184  13.896   1.765   8.708 -0.0799 -0.1656 -0.0900
 1178ERGO    R216185  13.773   1.534   8.619 -0.1846 -0.1555  0.0341
 1178ERGO    R316186  13.716   1.688   8.401 -0.2039 -0.2177 -0.0061
 1178ERGO    R416187  13.815   1.434   8.291 -0.1695 -0.2377  0.0602
 1178ERGO    R516188  13.889   1.634   8.244 -0.1940 -0.2374  0.0085
 1178ERGO    C116189  13.786   1.520   7.895 -0.1788 -0.3439  0.0377
 1178ERGO    C216190  13.628   1.526   7.563  0.0033  0.0793 -0.1370
 1179ERGO   ROH16191   6.918  17.533   7.133 -0.2051 -0.2399 -0.3641
 1179ERGO    R116192   7.152  17.448   6.999 -0.1984 -0.0749 -0.4598
 1179ERGO    R216193   7.244  17.569   6.769 -0.0847  0.3352 -0.2097
 1179ERGO    R316194   7.474  17.593   6.911 -0.1165 -0.0214 -0.0884
 1179ERGO    R416195   7.552  17.651   6.634 -0.0052  0.4422  0.0319
 1179ERGO    R516196   7.643  17.504   6.767 -0.1125  0.1600 -0.1979
 1179ERGO    C116197   7.947  17.722   6.690  0.0112  0.1697  0.2865
 1179ERGO    C216198   8.354  17.742   6.561 -0.0482  0.0183  0.1519
 1180ERGO   ROH16199  15.543  10.784   9.366 -0.0401 -0.0789  0.0999
 1180ERGO    R116200  15.456  10.833   9.101  0.0304  0.0637  0.1006
 1180ERGO    R216201  15.597  10.992   8.924  0.2342 -0.0741  0.1266
 1180ERGO    R316202  15.583  10.771   8.766 -0.0192 -0.0420  0.1030
 1180ERGO    R416203  15.583  10.996   8.579  0.0261 -0.0309  0.1352
 1180ERGO    R516204  15.437  10.835   8.587 -0.0791  0.0768  0.2005
 1180ERGO    C116205  15.561  10.792   8.229 -0.3327  0.0244  0.1180
 1180ERGO    C216206  15.570  10.778   7.888  0.1872  0.0925  0.0073
 1181ERGO   ROH16207  12.586  12.634   8.974 -0.0699  0.0071  0.0066
 1181ERGO    R116208  12.402  12.518   8.793  0.0825  0.1268 -0.2320
 1181ERGO    R216209  12.458  12.483   8.525  0.5076 -0.1392 -0.1193
 1181ERGO    R316210  12.392  12.225   8.578  0.0700 -0.0170 -0.0371
 1181ERGO    R416211  12.412  12.238   8.286  0.3957 -0.2098 -0.0257
 1181ERGO    R516212  12.242  12.164   8.401  0.1628  0.1046 -0.1575
 1181ERGO    C116213  12.322  11.853   8.197 -0.0802 -0.1361  0.1058
 1181ERGO    C216214  12.231  11.557   8.169 -0.1106 -0.1693  0.1985
 1182ERGO   ROH16215   9.544  11.537   5.651  0.0308 -0.1658 -0.1435
 1182ERGO    R116216   9.374  11.430   5.851 -0.0540  0.0908 -0.0766
 1182ERGO    R216217   9.099  11.443   5.835 -0.0483 -0.0837 -0.3017
 1182ERGO    R316218   9.116  11.174   5.871  0.0718 -0.0213  0.1832
 1182ERGO    R416219   8.836  11.240   5.931 -0.1358 -0.1026 -0.5709
 1182ERGO    R516220   8.974  11.131   6.059 -0.3399  0.2008 -0.0567
 1182ERGO    C116221   8.699  10.869   6.020 -0.0740 -0.0550 -0.2724
 1182ERGO    C216222   8.334  10.860   5.845 -0.1153 -0.1824  0.0350
 1183ERGO   ROH16223   2.127   3.757   9.720 -0.0248  0.1253  0.0306
 1183ERGO    R116224   2.286   3.881   9.521  0.0127  0.0921  0.0399
 1183ERGO    R216225   2.497   3.753   9.397  0.0172  0.0610  0.0799
 1183ERGO    R316226   2.364   3.823   9.170  0.0536  0.0521  0.0555
 1183ERGO    R416227   2.647   3.812   9.091  0.0872  0.2366  0.1469
 1183ERGO    R516228   2.510   3.980   9.063  0.0011  0.1675  0.1505
 1183ERGO    C116229   2.610   3.913   8.701  0.1622  0.3304  0.1630
 1183ERGO    C216230   2.573   3.725   8.436  0.0945  0.0058  0.0368
 1184ERGO   ROH16231   2.313   2.925   6.013 -0.1534 -0.2638 -0.1329
 1184ERGO    R116232   2.298   2.711   6.199 -0.0746 -0.1314  0.0299
 1184ERGO    R216233   2.412   2.724   6.450 -0.1438  0.1302  0.0541
 1184ERGO    R316234   2.160   2.660   6.532 -0.1285  0.0488  0.0356
 1184ERGO    R416235   2.330   2.606   6.765 -0.1082 -0.0782 -0.0137
 1184ERGO    R516236   2.190   2.467   6.671 -0.0974 -0.0344 -0.0881
 1184ERGO    C116237   2.046   2.477   7.024 -0.0730 -0.2761 -0.0705
 1184ERGO    C216238   1.868   2.299   7.317 -0.0854 -0.2739 -0.0188
 1185ERGO   ROH16239   3.209  18.238   5.816  0.1996 -0.0271  0.0749
 1185ERGO    R116240   3.118  18.334   6.066 -0.1617 -0.1157 -0.0160
 1185ERGO    R216241   2.917  18.209   6.210  0.0232 -0.5074 -0.0783
 1185ERGO    R316242   3.103  18.210   6.408 -0.0775 -0.0067  0.0270
 1185ERGO    R416243   2.851  18.148   6.544 -0.0316 -0.4395 -0.0772
 1185ERGO    R516244   2.991  18.307   6.595 -0.3799 -0.1184 -0.0924
 1185ERGO    C116245   2.988  18.113   6.924 -0.1581  0.0700  0.0222
 1185ERGO    C216246   2.934  17.875   7.194  0.0264  0.0246 -0.0014
 1186ERGO   ROH16247   5.106   3.990   6.200  0.0698 -0.0638 -0.0044
 1186ERGO    R116248   5.132   4.084   6.465  0.1628  0.0154 -0.0416
 1186ERGO    R216249   5.267   4.317   6.528 -0.0432  0.1747 -0.1824
 1186ERGO    R316250   5.033   4.381   6.651 -0.0207 -0.0560 -0.0258
 1186ERGO    R416251   5.209   4.609   6.704 -0.3445  0.3242 -0.5141
 1186ERGO    R516252   5.100   4.492   6.852  0.0093  0.3312 -0.2429
 1186ERGO    C116253   4.957   4.838   6.923 -0.4988  0.1947 -0.5604
 1186ERGO    C216254   4.839   5.270   6.856 -0.2527 -0.2369  0.1227
 1187ERGO   ROH16255   3.253   4.625   6.219  0.3509 -0.1850  0.1552
 1187ERGO    R116256   3.186   4.590   6.492  0.1650  0.0074  0.1388
 1187ERGO    R216257   3.277   4.759   6.692  0.1683  0.0548  0.1062
 1187ERGO    R316258   3.013   4.781   6.749  0.1469  0.2708 -0.0681
 1187ERGO    R416259   3.146   4.813   7.007 -0.0129  0.0259  0.0360
 1187ERGO    R516260   2.988   4.672   6.960 -0.1080  0.1971 -0.1387
 1187ERGO    C116261   2.822   4.866   7.244 -0.1386  0.2120 -0.1686
 1187ERGO    C216262   2.637   5.028   7.366  0.0802 -0.2467 -0.1736
 1188ERGO   ROH16263   0.897  12.882   8.593  0.3775 -0.0312  0.0211
 1188ERGO    R116264   1.039  13.050   8.414  0.0876  0.1081 -0.0823
 1188ERGO    R216265   0.918  13.172   8.197 -0.2661  0.2748  0.2038
 1188ERGO    R316266   1.021  13.397   8.307 -0.0894  0.1935  0.2087
 1188ERGO    R416267   0.996  13.459   8.021 -0.0336  0.2101  0.1982
 1188ERGO    R516268   1.176  13.478   8.143 -0.0172  0.0670  0.2079
 1188ERGO    C116269   1.140  13.838   8.023  0.2676  0.0961  0.1997
 1188ERGO    C216270   1.055  13.945   7.662 -0.1094  0.2100 -0.2367
 1189ERGO   ROH16271   3.367   9.306   6.055  0.4446 -0.0934 -0.0071
 1189ERGO    R116272   3.257   9.271   6.313  0.1747  0.1516 -0.0840
 1189ERGO    R216273   3.408   9.187   6.529 -0.1420 -0.0876  0.0496
 1189ERGO    R316274   3.310   9.413   6.644  0.1750  0.1183 -0.0689
 1189ERGO    R416275   3.432   9.264   6.865 -0.5563 -0.2550  0.1242
 1189ERGO    R516276   3.228   9.341   6.858 -0.3840  0.2315 -0.2251
 1189ERGO    C116277   3.354   9.521   7.169 -0.5000 -0.1591  0.0564
 1189ERGO    C216278   3.468   9.687   7.535 -0.1225 -0.1599 -0.1551
 1190ERGO   ROH16279  10.897  16.857   9.090  0.0996 -0.3216  0.0133
 1190ERGO    R116280  10.985  16.868   8.821 -0.1066 -0.2092 -0.0520
 1190ERGO    R216281  11.185  16.705   8.723  0.0101  0.0165 -0.2046
 1190ERGO    R316282  10.997  16.641   8.537 -0.0589 -0.1843 -0.0689
 1190ERGO    R416283  11.242  16.506   8.447 -0.0667 -0.1820 -0.0789
 1190ERGO    R516284  11.118  16.642   8.330 -0.1598 -0.3111 -0.1267
 1190ERGO    C116285  11.099  16.329   8.111 -0.1761 -0.4862  0.1217
 1190ERGO    C216286  11.143  16.234   7.879  0.1641  0.0851 -0.0146
 1191ERGO   ROH16287   8.060   4.992   6.176 -0.2506 -0.0018  0.0045
 1191ERGO    R116288   8.030   5.111   6.431 -0.0156  0.1389 -0.0315
 1191ERGO    R216289   8.019   4.964   6.664 -0.1626  0.2407  0.0260
 1191ERGO    R316290   8.223   5.127   6.739  0.0912 -0.0141 -0.0884
 1191ERGO    R416291   8.125   5.011   6.990 -0.2060  0.4231  0.0145
 1191ERGO    R516292   8.150   5.223   6.946  0.1689  0.3440 -0.2179
 1191ERGO    C116293   8.379   5.193   7.249  0.0070  0.2902 -0.0997
 1191ERGO    C216294   8.662   5.164   7.420  0.1291 -0.2487 -0.0928
 1192ERGO   ROH16295  12.286  16.699   8.835 -0.0665  0.1703  0.1175
 1192ERGO    R116296  12.241  16.818   8.583  0.3526  0.2075  0.0526
 1192ERGO    R216297  12.404  16.771   8.365  0.2824 -0.3826  0.1102
 1192ERGO    R316298  12.169  16.703   8.245  0.0858  0.2636  0.0881
 1192ERGO    R416299  12.362  16.725   8.025  0.2020 -0.3446  0.1147
 1192ERGO    R516300  12.169  16.827   8.040  0.4786  0.2252  0.0585
 1192ERGO    C116301  12.117  16.635   7.714 -0.0292  0.2844  0.0965
 1192ERGO    C216302  12.116  16.667   7.339 -0.1583 -0.1883  0.0347
 1193ERGO   ROH16303   1.679   3.730   6.278 -0.2395  0.1892  0.1593
 1193ERGO    R116304   1.756   3.733   6.551  0.0585  0.1036  0.0787
 1193ERGO    R216305   1.830   3.504   6.686  0.1171  0.0507 -0.0533
 1193ERGO    R316306   2.054   3.649   6.742  0.2381 -0.0502 -0.2560
 1193ERGO    R416307   2.047   3.439   6.948  0.1775  0.0994 -0.0898
 1193ERGO    R516308   2.062   3.654   6.982  0.3337  0.1236 -0.2574
 1193ERGO    C116309   2.383   3.538   7.152  0.3263  0.0329 -0.3013
 1193ERGO    C216310   2.639   3.541   7.370  0.2635  0.1465 -0.1447
 1194ERGO   ROH16311  12.843   1.464   5.730  0.0342 -0.1157 -0.2028
 1194ERGO    R116312  12.781   1.447   6.006  0.0212  0.0001 -0.1991
 1194ERGO    R216313  12.861   1.637   6.188 -0.0527  0.1119 -0.2908
 1194ERGO    R316314  12.596   1.645   6.249 -0.0588  0.0592 -0.3050
 1194ERGO    R416315  12.732   1.690   6.505 -0.0711 -0.0082 -0.2768
 1194ERGO    R516316  12.581   1.538   6.463 -0.0536 -0.0171 -0.3377
 1194ERGO    C116317  12.409   1.727   6.746 -0.0876 -0.1276 -0.2820
 1194ERGO    C216318  12.376   1.660   7.107  0.1905  0.0056 -0.1460
 1195ERGO   ROH16319  16.902   1.419   5.646  0.0813  0.0524  0.0377
 1195ERGO    R116320  16.851   1.328   5.910  0.0305 -0.0586 -0.0098
 1195ERGO    R216321  17.029   1.368   6.117 -0.0120 -0.1415  0.0419
 1195ERGO    R316322  16.812   1.480   6.238 -0.0383 -0.1966  0.0464
 1195ERGO    R416323  16.977   1.378   6.459 -0.0765 -0.2809  0.0369
 1195ERGO    R516324  16.766   1.334   6.423 -0.0688 -0.2731 -0.0205
 1195ERGO    C116325  16.743   1.488   6.771 -0.1386 -0.4138  0.0383
 1195ERGO    C216326  16.936   1.482   7.155 -0.3679  0.0735 -0.0236
 1196ERGO   ROH16327  14.017  17.748   5.741  0.1077 -0.0596  0.0437
 1196ERGO    R116328  13.860  17.741   5.976 -0.0350 -0.0808 -0.0509
 1196ERGO    R216329  13.771  17.504   6.088  0.0805 -0.1033 -0.0060
 1196ERGO    R316330  13.892  17.602   6.311 -0.1351  0.0886  0.0303
 1196ERGO    R416331  13.665  17.447   6.412  0.0623 -0.2564 -0.0384
 1196ERGO    R516332  13.711  17.655   6.459 -0.2660 -0.1802 -0.0278
 1196ERGO    C116333  13.717  17.505   6.810 -0.1509 -0.1654 -0.0233
 1196ERGO    C216334  13.608  17.359   7.221 -0.2196  0.0775  0.2209
 1197ERGO   ROH16335   4.793   0.695   9.418  0.2842  0.0859  0.0062
 1197ERGO    R116336   4.815   0.528   9.191  0.1010  0.0317  0.0284
 1197ERGO    R216337   4.699   0.592   8.948  0.1815  0.1327  0.0227
 1197ERGO    R316338   4.952   0.554   8.855  0.1432 -0.1704  0.0264
 1197ERGO    R416339   4.785   0.572   8.614  0.1916  0.3857  0.0076
 1197ERGO    R516340   4.924   0.411   8.665 -0.0695  0.0886 -0.1506
 1197ERGO    C116341   5.072   0.526   8.332  0.1617  0.2485  0.0024
 1197ERGO    C216342   5.028   0.761   8.063 -0.1407  0.1064  0.0282
 1198ERGO   ROH16343  14.710   2.137   8.887  0.1246  0.4896  0.1111
 1198ERGO    R116344  14.855   2.086   8.650  0.1071  0.2859  0.1416
 1198ERGO    R216345  14.733   2.059   8.403  0.0706 -0.0844  0.1897
 1198ERGO    R316346  14.908   2.254   8.331 -0.0572 -0.0638 -0.0735
 1198ERGO    R416347  14.962   2.033   8.146  0.1014 -0.2794  0.2353
 1198ERGO    R516348  15.107   2.135   8.271  0.0248 -0.0073  0.0998
 1198ERGO    C116349  15.259   2.201   7.928 -0.0008 -0.3736  0.0149
 1198ERGO    C216350  15.379   2.178   7.606  0.0923  0.0970 -0.4067
 1199ERGO   ROH16351  18.969   3.919   6.302 -0.0087  0.1963  0.0329
 1199ERGO    R116352  18.996   3.913   6.584 -0.1018  0.2517  0.0423
 1199ERGO    R216353  19.238   3.867   6.709 -0.1829  0.0857  0.1276
 1199ERGO    R316354  19.181   4.101   6.835 -0.0252  0.1679  0.0518
 1199ERGO    R416355  19.395   3.981   6.995 -0.3210 -0.1009  0.2818
 1199ERGO    R516356  19.202   4.050   7.068 -0.3224  0.1447  0.0829
 1199ERGO    C116357  19.433   4.268   7.279 -0.2532 -0.1322  0.3005
 1199ERGO    C216358  19.695   4.284   7.425  0.2380 -0.0460  0.0217
 1200ERGO   ROH16359   4.835   8.592   9.305  0.0578 -0.0696 -0.1323
 1200ERGO    R116360   4.905   8.639   9.035  0.0012 -0.0980 -0.1517
 1200ERGO    R216361   4.843   8.462   8.832 -0.0789 -0.0984 -0.1256
 1200ERGO    R316362   4.727   8.681   8.720 -0.0667 -0.0848 -0.1122
 1200ERGO    R416363   4.754   8.490   8.499  0.1728  0.0262 -0.1844
 1200ERGO    R516364   4.826   8.696   8.502  0.1008  0.0516 -0.0299
 1200ERGO    C116365   4.594   8.712   8.200  0.3308  0.1115 -0.2062
 1200ERGO    C216366   4.259   8.835   7.981  0.1246  0.0204  0.2017
 1201ERGO   ROH16367  14.897   5.497   5.994  0.2291  0.2123  0.0401
 1201ERGO    R116368  15.077   5.444   6.206 -0.0073 -0.0368  0.1832
 1201ERGO    R216369  15.124   5.625   6.409  0.1793 -0.0448  0.1420
 1201ERGO    R316370  15.057   5.415   6.568 -0.3080  0.1296  0.1844
 1201ERGO    R416371  15.213   5.594   6.741  0.3503 -0.2954  0.0774
 1201ERGO    R516372  15.250   5.382   6.706 -0.2790 -0.4230  0.0397
 1201ERGO    C116373  15.201   5.380   7.085 -0.0077 -0.2776  0.0795
 1201ERGO    C216374  15.319   5.182   7.333  0.0139  0.2598  0.1360
 1202ERGO   ROH16375   8.408  13.401   8.975 -0.1495  0.1922 -0.0270
 1202ERGO    R116376   8.299  13.258   8.757  0.0138  0.0572 -0.0229
 1202ERGO    R216377   8.072  13.343   8.623 -0.0011 -0.1325 -0.1163
 1202ERGO    R316378   8.233  13.324   8.405  0.0776 -0.0855 -0.0629
 1202ERGO    R416379   7.962  13.340   8.295  0.0847 -0.3488 -0.1455
 1202ERGO    R516380   8.110  13.187   8.252  0.2267 -0.2487 -0.0448
 1202ERGO    C116381   8.048  13.321   7.900  0.2084 -0.4307 -0.1124
 1202ERGO    C216382   7.822  13.505   7.744  0.3342  0.0941  0.2619
 1203ERGO   ROH16383   0.318   0.776   9.129 -0.0084 -0.3716  0.0221
 1203ERGO    R116384   0.284   0.716   8.855 -0.0353 -0.1109 -0.0350
 1203ERGO    R216385   0.187   0.899   8.673  0.0299  0.0944  0.1280
 1203ERGO    R316386   0.416   0.840   8.539  0.0076  0.1286  0.0761
 1203ERGO    R416387   0.274   1.026   8.363 -0.0546  0.1025  0.1082
 1203ERGO    R516388   0.350   0.829   8.309 -0.0385  0.1172  0.0929
 1203ERGO    C116389   0.539   1.044   8.057 -0.1248  0.1393  0.0480
 1203ERGO    C216390   0.639   1.136   7.733  0.2015  0.0423  0.0003
 1204ERGO   ROH16391   1.442   4.596   6.264 -0.0838 -0.1023  0.0017
 1204ERGO    R116392   1.382   4.629   6.538  0.0508 -0.0562  0.0271
 1204ERGO    R216393   1.555   4.552   6.739  0.1191 -0.0931 -0.0411
 1204ERGO    R316394   1.524   4.809   6.820  0.2384 -0.0746 -0.0558
 1204ERGO    R416395   1.602   4.664   7.063  0.0021 -0.1249 -0.0133
 1204ERGO    R516396   1.427   4.792   7.039  0.1003 -0.0124 -0.1135
 1204ERGO    C116397   1.601   4.971   7.327  0.0460 -0.1259 -0.0109
 1204ERGO    C216398   1.527   5.200   7.549  0.4219 -0.1405 -0.2161
 1205ERGO   ROH16399   4.682   1.442   9.279 -0.1965  0.0295 -0.1886
 1205ERGO    R116400   4.594   1.503   9.017 -0.0440  0.2306 -0.1969
 1205ERGO    R216401   4.674   1.730   8.883  0.3198  0.1656 -0.1183
 1205ERGO    R316402   4.749   1.552   8.691  0.1190  0.1026 -0.1380
 1205ERGO    R416403   4.729   1.810   8.551  0.3264  0.1118 -0.1287
 1205ERGO    R516404   4.630   1.623   8.495  0.1487  0.2080 -0.1111
 1205ERGO    C116405   4.831   1.689   8.177  0.1417  0.0214 -0.1531
 1205ERGO    C216406   5.096   1.701   7.857 -0.1783 -0.1233 -0.0288
 1206ERGO   ROH16407   8.082  11.830   5.318 -0.0694  0.2600 -0.0719
 1206ERGO    R116408   8.001  11.940   5.566  0.0111  0.1440  0.0066
 1206ERGO    R216409   7.977  11.787   5.795  0.0944  0.0375 -0.0539
 1206ERGO    R316410   8.144  11.975   5.898  0.1233 -0.0038 -0.0250
 1206ERGO    R416411   7.970  11.900   6.122  0.1234 -0.0214 -0.0329
 1206ERGO    R516412   8.006  12.102   6.048  0.1472 -0.0130  0.0038
 1206ERGO    C116413   8.123  12.142   6.409  0.1675 -0.0945  0.0066
 1206ERGO    C216414   8.157  12.406   6.523  0.0647  0.3020  0.3079
 1207ERGO   ROH16415  13.509  16.888   8.924  0.0338 -0.2143 -0.0230
 1207ERGO    R116416  13.724  16.740   8.813  0.0466 -0.1432 -0.0910
 1207ERGO    R216417  13.866  16.827   8.592  0.1207  0.0350  0.0321
 1207ERGO    R316418  14.079  16.793   8.757  0.0733 -0.1427  0.0602
 1207ERGO    R416419  14.192  16.788   8.487  0.1616  0.2542  0.0699
 1207ERGO    R516420  14.219  16.637   8.641  0.1435  0.0399 -0.1197
 1207ERGO    C116421  14.583  16.732   8.580  0.1410  0.2150  0.1182
 1207ERGO    C216422  14.862  16.663   8.471 -0.1460  0.2413 -0.4926
 1208ERGO   ROH16423  17.859  17.747   9.011  0.2516  0.0262  0.0808
 1208ERGO    R116424  17.774  17.628   8.769  0.0844  0.1155  0.0932
 1208ERGO    R216425  17.640  17.769   8.572  0.2458  0.2760  0.0887
 1208ERGO    R316426  17.840  17.675   8.414  0.1235  0.0128  0.0882
 1208ERGO    R416427  17.672  17.835   8.234  0.2489  0.0900  0.0525
 1208ERGO    R516428  17.732  17.628   8.205  0.0422  0.0216  0.1322
 1208ERGO    C116429  17.878  17.784   7.889  0.1360 -0.2656  0.0310
 1208ERGO    C216430  18.098  17.738   7.734  0.0769  0.3372 -0.1015
 1209ERGO   ROH16431   9.900   8.966   8.895 -0.2928 -0.0893 -0.0557
 1209ERGO    R116432  10.034   8.890   8.658 -0.2188 -0.0100 -0.0397
 1209ERGO    R216433   9.984   8.650   8.530 -0.1621  0.0242 -0.1217
 1209ERGO    R316434   9.940   8.811   8.315 -0.1131  0.0799 -0.0909
 1209ERGO    R416435  10.010   8.551   8.199 -0.3191  0.0394 -0.1395
 1209ERGO    R516436  10.104   8.742   8.154 -0.2004 -0.0155 -0.1434
 1209ERGO    C116437   9.984   8.645   7.806 -0.3644  0.1004 -0.1211
 1209ERGO    C216438   9.756   8.706   7.488 -0.2908  0.0543  0.2220
 1210ERGO   ROH16439  14.054   6.735   5.896 -0.2264 -0.0839  0.3147
 1210ERGO    R116440  14.229   6.560   6.031 -0.1037 -0.0255  0.2350
 1210ERGO    R216441  14.439   6.650   6.187  0.0174  0.0438  0.0433
 1210ERGO    R316442  14.322   6.494   6.377  0.1742  0.0983  0.1852
 1210ERGO    R416443  14.601   6.401   6.364  0.1482  0.0663 -0.0446
 1210ERGO    R516444  14.422   6.278   6.345  0.1199  0.0825  0.1467
 1210ERGO    C116445  14.586   6.110   6.646  0.3715  0.1306  0.0374
 1210ERGO    C216446  14.729   5.819   6.755  0.1270 -0.3075 -0.0422
 1211ERGO   ROH16447  12.075   7.314   5.769 -0.2751 -0.2892 -0.1387
 1211ERGO    R116448  11.939   7.455   5.974 -0.0096 -0.0814 -0.1014
 1211ERGO    R216449  11.818   7.328   6.187 -0.0549  0.1097 -0.0177
 1211ERGO    R316450  11.973   7.496   6.334  0.2134 -0.0369 -0.1244
 1211ERGO    R416451  11.783   7.383   6.526  0.1990  0.1683  0.0015
 1211ERGO    R516452  11.822   7.595   6.491  0.4003  0.1341 -0.0395
 1211ERGO    C116453  11.908   7.574   6.861  0.5987  0.0648 -0.0875
 1211ERGO    C216454  11.794   7.532   7.140 -0.0344 -0.0656  0.2625
 1212ERGO   ROH16455  11.152  17.065   5.331 -0.3098  0.1540  0.0600
 1212ERGO    R116456  11.284  16.992   5.570 -0.2241  0.0627 -0.0132
 1212ERGO    R216457  11.367  17.177   5.756 -0.1048 -0.0011  0.0038
 1212ERGO    R316458  11.221  17.025   5.927 -0.0694 -0.0151  0.0208
 1212ERGO    R416459  11.380  17.200   6.101 -0.2479  0.1582 -0.0006
 1212ERGO    R516460  11.369  16.982   6.111 -0.1136  0.1595  0.0945
 1212ERGO    C116461  11.249  17.070   6.462 -0.2979  0.2379  0.0128
 1212ERGO    C216462  11.146  17.280   6.748  0.0413  0.2321 -0.0440
 1213ERGO   ROH16463  10.813   2.968   5.722 -0.1442 -0.1106 -0.1763
 1213ERGO    R116464  10.684   2.894   5.963 -0.2056  0.0722 -0.1527
 1213ERGO    R216465  10.819   2.774   6.173 -0.3379 -0.1323 -0.1889
 1213ERGO    R316466  10.714   2.980   6.316 -0.0071  0.0207 -0.1544
 1213ERGO    R416467  10.815   2.794   6.518 -0.3087 -0.1910 -0.1837
 1213ERGO    R516468  10.614   2.876   6.506 -0.1842  0.1435 -0.1744
 1213ERGO    C116469  10.714   2.999   6.853  0.0189 -0.0816 -0.1483
 1213ERGO    C216470  10.918   2.994   7.186  0.0883  0.2079  0.0585
 1214ERGO   ROH16471   0.445  17.359   5.839 -0.0650 -0.0877 -0.0607
 1214ERGO    R116472   0.460  17.237   6.094 -0.0487  0.0010 -0.0188
 1214ERGO    R216473   0.686  17.252   6.252 -0.0144 -0.0022 -0.0690
 1214ERGO    R316474   0.511  17.346   6.437  0.0480  0.1123 -0.0673
 1214ERGO    R416475   0.715  17.205   6.594 -0.1497 -0.2101 -0.0845
 1214ERGO    R516476   0.499  17.173   6.602 -0.1947  0.0374 -0.1562
 1214ERGO    C116477   0.567  17.266   6.966 -0.1699 -0.2236 -0.0920
 1214ERGO    C216478   0.736  17.381   7.231 -0.0812  0.1573  0.0683
 1215ERGO   ROH16479  17.965  19.193   5.735  0.0291  0.0676 -0.0078
 1215ERGO    R116480  18.028  19.300   5.989  0.0134  0.0213  0.0160
 1215ERGO    R216481  17.994  19.568   6.051  0.1512  0.0402  0.0170
 1215ERGO    R316482  17.849  19.468   6.257  0.0289  0.1172 -0.0339
 1215ERGO    R416483  17.985  19.701   6.369  0.0345  0.0989 -0.0111
 1215ERGO    R516484  17.988  19.499   6.449 -0.0561  0.1155  0.0262
 1215ERGO    C116485  17.843  19.686   6.749 -0.1481  0.2054 -0.0752
 1215ERGO    C216486  17.973  19.806   7.046  0.1726  0.2374 -0.1116
 1216ERGO   ROH16487  10.633  14.283   8.619 -0.0507 -0.0619 -0.0068
 1216ERGO    R116488  10.652  14.298   8.337  0.0222  0.1313  0.0070
 1216ERGO    R216489  10.846  14.448   8.209  0.1457  0.1076  0.1581
 1216ERGO    R316490  10.899  14.213   8.084  0.0280  0.1629  0.0027
 1216ERGO    R416491  11.045  14.414   7.929  0.0338  0.2028  0.0669
 1216ERGO    R516492  10.902  14.269   7.851 -0.0377  0.2933  0.0345
 1216ERGO    C116493  11.210  14.174   7.647 -0.1420  0.3104 -0.1319
 1216ERGO    C216494  11.480  14.157   7.406  0.3128  0.3884 -0.0196
 1217ERGO   ROH16495   5.712  15.012   5.327  0.2399 -0.1889  0.1100
 1217ERGO    R116496   5.675  15.187   5.546  0.0942 -0.1189  0.0311
 1217ERGO    R216497   5.845  15.191   5.764  0.0512  0.0722  0.0639
 1217ERGO    R316498   5.862  15.456   5.705 -0.0943  0.0590 -0.0427
 1217ERGO    R416499   6.023  15.423   5.948  0.1650  0.1912 -0.1922
 1217ERGO    R516500   5.860  15.565   5.918  0.0873  0.1278 -0.0741
 1217ERGO    C116501   6.143  15.807   5.999  0.0946  0.2480 -0.4412
 1217ERGO    C216502   6.113  16.035   5.846 -0.1237  0.1184 -0.1442
 1218ERGO   ROH16503  17.445   4.361   6.235  0.0371  0.0027 -0.0353
 1218ERGO    R116504  17.304   4.529   6.414 -0.0130  0.0893 -0.1555
 1218ERGO    R216505  17.304   4.487   6.687 -0.2566  0.0993 -0.1561
 1218ERGO    R316506  17.388   4.746   6.694 -0.1169  0.0541 -0.0952
 1218ERGO    R416507  17.272   4.697   6.960 -0.4024  0.1306 -0.1952
 1218ERGO    R516508  17.220   4.859   6.823 -0.1825  0.1545 -0.2607
 1218ERGO    C116509  17.333   5.062   7.125 -0.3564  0.1064 -0.1609
 1218ERGO    C216510  17.488   5.183   7.494  0.1620  0.1126  0.5415
 1219ERGO   ROH16511  15.459   8.943   9.084 -0.2304 -0.0763  0.1647
 1219ERGO    R116512  15.562   8.776   8.880 -0.1979 -0.0365  0.1490
 1219ERGO    R216513  15.488   8.511   8.852 -0.2394 -0.0127  0.0498
 1219ERGO    R316514  15.427   8.589   8.598 -0.1445  0.0695  0.0509
 1219ERGO    R416515  15.458   8.298   8.582 -0.3023  0.0507  0.0059
 1219ERGO    R516516  15.560   8.446   8.459 -0.1927  0.0191  0.0530
 1219ERGO    C116517  15.383   8.246   8.187 -0.2500  0.1648 -0.0187
 1219ERGO    C216518  15.273   8.297   7.815 -0.0906  0.0829 -0.2084
 1220ERGO   ROH16519   9.389  16.781   5.567 -0.2128  0.0112  0.0550
 1220ERGO    R116520   9.353  16.710   5.838 -0.1001 -0.0051  0.0665
 1220ERGO    R216521   9.345  16.447   5.924 -0.2602 -0.0156  0.0267
 1220ERGO    R316522   9.542  16.529   6.092 -0.0851 -0.2025 -0.0835
 1220ERGO    R416523   9.416  16.304   6.230 -0.3236  0.0106  0.0534
 1220ERGO    R516524   9.449  16.503   6.311 -0.0336  0.0034 -0.0358
 1220ERGO    C116525   9.643  16.297   6.566 -0.1961 -0.1495 -0.0344
 1220ERGO    C216526   9.977  16.206   6.787  0.1096  0.0087 -0.1274
 1221ERGO   ROH16527   3.688  10.392   9.354 -0.1593  0.2268 -0.0755
 1221ERGO    R116528   3.778  10.227   9.143 -0.0224  0.1134  0.0701
 1221ERGO    R216529   3.618  10.159   8.928  0.0670 -0.1270  0.0811
 1221ERGO    R316530   3.826  10.259   8.784  0.0527 -0.1332  0.0546
 1221ERGO    R416531   3.675  10.094   8.593 -0.2536  0.2470 -0.0544
 1221ERGO    R516532   3.888  10.080   8.638 -0.2262 -0.0123 -0.2295
 1221ERGO    C116533   3.903  10.150   8.263 -0.4537  0.4590 -0.1581
 1221ERGO    C216534   3.605  10.130   7.990  0.0096 -0.0716 -0.3229
 1222ERGO   ROH16535  11.216   5.373   5.861 -0.0859 -0.1060  0.0792
 1222ERGO    R116536  11.117   5.252   6.097 -0.1070 -0.2400  0.0050
 1222ERGO    R216537  11.130   4.980   6.141  0.1910 -0.2393  0.0006
 1222ERGO    R316538  11.253   5.056   6.371 -0.0544 -0.0902  0.0836
 1222ERGO    R416539  11.141   4.792   6.431 -0.0240 -0.0818  0.1115
 1222ERGO    R516540  11.109   4.975   6.545 -0.1884 -0.0414 -0.0123
 1222ERGO    C116541  11.262   4.754   6.816 -0.3797  0.1500  0.2539
 1222ERGO    C216542  11.182   4.411   7.014  0.1163  0.0798 -0.1508
 1223ERGO   ROH16543  10.046   3.697   5.849 -0.0013  0.1241  0.0582
 1223ERGO    R116544  10.072   3.880   6.063  0.1503 -0.1120  0.2450
 1223ERGO    R216545   9.862   4.035   6.154  0.3728  0.2762  0.1156
 1223ERGO    R316546   9.926   3.923   6.394 -0.1542 -0.0762  0.1095
 1223ERGO    R416547   9.815   4.185   6.462  0.4140  0.1634  0.1781
 1223ERGO    R516548  10.008   4.106   6.525  0.1652 -0.3660  0.3337
 1223ERGO    C116549   9.848   4.168   6.866 -0.0568 -0.2331  0.2087
 1223ERGO    C216550   9.913   4.242   7.199 -0.0564 -0.1227  0.1646
 1224ERGO   ROH16551   4.182   6.314   5.994 -0.1556 -0.0349 -0.0529
 1224ERGO    R116552   4.035   6.262   6.230 -0.1666 -0.0032 -0.0521
 1224ERGO    R216553   4.120   6.082   6.422 -0.1893 -0.0009 -0.0357
 1224ERGO    R316554   4.089   6.295   6.588 -0.1691  0.0159 -0.0545
 1224ERGO    R416555   3.908   6.091   6.695 -0.1350  0.0248  0.0053
 1224ERGO    R516556   3.856   6.296   6.641 -0.1556  0.0123 -0.0074
 1224ERGO    C116557   3.756   6.296   7.010 -0.0845  0.0556  0.0115
 1224ERGO    C216558   3.651   6.066   7.352 -0.1072  0.2880  0.1537
 1225ERGO   ROH16559   5.956  10.509   5.890 -0.2089  0.1627 -0.0255
 1225ERGO    R116560   5.868  10.584   6.149 -0.0585  0.0435  0.0623
 1225ERGO    R216561   5.675  10.442   6.287 -0.1424  0.1057  0.0160
 1225ERGO    R316562   5.866  10.435   6.481 -0.0811 -0.2137 -0.0521
 1225ERGO    R416563   5.612  10.408   6.625 -0.0877  0.3469  0.0521
 1225ERGO    R516564   5.769  10.554   6.664  0.2261  0.0473 -0.0544
 1225ERGO    C116565   5.755  10.381   7.004  0.0018  0.1874  0.0092
 1225ERGO    C216566   5.524  10.297   7.205 -0.0465  0.0677  0.0864
 1226ERGO   ROH16567   7.782   6.431   9.651  0.0476 -0.0623 -0.0121
 1226ERGO    R116568   7.733   6.500   9.381  0.2231  0.1402  0.0048
 1226ERGO    R216569   7.937   6.558   9.203  0.4043 -0.4778 -0.0144
 1226ERGO    R316570   7.818   6.364   9.054 -0.2491 -0.0971 -0.0286
 1226ERGO    R416571   7.898   6.567   8.859  0.5738 -0.3801 -0.0318
 1226ERGO    R516572   7.699   6.483   8.884  0.2324  0.3273 -0.0964
 1226ERGO    C116573   7.764   6.390   8.520  0.0591  0.0342 -0.0551
 1226ERGO    C216574   7.812   6.476   8.144  0.2301  0.0166  0.3273
 1227ERGO   ROH16575  16.367   2.716   6.079 -0.1415  0.0077  0.0569
 1227ERGO    R116576  16.280   2.871   6.300 -0.1113  0.0640  0.0284
 1227ERGO    R216577  16.452   3.030   6.447 -0.0593 -0.0330  0.0674
 1227ERGO    R316578  16.272   3.224   6.387  0.0679  0.0730  0.0165
 1227ERGO    R416579  16.372   3.295   6.653 -0.0972 -0.0908  0.1284
 1227ERGO    R516580  16.163   3.270   6.596 -0.0690  0.0246 -0.0405
 1227ERGO    C116581  16.155   3.631   6.718  0.0000 -0.0249  0.1162
 1227ERGO    C216582  15.995   3.824   6.868 -0.1141  0.1398 -0.0726
 1228ERGO   ROH16583  14.745  13.468   8.946  0.2413  0.0201  0.0226
 1228ERGO    R116584  14.909  13.464   8.715  0.0913  0.1157 -0.0885
 1228ERGO    R216585  14.932  13.242   8.552  0.2164  0.0789 -0.0262
 1228ERGO    R316586  14.862  13.418   8.357 -0.1062 -0.0593 -0.0407
 1228ERGO    R416587  15.028  13.220   8.220  0.0786  0.1197 -0.0691
 1228ERGO    R516588  15.056  13.436   8.219 -0.1972  0.1561 -0.1421
 1228ERGO    C116589  15.017  13.373   7.845 -0.3044  0.0139 -0.1077
 1228ERGO    C216590  15.021  13.370   7.677 -0.3425  0.3039  0.0147
 1229ERGO   ROH16591   1.214   9.944   9.201  0.1334  0.0621  0.0764
 1229ERGO    R116592   1.295  10.019   8.940  0.2173 -0.0281  0.0771
 1229ERGO    R216593   1.469   9.867   8.789 -0.0285 -0.2747  0.0442
 1229ERGO    R316594   1.269   9.878   8.605 -0.0317  0.0479  0.0597
 1229ERGO    R416595   1.515   9.896   8.447 -0.0011 -0.1841  0.0545
 1229ERGO    R516596   1.347  10.034   8.441  0.1581  0.0310  0.1228
 1229ERGO    C116597   1.354   9.924   8.076  0.0118  0.1714  0.0749
 1229ERGO    C216598   1.277  10.072   7.728 -0.1516 -0.0172  0.2997
 1230ERGO   ROH16599   1.386  16.887   5.985  0.2423  0.5166 -0.0250
 1230ERGO    R116600   1.512  16.782   6.217  0.1211  0.2414 -0.0776
 1230ERGO    R216601   1.786  16.783   6.250  0.1115  0.2134  0.0743
 1230ERGO    R316602   1.725  16.910   6.483 -0.0279 -0.0635  0.1925
 1230ERGO    R416603   1.993  16.800   6.527  0.1255  0.2758  0.0583
 1230ERGO    R516604   1.818  16.771   6.654  0.1900 -0.0716  0.0621
 1230ERGO    C116605   2.056  16.931   6.905  0.0028  0.0523  0.1600
 1230ERGO    C216606   2.262  17.022   7.159  0.1198  0.2116 -0.1046
 1231ERGO   ROH16607  18.730  15.192   5.866 -0.1559 -0.2230  0.3067
 1231ERGO    R116608  18.842  15.191   6.126  0.0370 -0.2839  0.2255
 1231ERGO    R216609  19.081  15.064   6.185  0.2547 -0.0208 -0.0504
 1231ERGO    R316610  19.149  15.309   6.282  0.0011 -0.0022  0.0888
 1231ERGO    R416611  19.355  15.128   6.386  0.2707  0.1729 -0.1310
 1231ERGO    R516612  19.231  15.264   6.502  0.1542 -0.0573  0.0208
 1231ERGO    C116613  19.578  15.394   6.595  0.0419  0.3030 -0.0472
 1231ERGO    C216614  19.687  15.502   6.883 -0.1801 -0.0212 -0.0002
 1232ERGO   ROH16615   6.088   7.930   5.989  0.1550 -0.2196  0.0401
 1232ERGO    R116616   6.214   8.055   6.209  0.0552 -0.0589  0.0077
 1232ERGO    R216617   6.447   8.202   6.184  0.0414 -0.0404 -0.0010
 1232ERGO    R316618   6.300   8.395   6.307 -0.0323  0.0181 -0.1772
 1232ERGO    R416619   6.577   8.458   6.377 -0.0665  0.0859 -0.0940
 1232ERGO    R516620   6.411   8.431   6.516 -0.1249  0.1509 -0.1487
 1232ERGO    C116621   6.514   8.788   6.605 -0.1985  0.2145 -0.3135
 1232ERGO    C216622   6.657   9.059   6.868 -0.0387  0.0601 -0.0586
 1233ERGO   ROH16623   9.723  10.690   6.376 -0.0682 -0.0217 -0.0061
 1233ERGO    R116624   9.649  10.751   6.642 -0.0269  0.0540 -0.0129
 1233ERGO    R216625   9.747  10.612   6.860 -0.0513  0.0716  0.0019
 1233ERGO    R316626   9.819  10.860   6.946  0.0283  0.0666 -0.0460
 1233ERGO    R416627   9.840  10.690   7.184 -0.2856  0.1446  0.0542
 1233ERGO    R516628   9.727  10.876   7.166 -0.1605  0.2141 -0.1275
 1233ERGO    C116629   9.961  10.968   7.452 -0.3475  0.1826  0.0396
 1233ERGO    C216630   9.928  11.044   7.645  0.1517 -0.0553 -0.1187
 1234ERGO   ROH16631   8.597   4.180   9.576 -0.2197  0.1996 -0.2518
 1234ERGO    R116632   8.599   4.159   9.294  0.0491  0.1063 -0.2440
 1234ERGO    R216633   8.831   4.121   9.150  0.1415 -0.3768  0.0223
 1234ERGO    R316634   8.696   3.908   9.048 -0.1496 -0.1607 -0.0595
 1234ERGO    R416635   8.900   3.972   8.846 -0.0736 -0.3242 -0.0549
 1234ERGO    R516636   8.685   3.953   8.812 -0.1137 -0.0307 -0.0434
 1234ERGO    C116637   8.814   3.685   8.573 -0.4722 -0.0906 -0.1766
 1234ERGO    C216638   8.935   3.579   8.189 -0.2797  0.2479 -0.1283
 1235ERGO   ROH16639  17.595   4.297   9.642 -0.2486  0.0342 -0.2445
 1235ERGO    R116640  17.612   4.402   9.380 -0.1034  0.0609 -0.2250
 1235ERGO    R216641  17.850   4.485   9.267 -0.0542  0.1481 -0.0532
 1235ERGO    R316642  17.780   4.312   9.070  0.1388  0.1421 -0.1207
 1235ERGO    R416643  17.969   4.497   8.943  0.1256  0.2594  0.0152
 1235ERGO    R516644  17.769   4.448   8.873  0.1836  0.1716 -0.1061
 1235ERGO    C116645  17.973   4.341   8.569  0.4119  0.3185 -0.0084
 1235ERGO    C216646  18.215   4.255   8.285  0.2464  0.2031  0.4574
 1236ERGO   ROH16647  14.191   9.502   9.169 -0.3833  0.1923 -0.1325
 1236ERGO    R116648  14.127   9.519   8.894 -0.0700  0.2631 -0.2061
 1236ERGO    R216649  14.319   9.536   8.697  0.1731 -0.0682 -0.0115
 1236ERGO    R316650  14.188   9.320   8.596 -0.0699  0.1228 -0.1124
 1236ERGO    R416651  14.401   9.376   8.402  0.1031 -0.1345  0.0054
 1236ERGO    R516652  14.188   9.356   8.359  0.0973  0.1605 -0.1055
 1236ERGO    C116653  14.325   9.080   8.135 -0.1658  0.0060 -0.0795
 1236ERGO    C216654  14.415   8.946   7.750 -0.1385 -0.2889 -0.0367
 1237ERGO   ROH16655   0.473   9.240   9.345  0.0628 -0.1391  0.0445
 1237ERGO    R116656   0.354   9.249   9.088  0.0284 -0.1751  0.0589
 1237ERGO    R216657   0.380   9.466   8.919 -0.1729 -0.1089  0.1099
 1237ERGO    R316658   0.469   9.278   8.744 -0.0312  0.0096  0.0537
 1237ERGO    R416659   0.390   9.506   8.576  0.0754  0.1132  0.1401
 1237ERGO    R516660   0.323   9.299   8.555  0.1044  0.1201 -0.0417
 1237ERGO    C116661   0.480   9.353   8.212  0.3530  0.3539  0.1050
 1237ERGO    C216662   0.505   9.475   7.893 -0.2779 -0.0566  0.1192
 1238ERGO   ROH16663  12.127  17.879   5.782  0.0909  0.4528  0.0293
 1238ERGO    R116664  12.207  17.863   6.053 -0.0971  0.3974  0.0818
 1238ERGO    R216665  12.028  17.890   6.262 -0.3159 -0.0549 -0.0386
 1238ERGO    R316666  12.131  17.650   6.339  0.0346  0.0601 -0.1274
 1238ERGO    R416667  12.058  17.783   6.590 -0.3301 -0.1997 -0.0831
 1238ERGO    R516668  12.253  17.699   6.539 -0.1550  0.1449 -0.0272
 1238ERGO    C116669  12.172  17.495   6.851 -0.0093 -0.1760 -0.1922
 1238ERGO    C216670  12.085  17.317   7.043  0.0681 -0.0534  0.0459
 1239ERGO   ROH16671  12.229  11.802   6.395  0.2728 -0.0588 -0.0935
 1239ERGO    R116672  12.330  12.049   6.489  0.2681 -0.1204  0.0773
 1239ERGO    R216673  12.177  12.227   6.633  0.1209 -0.0174 -0.2057
 1239ERGO    R316674  12.381  12.209   6.812 -0.2056 -0.1380  0.1690
 1239ERGO    R416675  12.244  12.459   6.881  0.0137  0.1453 -0.3277
 1239ERGO    R516676  12.457  12.434   6.839  0.0677 -0.2081  0.0586
 1239ERGO    C116677  12.475  12.577   7.192 -0.3552  0.1269 -0.0470
 1239ERGO    C216678  12.695  12.770   7.371  0.1133  0.1731 -0.0096
 1240ERGO   ROH16679  11.720   6.696   9.135 -0.0841  0.0430  0.0350
 1240ERGO    R116680  11.913   6.706   8.928 -0.1269 -0.0199 -0.0101
 1240ERGO    R216681  11.867   6.602   8.676 -0.2264  0.0111 -0.0117
 1240ERGO    R316682  11.937   6.852   8.595 -0.1515 -0.0087 -0.0051
 1240ERGO    R416683  11.974   6.684   8.358  0.1215 -0.0612  0.0826
 1240ERGO    R516684  12.121   6.818   8.447  0.0128 -0.0324  0.2075
 1240ERGO    C116685  12.101   6.967   8.096  0.3943 -0.1219  0.1438
 1240ERGO    C216686  12.201   7.029   7.787  0.1173 -0.2830  0.1563
 1241ERGO   ROH16687  10.285   2.039   5.892  0.2129  0.2393 -0.0001
 1241ERGO    R116688  10.247   1.949   6.157  0.1232  0.1306 -0.0482
 1241ERGO    R216689  10.458   1.904   6.331  0.0593  0.1641  0.0403
 1241ERGO    R316690  10.319   2.073   6.492 -0.0937  0.0468  0.0321
 1241ERGO    R416691  10.471   1.902   6.676 -0.1060  0.0382  0.0458
 1241ERGO    R516692  10.256   1.937   6.679 -0.1274 -0.0542 -0.0485
 1241ERGO    C116693  10.349   2.059   7.028 -0.3459 -0.1452  0.0414
 1241ERGO    C216694  10.544   1.990   7.266 -0.3828 -0.1792  0.1562
 1242ERGO   ROH16695   6.699  16.421   8.930  0.2599 -0.0236 -0.0587
 1242ERGO    R116696   6.589  16.613   8.754  0.1142 -0.0302  0.0226
 1242ERGO    R216697   6.695  16.663   8.503  0.0705  0.1471  0.0361
 1242ERGO    R316698   6.440  16.613   8.422  0.1023 -0.0057  0.0284
 1242ERGO    R416699   6.587  16.672   8.175  0.0367  0.2442  0.0499
 1242ERGO    R516700   6.403  16.768   8.243 -0.0327  0.0641  0.1170
 1242ERGO    C116701   6.285  16.631   7.908  0.0468  0.1571  0.0508
 1242ERGO    C216702   6.264  16.651   7.620  0.0327 -0.1878  0.3288
 1243ERGO   ROH16703   9.869  15.024   8.909 -0.0488 -0.1660  0.0654
 1243ERGO    R116704   9.719  15.104   8.683 -0.1314 -0.1183  0.1317
 1243ERGO    R216705   9.834  15.225   8.463 -0.2285  0.1059  0.1734
 1243ERGO    R316706   9.713  15.024   8.328 -0.1079  0.0930  0.0898
 1243ERGO    R416707   9.790  15.217   8.121  0.0412  0.0207  0.1400
 1243ERGO    R516708   9.590  15.134   8.154  0.0387  0.0320 -0.0263
 1243ERGO    C116709   9.649  15.022   7.794  0.3115 -0.0411  0.0421
 1243ERGO    C216710   9.665  15.020   7.446 -0.2686 -0.0097  0.2196
 1244ERGO   ROH16711  10.815  15.616   5.387 -0.0832 -0.2473  0.1930
 1244ERGO    R116712  10.686  15.763   5.593 -0.0160 -0.1512  0.1657
 1244ERGO    R216713  10.418  15.830   5.582  0.0115 -0.0637  0.1705
 1244ERGO    R316714  10.412  15.707   5.825 -0.0167  0.0055  0.2062
 1244ERGO    R416715  10.132  15.776   5.769 -0.0817 -0.3876 -0.0543
 1244ERGO    R516716  10.245  15.828   5.948 -0.2910 -0.1700  0.0296
 1244ERGO    C116717   9.960  15.631   6.106 -0.1625 -0.5112 -0.1516
 1244ERGO    C216718   9.642  15.575   6.107 -0.3063 -0.2818  0.2887
 1245ERGO   ROH16719  18.667  14.316   8.940  0.2178 -0.0101  0.0667
 1245ERGO    R116720  18.609  14.260   8.668  0.1847  0.0410  0.0633
 1245ERGO    R216721  18.352  14.263   8.567  0.1561 -0.0969  0.1336
 1245ERGO    R316722  18.460  14.436   8.387 -0.0073  0.0348  0.1593
 1245ERGO    R416723  18.310  14.244   8.224  0.0686 -0.0103  0.1390
 1245ERGO    R516724  18.519  14.299   8.200  0.0285  0.1340  0.0957
 1245ERGO    C116725  18.386  14.397   7.856 -0.1362  0.1637  0.1662
 1245ERGO    C216726  18.341  14.523   7.541 -0.0428 -0.0447  0.0285
 1246ERGO   ROH16727  12.042  17.182   9.021 -0.0404 -0.1098 -0.0111
 1246ERGO    R116728  11.935  17.096   8.774 -0.0965 -0.0376 -0.0115
 1246ERGO    R216729  11.789  17.263   8.608  0.0426  0.0680 -0.0235
 1246ERGO    R316730  11.973  17.186   8.423 -0.0104 -0.0844 -0.0157
 1246ERGO    R416731  11.731  17.242   8.268  0.0671  0.2416 -0.0396
 1246ERGO    R516732  11.848  17.059   8.264 -0.1367  0.1039 -0.0758
 1246ERGO    C116733  11.870  17.159   7.897  0.0316  0.1997 -0.0414
 1246ERGO    C216734  11.871  17.036   7.550  0.1639  0.0448  0.1012
 1247ERGO   ROH16735  16.758  18.453   5.813 -0.3351 -0.0317 -0.0960
 1247ERGO    R116736  16.789  18.252   6.010 -0.1403 -0.0421 -0.1322
 1247ERGO    R216737  16.915  18.298   6.251 -0.0511 -0.0047 -0.1754
 1247ERGO    R316738  16.683  18.201   6.354  0.0399 -0.1336 -0.0918
 1247ERGO    R416739  16.871  18.202   6.580 -0.0209  0.4070 -0.0478
 1247ERGO    R516740  16.753  18.033   6.510  0.1977  0.1686  0.1670
 1247ERGO    C116741  16.626  18.056   6.869  0.0821  0.5260  0.1049
 1247ERGO    C216742  16.717  17.871   7.132 -0.0483 -0.3430  0.0100
 1248ERGO   ROH16743   7.694  12.568   9.118  0.1580  0.1094 -0.0555
 1248ERGO    R116744   7.802  12.566   8.856 -0.0256  0.1176 -0.1314
 1248ERGO    R216745   8.012  12.401   8.782 -0.0648  0.1395 -0.2758
 1248ERGO    R316746   7.839  12.322   8.588 -0.1895  0.1209 -0.1602
 1248ERGO    R416747   8.102  12.304   8.463 -0.2502  0.0458 -0.3023
 1248ERGO    R516748   7.930  12.412   8.386 -0.2799  0.0600 -0.2346
 1248ERGO    C116749   7.993  12.174   8.095 -0.4753 -0.0262 -0.2093
 1248ERGO    C216750   8.006  12.072   7.745  0.1159 -0.0817 -0.1879
 1249ERGO   ROH16751   8.126  16.389   5.377 -0.0954  0.0453 -0.0152
 1249ERGO    R116752   7.964  16.458   5.599 -0.1238 -0.1375  0.0228
 1249ERGO    R216753   7.923  16.288   5.813  0.1145 -0.1884  0.0301
 1249ERGO    R316754   8.011  16.500   5.958 -0.0880 -0.0908  0.0127
 1249ERGO    R416755   7.956  16.292   6.157  0.1481 -0.1421  0.0265
 1249ERGO    R516756   7.877  16.496   6.156 -0.0624 -0.2211  0.0275
 1249ERGO    C116757   8.057  16.495   6.493 -0.0223 -0.0236  0.0081
 1249ERGO    C216758   8.103  16.454   6.797  0.1550 -0.2325 -0.1603
 1250ERGO   ROH16759   9.109  15.626   9.084 -0.3237 -0.1503  0.0325
 1250ERGO    R116760   9.009  15.582   8.823 -0.1816  0.0304 -0.0535
 1250ERGO    R216761   8.855  15.769   8.690 -0.0238  0.1607 -0.0465
 1250ERGO    R316762   9.044  15.740   8.497  0.0792  0.1918  0.0474
 1250ERGO    R416763   8.811  15.851   8.357 -0.0308 -0.2391 -0.1494
 1250ERGO    R516764   8.921  15.670   8.303  0.2181 -0.1688  0.0755
 1250ERGO    C116765   8.963  15.871   7.982  0.0618 -0.4428 -0.1214
 1250ERGO    C216766   8.916  15.968   7.640 -0.1118 -0.2807 -0.1340
 1251ERGO   ROH16767  13.675   3.104   9.019 -0.0062 -0.0650  0.0312
 1251ERGO    R116768  13.658   3.366   8.912 -0.0261 -0.0638  0.0375
 1251ERGO    R216769  13.766   3.433   8.667 -0.0028 -0.0419  0.0546
 1251ERGO    R316770  13.514   3.521   8.616 -0.0074 -0.0723  0.0234
 1251ERGO    R416771  13.664   3.582   8.372  0.0433  0.0365  0.0779
 1251ERGO    R516772  13.545   3.722   8.489 -0.0119 -0.0235  0.0969
 1251ERGO    C116773  13.367   3.751   8.153  0.0658  0.0536  0.0623
 1251ERGO    C216774  13.360   3.772   7.817 -0.2714 -0.1493  0.1156
 1252ERGO   ROH16775   1.647  15.725   5.949 -0.5349 -0.0137  0.0064
 1252ERGO    R116776   1.553  15.763   6.214 -0.2562  0.0019  0.1058
 1252ERGO    R216777   1.585  15.573   6.411 -0.1040 -0.0119  0.0654
 1252ERGO    R316778   1.700  15.779   6.546  0.0880 -0.0471 -0.0383
 1252ERGO    R416779   1.661  15.570   6.749  0.1812 -0.0279  0.0044
 1252ERGO    R516780   1.592  15.776   6.761  0.2660  0.0002  0.0555
 1252ERGO    C116781   1.812  15.761   7.072  0.5275 -0.0703 -0.1285
 1252ERGO    C216782   2.105  15.656   7.261  0.2121  0.2295  0.1759
 1253ERGO   ROH16783  13.732   8.204   9.191 -0.1274  0.0228 -0.0623
 1253ERGO    R116784  13.652   8.200   8.919 -0.1034  0.1044 -0.0712
 1253ERGO    R216785  13.758   8.372   8.730 -0.0089  0.0917 -0.0332
 1253ERGO    R316786  13.812   8.141   8.597 -0.0971  0.0895 -0.0648
 1253ERGO    R416787  13.773   8.341   8.386  0.2611  0.1942 -0.0329
 1253ERGO    R516788  13.670   8.149   8.404  0.0767  0.2780 -0.1858
 1253ERGO    C116789  13.832   8.106   8.061  0.3356  0.2518 -0.0624
 1253ERGO    C216790  13.835   8.204   7.759  0.0911  0.1555  0.1275
 1254ERGO   ROH16791  13.347  19.045   5.779  0.0699  0.2310  0.0355
 1254ERGO    R116792  13.278  18.952   6.038  0.0059  0.2074  0.0104
 1254ERGO    R216793  13.147  19.111   6.223  0.0571  0.2261  0.0316
 1254ERGO    R316794  12.972  18.903   6.228 -0.0334  0.3012 -0.0280
 1254ERGO    R416795  12.926  19.045   6.480  0.1972  0.1141  0.1248
 1254ERGO    R516796  12.969  18.833   6.456  0.0871  0.1114 -0.0824
 1254ERGO    C116797  12.632  18.812   6.634  0.1937  0.1191  0.1229
 1254ERGO    C216798  12.346  18.641   6.779  0.1958  0.0245  0.2471
 1255ERGO   ROH16799   7.243  12.979   5.305  0.1823  0.0225  0.0656
 1255ERGO    R116800   7.172  12.978   5.579  0.1849  0.0556  0.0656
 1255ERGO    R216801   7.315  12.836   5.769  0.1294  0.0044  0.0632
 1255ERGO    R316802   7.327  13.077   5.892  0.2259  0.0002  0.0646
 1255ERGO    R416803   7.348  12.882   6.109 -0.0417 -0.0195  0.0848
 1255ERGO    R516804   7.206  13.046   6.096  0.0780  0.0847 -0.0051
 1255ERGO    C116805   7.379  13.136   6.424 -0.0507 -0.0374  0.0986
 1255ERGO    C216806   7.510  13.310   6.728 -0.1193 -0.2833  0.2790
 1256ERGO   ROH16807  12.936  13.400   8.908 -0.2087  0.0338  0.1309
 1256ERGO    R116808  12.837  13.496   8.660 -0.1556 -0.0006  0.0951
 1256ERGO    R216809  12.997  13.523   8.436 -0.0559  0.1606  0.1777
 1256ERGO    R316810  12.805  13.370   8.321  0.1208  0.0277  0.0577
 1256ERGO    R416811  12.902  13.541   8.105 -0.0169  0.2373  0.1711
 1256ERGO    R516812  12.695  13.517   8.167 -0.0007 -0.0061  0.1177
 1256ERGO    C116813  12.667  13.407   7.803  0.1716  0.1572  0.0546
 1256ERGO    C216814  12.508  13.295   7.536 -0.1594 -0.1695  0.0129
 1257ERGO   ROH16815   1.735   5.542   9.863 -0.0764  0.0296 -0.0282
 1257ERGO    R116816   1.625   5.451   9.618 -0.1411 -0.0077  0.0146
 1257ERGO    R216817   1.473   5.612   9.454  0.0022  0.0345 -0.0746
 1257ERGO    R316818   1.655   5.539   9.266 -0.0510 -0.2166 -0.0324
 1257ERGO    R416819   1.396   5.512   9.133 -0.0624  0.3037 -0.1458
 1257ERGO    R516820   1.550   5.359   9.149 -0.3362  0.0134 -0.1459
 1257ERGO    C116821   1.522   5.385   8.769 -0.1500  0.2248 -0.1476
 1257ERGO    C216822   1.515   5.545   8.467  0.0870  0.0304  0.0621
 1258ERGO   ROH16823   4.672   8.730   6.203  0.0144  0.1949 -0.1559
 1258ERGO    R116824   4.677   8.875   6.447  0.0649  0.2041 -0.1622
 1258ERGO    R216825   4.520   9.098   6.490 -0.2229 -0.0213  0.0004
 1258ERGO    R316826   4.438   8.959   6.708  0.2150 -0.1454  0.0955
 1258ERGO    R416827   4.454   9.237   6.800 -0.1840 -0.1009  0.0446
 1258ERGO    R516828   4.550   9.064   6.892  0.2030  0.0707 -0.0181
 1258ERGO    C116829   4.338   9.186   7.185  0.2498 -0.2637  0.1598
 1258ERGO    C216830   4.098   9.106   7.288  0.0236 -0.0415  0.1296
 1259ERGO   ROH16831  14.904  10.756   5.603 -0.0385 -0.0204 -0.0691
 1259ERGO    R116832  15.029  10.767   5.857 -0.0928  0.0319 -0.0446
 1259ERGO    R216833  15.281  10.872   5.893 -0.0652 -0.0431 -0.0274
 1259ERGO    R316834  15.155  11.027   6.078 -0.0526  0.0717 -0.1134
 1259ERGO    R416835  15.433  11.010   6.172 -0.0847 -0.0231 -0.0265
 1259ERGO    R516836  15.253  10.962   6.287 -0.1418  0.0921 -0.0632
 1259ERGO    C116837  15.402  11.236   6.507 -0.0842  0.0963 -0.1066
 1259ERGO    C216838  15.494  11.472   6.637 -0.1577 -0.2165  0.1069
 1260ERGO   ROH16839   5.362  11.825   6.046  0.1125 -0.1071  0.0561
 1260ERGO    R116840   5.311  11.725   6.306  0.0757 -0.0947  0.0539
 1260ERGO    R216841   5.511  11.622   6.468  0.0836  0.0809  0.1588
 1260ERGO    R316842   5.415  11.804   6.646 -0.1253  0.0471  0.0836
 1260ERGO    R416843   5.375  11.545   6.776  0.2686  0.0575  0.2352
 1260ERGO    R516844   5.224  11.698   6.743  0.0446 -0.1690  0.1890
 1260ERGO    C116845   5.207  11.671   7.123  0.1801  0.0120  0.2091
 1260ERGO    C216846   5.101  11.777   7.441  0.2667 -0.2792  0.1194
 1261ERGO   ROH16847   4.374  15.850   5.814  0.1361  0.1291 -0.2408
 1261ERGO    R116848   4.597  15.769   5.968 -0.0061  0.0252 -0.0887
 1261ERGO    R216849   4.806  15.939   6.030  0.1349 -0.1335 -0.1377
 1261ERGO    R316850   4.749  15.865   6.285 -0.0393  0.1159 -0.0989
 1261ERGO    R416851   5.005  16.007   6.304  0.0840 -0.0916 -0.1098
 1261ERGO    R516852   4.961  15.807   6.379 -0.1246 -0.0004  0.0330
 1261ERGO    C116853   5.067  15.977   6.703 -0.1091  0.1671 -0.0571
 1261ERGO    C216854   5.167  16.218   6.886  0.1399  0.0134 -0.1172
 1262ERGO   ROH16855  15.605   8.560   5.903  0.0634  0.0410  0.1384
 1262ERGO    R116856  15.683   8.472   6.161  0.0393  0.1136  0.1723
 1262ERGO    R216857  15.740   8.647   6.368  0.0068  0.1760  0.1384
 1262ERGO    R316858  15.553   8.500   6.500 -0.0044  0.1999  0.1464
 1262ERGO    R416859  15.749   8.575   6.705  0.2160 -0.1692  0.0637
 1262ERGO    R516860  15.680   8.374   6.660  0.0153 -0.0629 -0.0788
 1262ERGO    C116861  15.579   8.396   7.027  0.3274 -0.3477  0.0277
 1262ERGO    C216862  15.573   8.561   7.317  0.0135  0.1034 -0.0861
 1263ERGO   ROH16863   9.801  13.933   8.956  0.1853  0.0578  0.0595
 1263ERGO    R116864   9.675  13.965   8.705  0.1917 -0.1891  0.0227
 1263ERGO    R216865   9.547  14.198   8.631 -0.1039 -0.3771 -0.0779
 1263ERGO    R316866   9.712  14.183   8.416 -0.0370 -0.2287 -0.0388
 1263ERGO    R416867   9.452  14.258   8.304  0.0446  0.0476 -0.0504
 1263ERGO    R516868   9.576  14.089   8.243 -0.0311  0.0435 -0.1961
 1263ERGO    C116869   9.551  14.278   7.912  0.1941  0.4342  0.0021
 1263ERGO    C216870   9.626  14.520   7.662 -0.0455 -0.0971  0.1397
 1264ERGO   ROH16871   9.209  19.067   5.965  0.1538  0.0928  0.0769
 1264ERGO    R116872   9.068  18.894   6.140  0.1018  0.0776  0.0177
 1264ERGO    R216873   9.193  18.696   6.287  0.0687  0.1254  0.0998
 1264ERGO    R316874   9.069  18.819   6.496 -0.0735  0.1110  0.0278
 1264ERGO    R416875   9.202  18.586   6.615  0.3355  0.4113  0.1948
 1264ERGO    R516876   8.992  18.639   6.633  0.2477  0.0937  0.2019
 1264ERGO    C116877   9.092  18.637   7.001  0.3574  0.5641  0.1824
 1264ERGO    C216878   9.140  18.689   7.258  0.0871 -0.0980  0.0320
 1265ERGO   ROH16879  12.046   8.170   9.552 -0.0608  0.1477  0.0002
 1265ERGO    R116880  12.082   8.269   9.289 -0.0199  0.0881 -0.0155
 1265ERGO    R216881  12.302   8.207   9.135 -0.0561 -0.0372 -0.0044
 1265ERGO    R316882  12.114   8.128   8.955 -0.0904  0.0223  0.0027
 1265ERGO    R416883  12.339   8.221   8.792 -0.1672  0.2347 -0.0082
 1265ERGO    R516884  12.132   8.287   8.777 -0.2063  0.1698  0.1124
 1265ERGO    C116885  12.184   8.156   8.423 -0.2639  0.4488 -0.0038
 1265ERGO    C216886  12.216   8.040   7.991  0.0827  0.1828 -0.0563
 1266ERGO   ROH16887   2.013   9.269   9.324 -0.1199 -0.1831 -0.0590
 1266ERGO    R116888   2.225   9.271   9.135 -0.1181 -0.0652 -0.0579
 1266ERGO    R216889   2.209   9.143   8.891 -0.0720 -0.0130 -0.0936
 1266ERGO    R316890   2.274   9.388   8.794 -0.1580  0.0352 -0.0288
 1266ERGO    R416891   2.302   9.208   8.565  0.0108  0.0924 -0.0485
 1266ERGO    R516892   2.453   9.346   8.641 -0.0850  0.1520  0.0264
 1266ERGO    C116893   2.418   9.476   8.284 -0.0218  0.1991  0.0387
 1266ERGO    C216894   2.339   9.582   7.932  0.0645  0.0486  0.0107
 1267ERGO   ROH16895  12.760   6.246   9.395 -0.2274  0.0264  0.0030
 1267ERGO    R116896  12.781   6.292   9.116 -0.4349  0.3138  0.0314
 1267ERGO    R216897  12.880   6.103   8.941  0.1648  0.7547 -0.1354
 1267ERGO    R316898  12.643   6.145   8.813 -0.0261  0.0777 -0.0489
 1267ERGO    R416899  12.822   6.040   8.606  0.2170  0.5650 -0.1108
 1267ERGO    R516900  12.706   6.225   8.596 -0.3250  0.2538 -0.0801
 1267ERGO    C116901  12.566   6.044   8.291  0.0683 -0.1810 -0.0153
 1267ERGO    C216902  12.472   5.918   8.039 -0.1797 -0.1206 -0.1839
 1268ERGO   ROH16903   5.168  15.047   9.310  0.1073 -0.2126  0.0530
 1268ERGO    R116904   5.167  14.965   9.039 -0.0051 -0.3187  0.0840
 1268ERGO    R216905   4.990  14.778   8.941 -0.3227 -0.0613  0.1402
 1268ERGO    R316906   4.932  14.973   8.762  0.0289 -0.0239  0.0622
 1268ERGO    R416907   4.961  14.730   8.600 -0.1467 -0.0813  0.1277
 1268ERGO    R516908   5.066  14.919   8.570  0.0951 -0.2106  0.1624
 1268ERGO    C116909   4.891  14.887   8.233  0.2858 -0.0576  0.0472
 1268ERGO    C216910   4.858  14.938   7.853 -0.2372  0.3021 -0.0795
 1269ERGO   ROH16911   0.814  17.346   8.871  0.2238 -0.1680 -0.1352
 1269ERGO    R116912   0.788  17.567   8.696 -0.2761 -0.0670  0.0526
 1269ERGO    R216913   0.909  17.576   8.448 -0.0742  0.5196  0.1606
 1269ERGO    R316914   0.656  17.626   8.362 -0.1657 -0.1445 -0.0061
 1269ERGO    R416915   0.820  17.644   8.121 -0.0220  0.3494  0.1101
 1269ERGO    R516916   0.681  17.794   8.194 -0.4939 -0.0280  0.0502
 1269ERGO    C116917   0.531  17.729   7.850 -0.0776 -0.3731 -0.0758
 1269ERGO    C216918   0.507  17.950   7.468 -0.0397 -0.2028  0.0960
 1270ERGO   ROH16919   7.665   8.126   5.926  0.0630  0.0614 -0.0439
 1270ERGO    R116920   7.658   8.257   6.176 -0.2488  0.1198 -0.0802
 1270ERGO    R216921   7.431   8.264   6.334 -0.2565 -0.4405 -0.0524
 1270ERGO    R316922   7.598   8.163   6.523  0.0524  0.0524 -0.0434
 1270ERGO    R416923   7.358   8.243   6.672 -0.2390 -0.6919 -0.0624
 1270ERGO    R516924   7.564   8.303   6.714 -0.4066 -0.0539 -0.0349
 1270ERGO    C116925   7.473   8.135   7.045  0.0612 -0.3757 -0.0598
 1270ERGO    C216926   7.485   7.955   7.263 -0.1157  0.3662  0.0992
 1271ERGO   ROH16927   3.631  15.898   7.179  0.1447 -0.2448 -0.0944
 1271ERGO    R116928   3.725  16.108   7.343 -0.0224 -0.2347 -0.0090
 1271ERGO    R216929   3.824  16.066   7.598  0.2049 -0.2887 -0.1031
 1271ERGO    R316930   4.040  16.200   7.501 -0.0318  0.0656 -0.1579
 1271ERGO    R416931   4.032  16.270   7.784  0.1201 -0.2213 -0.0818
 1271ERGO    R516932   4.039  16.408   7.617 -0.1845 -0.0466  0.0453
 1271ERGO    C116933   4.355  16.514   7.801 -0.1516  0.1505 -0.1212
 1271ERGO    C216934   4.633  16.369   8.006  0.1022 -0.3616  0.2534
 1272ERGO   ROH16935   0.546  19.108   9.073 -0.0940  0.4928  0.0238
 1272ERGO    R116936   0.610  19.025   8.811 -0.0618  0.3565  0.0730
 1272ERGO    R216937   0.424  19.023   8.605 -0.0350  0.2693  0.0418
 1272ERGO    R316938   0.610  19.174   8.479 -0.0036  0.1944  0.0007
 1272ERGO    R416939   0.492  19.012   8.267  0.0205  0.1169  0.0581
 1272ERGO    R516940   0.703  19.029   8.313  0.0095  0.1184  0.0803
 1272ERGO    C116941   0.707  19.148   7.951  0.0822 -0.0420  0.0290
 1272ERGO    C216942   0.733  19.306   7.645  0.1571  0.1564 -0.0516
 1273ERGO   ROH16943   1.527   6.829   6.246  0.0593 -0.0581  0.1112
 1273ERGO    R116944   1.545   6.927   6.511  0.0003  0.0025  0.0942
 1273ERGO    R216945   1.328   6.931   6.683 -0.0015 -0.1121  0.1013
 1273ERGO    R316946   1.497   6.792   6.846  0.0978  0.0282  0.1179
 1273ERGO    R416947   1.350   6.973   7.025 -0.2327 -0.2519  0.1345
 1273ERGO    R516948   1.567   6.953   7.009 -0.1970  0.0415  0.2353
 1273ERGO    C116949   1.521   6.867   7.377 -0.2742 -0.2018  0.1695
 1273ERGO    C216950   1.338   6.746   7.740 -0.0973  0.0564 -0.0090
 1274ERGO   ROH16951  13.517  10.846   6.073  0.3049 -0.0389  0.1584
 1274ERGO    R116952  13.408  10.886   6.331  0.2105 -0.0127  0.1153
 1274ERGO    R216953  13.509  11.072   6.508  0.1764 -0.0242  0.1538
 1274ERGO    R316954  13.253  11.161   6.512  0.1904  0.0211  0.0442
 1274ERGO    R416955  13.383  11.300   6.735  0.1744  0.2016 -0.0694
 1274ERGO    R516956  13.200  11.181   6.745  0.1596  0.2418  0.0161
 1274ERGO    C116957  13.068  11.516   6.871  0.1865  0.3755 -0.3022
 1274ERGO    C216958  13.001  11.721   6.991 -0.0870 -0.0747  0.2702
 1275ERGO   ROH16959  16.916  14.767   5.998 -0.1597  0.1669  0.0200
 1275ERGO    R116960  17.105  14.850   6.191 -0.1109  0.0980  0.0046
 1275ERGO    R216961  17.032  14.972   6.428 -0.0539 -0.0004  0.0802
 1275ERGO    R316962  17.180  14.773   6.538 -0.0163 -0.0421 -0.0474
 1275ERGO    R416963  17.122  14.955   6.761  0.3202  0.0248 -0.0168
 1275ERGO    R516964  17.319  14.884   6.699  0.2170 -0.0745 -0.2259
 1275ERGO    C116965  17.314  14.758   7.059  0.5732  0.0004 -0.1929
 1275ERGO    C216966  17.204  14.501   7.262  0.1587 -0.2927 -0.0567
 1276ERGO   ROH16967  11.265   2.455   9.194 -0.0929 -0.4455 -0.1490
 1276ERGO    R116968  11.135   2.518   8.951 -0.0630 -0.1582 -0.0936
 1276ERGO    R216969  11.198   2.742   8.801  0.1585 -0.1369  0.0327
 1276ERGO    R316970  11.232   2.560   8.603 -0.0710 -0.0562 -0.0846
 1276ERGO    R416971  11.142   2.801   8.466  0.3810  0.2030  0.0502
 1276ERGO    R516972  11.053   2.604   8.450  0.0529  0.3539 -0.1252
 1276ERGO    C116973  11.141   2.665   8.084  0.2951  0.4767 -0.0498
 1276ERGO    C216974  11.265   2.425   7.754 -0.2997  0.1325  0.0334
 1277ERGO   ROH16975   7.137   1.436   9.587  0.0346  0.0285  0.0473
 1277ERGO    R116976   7.196   1.327   9.332 -0.1002  0.0071  0.0245
 1277ERGO    R216977   7.023   1.159   9.199 -0.1962  0.0436  0.1050
 1277ERGO    R316978   7.052   1.341   8.999 -0.2409  0.0295  0.0851
 1277ERGO    R416979   6.973   1.093   8.863 -0.1345 -0.0215  0.1075
 1277ERGO    R516980   7.147   1.216   8.818 -0.1728  0.0388  0.1118
 1277ERGO    C116981   6.970   1.226   8.480 -0.1405 -0.0727  0.0904
 1277ERGO    C216982   6.825   1.432   8.079  0.0182 -0.0411 -0.0442
 1278ERGO   ROH16983   2.673  12.761   8.947 -0.0249 -0.1089  0.1295
 1278ERGO    R116984   2.613  12.916   8.717  0.1098 -0.0566  0.1279
 1278ERGO    R216985   2.764  12.905   8.486  0.1241 -0.1622  0.1390
 1278ERGO    R316986   2.525  12.851   8.370  0.0925  0.0171  0.1189
 1278ERGO    R416987   2.703  12.913   8.146  0.1309 -0.0267  0.1409
 1278ERGO    R516988   2.510  13.006   8.188  0.1875  0.0777  0.1641
 1278ERGO    C116989   2.442  12.867   7.839  0.1053  0.2205  0.1232
 1278ERGO    C216990   2.487  12.980   7.529 -0.3623 -0.0641  0.0851
 1279ERGO   ROH16991   1.734   2.517   6.193  0.2179 -0.0397 -0.0983
 1279ERGO    R116992   1.716   2.438   6.464  0.0254 -0.3161 -0.1864
 1279ERGO    R216993   1.695   2.621   6.671  0.4612 -0.4926  0.0250
 1279ERGO    R316994   1.475   2.474   6.735  0.0963 -0.0468 -0.1562
 1279ERGO    R416995   1.562   2.593   6.988  0.3245 -0.4647 -0.0291
 1279ERGO    R516996   1.526   2.381   6.949 -0.1609 -0.3595 -0.2229
 1279ERGO    C116997   1.278   2.439   7.233 -0.0976 -0.0299 -0.2308
 1279ERGO    C216998   1.024   2.473   7.434  0.1566 -0.0776 -0.4723
 1280ERGO   ROH16999  11.850  10.261   9.081 -0.2089  0.3324  0.1309
 1280ERGO    R117000  11.954  10.239   8.819 -0.0167  0.0192  0.2283
 1280ERGO    R217001  12.039   9.998   8.711 -0.5389 -0.2297  0.3540
 1280ERGO    R317002  11.865  10.064   8.513 -0.1960  0.1940  0.1766
 1280ERGO    R417003  12.082   9.925   8.377 -0.3201 -0.2439  0.3843
 1280ERGO    R517004  12.004  10.122   8.328  0.1437 -0.0504  0.3393
 1280ERGO    C117005  11.945   9.944   7.996  0.1291  0.1456  0.2355
 1280ERGO    C217006  11.730   9.738   7.779  0.3691  0.1349  0.1064
 1281ERGO   ROH17007   9.203   3.433   6.267 -0.0919  0.1355  0.0119
 1281ERGO    R117008   9.359   3.404   6.501 -0.1075  0.1870  0.0286
 1281ERGO    R217009   9.249   3.350   6.748 -0.1152  0.1392  0.0139
 1281ERGO    R317010   9.424   3.142   6.745 -0.0375  0.2039  0.0287
 1281ERGO    R417011   9.302   3.133   7.012 -0.1837  0.0552 -0.0405
 1281ERGO    R517012   9.516   3.139   6.966 -0.1590  0.1510  0.0795
 1281ERGO    C117013   9.499   2.812   7.162 -0.1506  0.0670 -0.0583
 1281ERGO    C217014   9.545   2.442   7.253 -0.3045 -0.2338  0.1096
 1282ERGO   ROH17015   6.946   9.666   9.422  0.3453 -0.1504 -0.0850
 1282ERGO    R117016   6.872   9.641   9.150  0.1883 -0.0561 -0.0505
 1282ERGO    R217017   6.633   9.739   9.051  0.2453  0.1936  0.0748
 1282ERGO    R317018   6.795   9.867   8.875  0.2854  0.0393 -0.0035
 1282ERGO    R417019   6.542   9.836   8.732  0.2418  0.0637  0.0350
 1282ERGO    R517020   6.738   9.773   8.662  0.2203 -0.0553  0.0464
 1282ERGO    C117021   6.641  10.012   8.381  0.2775 -0.1568 -0.0619
 1282ERGO    C217022   6.631  10.192   8.093  0.1112  0.1493  0.1102
 1283ERGO   ROH17023   2.747  16.276   5.843 -0.0048  0.2255  0.2041
 1283ERGO    R117024   2.682  16.313   6.116  0.1697  0.1721  0.2535
 1283ERGO    R217025   2.692  16.108   6.300  0.0500  0.0791  0.1544
 1283ERGO    R317026   2.854  16.281   6.435  0.2964 -0.1472  0.1575
 1283ERGO    R417027   2.724  16.121   6.644 -0.1315  0.1869  0.1690
 1283ERGO    R517028   2.729  16.339   6.631  0.2796  0.1836  0.0579
 1283ERGO    C117029   2.895  16.290   6.971 -0.0059  0.0372  0.1805
 1283ERGO    C217030   3.256  16.338   7.168 -0.0083 -0.3905 -0.0745
 1284ERGO   ROH17031  12.258  16.235   8.781 -0.0479  0.2678 -0.0296
 1284ERGO    R117032  12.181  16.321   8.522  0.0872  0.2467 -0.0766
 1284ERGO    R217033  12.346  16.295   8.302  0.1073  0.0071 -0.0324
 1284ERGO    R317034  12.131  16.168   8.196  0.0043  0.1754 -0.0316
 1284ERGO    R417035  12.277  16.272   7.964  0.1182  0.0233 -0.0362
 1284ERGO    R517036  12.067  16.304   8.010  0.1371  0.2104 -0.0561
 1284ERGO    C117037  12.035  16.139   7.668  0.0279  0.1905 -0.0377
 1284ERGO    C217038  12.075  16.178   7.376  0.3380  0.0829 -0.0686
 1285ERGO   ROH17039   4.673   3.921   9.798 -0.2677 -0.0085  0.0550
 1285ERGO    R117040   4.717   4.094   9.579 -0.2146 -0.1091 -0.0142
 1285ERGO    R217041   4.954   4.096   9.435 -0.1932 -0.2029  0.0210
 1285ERGO    R317042   4.788   4.058   9.223 -0.1683 -0.2738  0.0098
 1285ERGO    R417043   5.021   4.196   9.111 -0.2819 -0.0317  0.0538
 1285ERGO    R517044   4.813   4.257   9.092 -0.3402 -0.2020  0.0787
 1285ERGO    C117045   4.904   4.218   8.724 -0.3100  0.0015  0.0624
 1285ERGO    C217046   4.971   4.090   8.387 -0.1970  0.4344 -0.0558
 1286ERGO   ROH17047  16.693  11.982   5.541 -0.0730 -0.2354 -0.0987
 1286ERGO    R117048  16.545  12.058   5.770  0.0194 -0.1122 -0.0791
 1286ERGO    R217049  16.574  11.933   6.015 -0.0503 -0.1364 -0.0829
 1286ERGO    R317050  16.619  12.187   6.102  0.1700 -0.1713 -0.0891
 1286ERGO    R417051  16.488  12.052   6.327  0.1664 -0.0873 -0.0401
 1286ERGO    R517052  16.426  12.239   6.233  0.2616 -0.0371 -0.0053
 1286ERGO    C117053  16.480  12.360   6.591  0.4995 -0.0915 -0.0210
 1286ERGO    C217054  16.407  12.405   6.944  0.0852 -0.1274 -0.1292
 1287ERGO   ROH17055   9.364  14.143   5.570  0.1594  0.0274  0.1236
 1287ERGO    R117056   9.530  14.119   5.798  0.3469  0.2062  0.0094
 1287ERGO    R217057   9.645  14.338   5.922 -0.1599  0.3901  0.1867
 1287ERGO    R317058   9.524  14.236   6.143  0.2071 -0.1846  0.1448
 1287ERGO    R417059   9.722  14.425   6.247 -0.5006  0.5691  0.2244
 1287ERGO    R517060   9.700  14.216   6.303  0.3055  0.4304  0.1390
 1287ERGO    C117061   9.653  14.380   6.644 -0.3547  0.1337  0.2071
 1287ERGO    C217062   9.760  14.427   6.939 -0.1117  0.0980 -0.0969
 1288ERGO   ROH17063  15.897  15.218   8.960  0.0633 -0.1672 -0.2220
 1288ERGO    R117064  15.874  15.389   8.735  0.0136 -0.1101 -0.1760
 1288ERGO    R217065  16.006  15.340   8.498  0.1463  0.0712 -0.1505
 1288ERGO    R317066  15.756  15.359   8.392  0.1670 -0.0972 -0.2285
 1288ERGO    R417067  15.936  15.384   8.162  0.2100  0.0355 -0.1673
 1288ERGO    R517068  15.777  15.522   8.219  0.1012 -0.0805 -0.2134
 1288ERGO    C117069  15.661  15.427   7.868  0.2665 -0.1435 -0.2502
 1288ERGO    C217070  15.565  15.269   7.622 -0.4457 -0.0915  0.4283
 1289ERGO   ROH17071  12.703   2.570   5.748  0.2334 -0.1718 -0.0110
 1289ERGO    R117072  12.613   2.643   6.007 -0.0653 -0.0091 -0.1552
 1289ERGO    R217073  12.350   2.708   6.060 -0.2326 -0.4291 -0.4081
 1289ERGO    R317074  12.374   2.514   6.248  0.0186 -0.1552 -0.1504
 1289ERGO    R417075  12.220   2.724   6.380 -0.3663 -0.2344 -0.4702
 1289ERGO    R517076  12.403   2.633   6.454 -0.2419  0.1518 -0.2865
 1289ERGO    C117077  12.168   2.551   6.743 -0.2083  0.1360 -0.2643
 1289ERGO    C217078  12.079   2.630   7.097 -0.1903  0.0097 -0.0724
 1290ERGO   ROH17079   3.959  11.112   8.564  0.3218  0.1304 -0.1196
 1290ERGO    R117080   3.795  11.102   8.334  0.2501 -0.2005 -0.0586
 1290ERGO    R217081   3.772  11.313   8.158 -0.3094 -0.2039 -0.0049
 1290ERGO    R317082   3.842  11.126   7.973  0.0592 -0.0086 -0.0731
 1290ERGO    R417083   3.759  11.360   7.816 -0.5728 -0.1551  0.0095
 1290ERGO    R517084   3.683  11.156   7.796 -0.1008 -0.3446  0.0037
 1290ERGO    C117085   3.817  11.211   7.443 -0.3800  0.0567 -0.0462
 1290ERGO    C217086   4.026  11.334   7.223 -0.2907  0.0153  0.1034
 1291ERGO   ROH17087  12.747   2.207   8.855 -0.0110 -0.3655 -0.1019
 1291ERGO    R117088  12.792   2.155   8.581  0.1852 -0.0764 -0.1282
 1291ERGO    R217089  12.598   2.050   8.415  0.4500 -0.3717 -0.2582
 1291ERGO    R317090  12.654   2.268   8.264  0.0399 -0.1356 -0.0874
 1291ERGO    R417091  12.485   2.100   8.092  0.3730 -0.3407 -0.2275
 1291ERGO    R517092  12.681   2.182   8.042  0.2280  0.0830 -0.1550
 1291ERGO    C117093  12.473   2.335   7.762 -0.0568 -0.1012 -0.0494
 1291ERGO    C217094  12.283   2.385   7.526  0.1350 -0.0277  0.1414
 1292ERGO   ROH17095   5.207  12.032   9.184 -0.1138 -0.2302  0.0507
 1292ERGO    R117096   5.350  11.945   8.956  0.0327 -0.0492  0.0727
 1292ERGO    R217097   5.600  12.044   8.890  0.0732 -0.0006  0.3158
 1292ERGO    R317098   5.668  11.781   8.891  0.0731 -0.0032  0.1423
 1292ERGO    R417099   5.850  11.904   8.697  0.0773  0.1373  0.2181
 1292ERGO    R517100   5.720  11.732   8.662  0.0733  0.1539  0.1026
 1292ERGO    C117101   6.059  11.575   8.584  0.0794  0.2153 -0.0017
 1292ERGO    C217102   6.289  11.438   8.352 -0.1594  0.2006  0.0758
 1293ERGO   ROH17103   4.844  18.000   5.969  0.0600  0.2009 -0.0436
 1293ERGO    R117104   4.635  18.007   6.159  0.0689  0.2092 -0.0345
 1293ERGO    R217105   4.558  17.784   6.304  0.0379  0.2026 -0.0634
 1293ERGO    R317106   4.601  17.947   6.517  0.0727  0.1652 -0.0413
 1293ERGO    R417107   4.444  17.723   6.625  0.1038  0.1381 -0.0516
 1293ERGO    R517108   4.397  17.936   6.643  0.0976  0.1329 -0.0030
 1293ERGO    C117109   4.419  17.841   7.012  0.1749  0.0656 -0.0240
 1293ERGO    C217110   4.676  17.778   7.240 -0.1920  0.1694 -0.3107
 1294ERGO   ROH17111   0.485  15.410   9.088  0.2559 -0.1258 -0.1813
 1294ERGO    R117112   0.304  15.532   8.908  0.0270 -0.2884 -0.0665
 1294ERGO    R217113   0.388  15.671   8.683 -0.2105  0.2182  0.1406
 1294ERGO    R317114   0.220  15.499   8.555  0.2147 -0.0066 -0.1409
 1294ERGO    R417115   0.295  15.695   8.351 -0.0420  0.3556  0.1022
 1294ERGO    R517116   0.093  15.639   8.408  0.0252 -0.1153 -0.0824
 1294ERGO    C117117   0.083  15.549   8.038  0.4553  0.2246 -0.1843
 1294ERGO    C217118   0.081  15.429   7.736 -0.1408  0.0087 -0.0255
 1295ERGO   ROH17119  10.955  14.590   5.574  0.0435 -0.1085  0.2027
 1295ERGO    R117120  10.847  14.747   5.783  0.1196  0.0831  0.1026
 1295ERGO    R217121  10.626  14.668   5.929 -0.0659  0.3942  0.0060
 1295ERGO    R317122  10.791  14.707   6.141 -0.1274  0.2413  0.0825
 1295ERGO    R417123  10.525  14.778   6.240 -0.1455  0.1822  0.0558
 1295ERGO    R517124  10.704  14.902   6.249 -0.1466  0.1672  0.1944
 1295ERGO    C117125  10.621  14.879   6.621 -0.2496 -0.0848  0.1567
 1295ERGO    C217126  10.401  14.926   6.830 -0.2587 -0.1637 -0.1484
 1296ERGO   ROH17127  12.427  11.451   5.659 -0.0698  0.2226  0.0125
 1296ERGO    R117128  12.552  11.489   5.910 -0.1424  0.1936  0.0535
 1296ERGO    R217129  12.413  11.471   6.148 -0.1769 -0.0116  0.0231
 1296ERGO    R317130  12.607  11.291   6.210 -0.0632  0.0918 -0.0291
 1296ERGO    R417131  12.523  11.402   6.469 -0.2145 -0.1312  0.0108
 1296ERGO    R517132  12.727  11.393   6.392 -0.1883  0.0648  0.0655
 1296ERGO    C117133  12.769  11.193   6.714 -0.1296 -0.1036 -0.0454
 1296ERGO    C217134  12.734  11.169   7.050 -0.2232  0.0624 -0.0570
 1297ERGO   ROH17135   2.850  16.575   9.029 -0.0315 -0.1364  0.1064
 1297ERGO    R117136   2.840  16.714   8.783 -0.1876  0.1963  0.2934
 1297ERGO    R217137   2.831  16.585   8.539  0.5238  0.4933  0.0830
 1297ERGO    R317138   2.610  16.739   8.502  0.0435 -0.1577  0.0654
 1297ERGO    R417139   2.732  16.716   8.236  0.5048  0.6778  0.1677
 1297ERGO    R517140   2.678  16.901   8.339 -0.2504  0.3567  0.4233
 1297ERGO    C117141   2.466  16.937   8.023  0.0429  0.1740  0.2004
 1297ERGO    C217142   2.508  16.914   7.619  0.1678  0.0300 -0.0622
 1298ERGO   ROH17143   4.617   2.994   9.640  0.1854  0.2756 -0.2317
 1298ERGO    R117144   4.624   2.863   9.389  0.2122  0.1440 -0.1621
 1298ERGO    R217145   4.401   2.843   9.226  0.2084 -0.0282 -0.1276
 1298ERGO    R317146   4.567   2.955   9.042  0.1457 -0.0661 -0.2099
 1298ERGO    R417147   4.329   2.879   8.890 -0.0031  0.0798 -0.0734
 1298ERGO    R517148   4.535   2.824   8.844 -0.0517 -0.0124 -0.2213
 1298ERGO    C117149   4.443   3.005   8.521 -0.1851  0.1071 -0.1191
 1298ERGO    C217150   4.507   3.158   8.221 -0.0029 -0.1677  0.1993
 1299ERGO   ROH17151  10.397   0.041   5.953 -0.3255 -0.2822  0.0844
 1299ERGO    R117152  10.437   0.066   6.232 -0.1231 -0.2327  0.0535
 1299ERGO    R217153  10.370  -0.134   6.410  0.0251 -0.2109  0.1377
 1299ERGO    R317154  10.629  -0.106   6.488  0.0813 -0.1735 -0.0583
 1299ERGO    R417155  10.538  -0.353   6.618  0.1117 -0.0126  0.2790
 1299ERGO    R517156  10.631  -0.182   6.716  0.2103  0.0810  0.0284
 1299ERGO    C117157  10.880  -0.454   6.812  0.2149  0.1378  0.1772
 1299ERGO    C217158  10.916  -0.616   7.143  0.0152  0.1689  0.0551
 1300ERGO   ROH17159  12.691   3.743   5.961 -0.1296  0.0624  0.0400
 1300ERGO    R117160  12.690   3.732   6.244 -0.3238 -0.2821  0.0304
 1300ERGO    R217161  12.724   3.495   6.383  0.2346 -0.3764 -0.2354
 1300ERGO    R317162  12.924   3.634   6.506 -0.2371  0.0575  0.0845
 1300ERGO    R417163  12.874   3.404   6.681  0.2766 -0.3185 -0.2386
 1300ERGO    R517164  12.875   3.614   6.739 -0.3663 -0.3687  0.0287
 1300ERGO    C117165  13.148   3.480   6.969 -0.1419  0.1226  0.0599
 1300ERGO    C217166  13.442   3.412   7.287  0.0041  0.1925 -0.0608
 1301ERGO   ROH17167   3.781   2.889   6.434 -0.0206  0.1463 -0.1147
 1301ERGO    R117168   3.698   2.674   6.599  0.0621 -0.0089 -0.2720
 1301ERGO    R217169   3.832   2.432   6.606  0.3446  0.1405 -0.2195
 1301ERGO    R317170   3.840   2.481   6.873  0.0127  0.0687 -0.1930
 1301ERGO    R417171   3.988   2.231   6.839  0.1746  0.1566 -0.0912
 1301ERGO    R517172   3.820   2.265   6.974  0.0033  0.0345 -0.2748
 1301ERGO    C117173   4.085   2.159   7.226 -0.2360  0.0986  0.0084
 1301ERGO    C217174   4.406   2.122   7.386 -0.0357 -0.2797 -0.1959
 1302ERGO   ROH17175   4.752  13.786   8.957  0.0848  0.0963  0.0737
 1302ERGO    R117176   4.813  13.887   8.700  0.0096  0.1075  0.0606
 1302ERGO    R217177   4.828  13.725   8.476 -0.0017  0.1097  0.0600
 1302ERGO    R317178   4.647  13.901   8.376 -0.0603  0.0699  0.0941
 1302ERGO    R417179   4.714  13.726   8.150 -0.0321  0.1096  0.0702
 1302ERGO    R517180   4.723  13.944   8.153 -0.0921  0.1130  0.0907
 1302ERGO    C117181   4.477  13.892   7.866 -0.1048  0.0721  0.1082
 1302ERGO    C217182   4.515  13.866   7.611 -0.1257 -0.3340  0.0254
 1303ERGO   ROH17183  14.687   9.153   6.015  0.0365 -0.1148  0.1038
 1303ERGO    R117184  14.685   9.168   6.298  0.1721 -0.1482  0.1075
 1303ERGO    R217185  14.917   9.173   6.448  0.2506  0.0411 -0.0124
 1303ERGO    R317186  14.807   9.399   6.551  0.1015 -0.0665  0.0662
 1303ERGO    R417187  15.005   9.316   6.751  0.2169  0.0468 -0.0058
 1303ERGO    R517188  14.794   9.357   6.786  0.1956 -0.1254  0.0592
 1303ERGO    C117189  14.952   9.611   7.024  0.0573 -0.0509  0.0719
 1303ERGO    C217190  15.088   9.834   7.274 -0.1439  0.1643 -0.1470
 1304ERGO   ROH17191   8.576   8.999   6.024 -0.3010  0.1567 -0.0240
 1304ERGO    R117192   8.408   8.954   6.248 -0.2272  0.0511  0.0116
 1304ERGO    R217193   8.407   8.716   6.388 -0.1601 -0.0078 -0.0815
 1304ERGO    R317194   8.453   8.879   6.601 -0.1074 -0.0862 -0.0326
 1304ERGO    R417195   8.355   8.629   6.719 -0.1370 -0.1018 -0.1024
 1304ERGO    R517196   8.275   8.829   6.754 -0.0962 -0.1016 -0.0283
 1304ERGO    C117197   8.367   8.732   7.111 -0.0741 -0.2300 -0.0686
 1304ERGO    C217198   8.646   8.798   7.407 -0.1069 -0.3180  0.0662
 1305W        W17199  16.289   9.164   3.989  0.1873 -0.1984  0.0252
 1306W        W17200  11.573   1.219   0.459 -0.3359  0.0675 -0.0367
 1307W        W17201  12.418   1.389   2.666 -0.2797 -0.0374 -0.2908
 1308W        W17202  12.058   3.400  14.721  0.0406  0.3582  0.0113
 1309W        W17203   1.086   5.377  11.069 -0.2649 -0.0706 -0.1942
 1310W        W17204  17.933  11.819  10.047 -0.1507 -0.2819 -0.0799
 1311W        W17205   3.978   5.631  13.537 -0.3233  0.1418  0.0528
 1312W        W17206   6.253  12.522   0.631  0.3213  0.0317 -0.0144
 1313W        W17207  18.821   2.173   5.268 -0.0039 -0.4525  0.0802
 1314W        W17208   6.402   6.547  12.460 -0.1107  0.2443  0.0156
 1315W        W17209  18.884   5.155   0.458  0.0299 -0.0309 -0.1879
 1316W        W17210   5.701   5.089   4.448 -0.2435  0.0214 -0.0450
 1317W        W17211  13.452  15.443  11.267 -0.0889  0.2469  0.2973
 1318W        W17212  17.455  17.960   4.360 -0.2436  0.0925  0.1048
 1319W        W17213  13.264  10.189   3.311 -0.1420 -0.1352 -0.1399
 1320W        W17214   6.610  13.999  13.678  0.0108 -0.1107  0.0058
 1321W        W17215   3.688   9.946   3.089  0.0246 -0.1475  0.1612
 1322W        W17216  10.171  12.651   2.778 -0.2227  0.1698 -0.2838
 1323W        W17217   0.679  11.863   2.949  0.2316  0.1113 -0.0054
 1324W        W17218   6.843  15.155  11.598 -0.1075 -0.2788  0.0954
 1325W        W17219   1.201   0.121   1.979  0.2694 -0.0675  0.3846
 1326W        W17220   5.212   9.649   1.484 -0.3265 -0.0968 -0.1804
 1327W        W17221  11.728   8.911  11.032 -0.0440  0.0520 -0.2421
 1328W        W17222  17.007   2.097  11.701  0.0362  0.3482 -0.0459
 1329W        W17223  11.486  15.004   4.223  0.2830 -0.1292 -0.1937
 1330W        W17224  14.359  13.225  13.118  0.1378  0.0936  0.1315
 1331W        W17225   5.710  15.305   2.311 -0.3548 -0.3860  0.1460
 1332W        W17226  13.508   3.592   0.818 -0.0421  0.3783 -0.2566
 1333W        W17227   1.980   5.918  13.690  0.0172  0.3150 -0.2199
 1334W        W17228   0.674   4.987   6.475  0.0534  0.0201 -0.1390
 1335W        W17229   7.549   6.910   4.149  0.2220 -0.0596  0.2050
 1336W        W17230  10.291   9.300   1.484  0.4729  0.0708  0.2196
 1337W        W17231  19.163   4.738   5.143  0.4265 -0.1929  0.0237
 1338W        W17232  10.138  16.325  12.957 -0.1299  0.4664 -0.0239
 1339W        W17233  11.344  14.311  13.952 -0.0235  0.1190  0.0227
 1340W        W17234  13.110  17.293  10.176  0.0600 -0.2467  0.2024
 1341W        W17235   3.736   8.550   2.904  0.1966 -0.0247 -0.1305
 1342W        W17236  12.084   3.346  13.876  0.3553  0.1385 -0.0943
 1343W        W17237  13.691   3.309   3.937  0.3944  0.2217 -0.4065
 1344W        W17238   7.316  14.723   3.970  0.1487  0.0423 -0.0406
 1345W        W17239   2.179   7.171   3.283 -0.2419 -0.1288 -0.1048
 1346W        W17240   0.115  12.120   4.761  0.1351 -0.2053  0.0308
 1347W        W17241   0.561  11.567  11.116 -0.2810 -0.0786  0.2787
 1348W        W17242  17.245   6.434  14.470  0.1358 -0.0537 -0.1285
 1349W        W17243  10.444   0.529   4.197  0.3197 -0.0749  0.1267
 1350W        W17244   2.303  16.517  10.097  0.1198 -0.2966 -0.0679
 1351W        W17245  13.895  13.759   2.098  0.2622  0.2393 -0.1275
 1352W        W17246  15.192   5.457   3.963  0.0931  0.1545 -0.0668
 1353W        W17247   1.330  11.453  15.066  0.0460 -0.3025 -0.1539
 1354W        W17248   4.352  17.087  12.702  0.0909 -0.2279  0.0844
 1355W        W17249  13.889   1.947   1.130  0.0750 -0.0146  0.0007
 1356W        W17250  15.157   7.924  14.930  0.3205 -0.2292 -0.3285
 1357W        W17251  16.416   6.543   1.661 -0.2802  0.1159 -0.2321
 1358W        W17252  13.503  17.014  14.990  0.2744  0.0032  0.0403
 1359W        W17253  16.983   8.357  13.710 -0.0817 -0.1021 -0.1002
 1360W        W17254  14.075   3.392   5.951 -0.1794  0.1133  0.1420
 1361W        W17255  11.173  18.235   0.119 -0.0420  0.1575 -0.0096
 1362W        W17256   8.310   4.999  10.593  0.1500  0.1771 -0.0654
 1363W        W17257  17.158   8.799  10.537 -0.0596 -0.0166  0.2702
 1364W        W17258  16.680   9.129  12.704 -0.0851 -0.1489 -0.1094
 1365W        W17259   2.888  10.679  14.077  0.0828  0.1426  0.1479
 1366W        W17260  16.848  16.670   0.802  0.0757 -0.0096  0.0737
 1367W        W17261   2.598   7.333  13.624 -0.1020 -0.0726 -0.3177
 1368W        W17262   7.302   2.971  11.696  0.1344 -0.1913  0.3265
 1369W        W17263  19.005   7.693   1.248  0.2870 -0.1288  0.2554
 1370W        W17264   4.623   8.059  12.784  0.2070 -0.1685  0.1792
 1371W        W17265   1.296   3.084   4.224 -0.0827  0.1926  0.0880
 1372W        W17266   2.317   5.589  14.712 -0.3313 -0.2265  0.0720
 1373W        W17267   2.972  11.284  13.821  0.0583 -0.0213 -0.0831
 1374W        W17268  18.053   8.592   5.864 -0.0370  0.0206 -0.0916
 1375W        W17269  17.601   1.602  13.594  0.2396  0.2054 -0.0670
 1376W        W17270   3.640  13.175  14.493  0.0602  0.2767  0.4926
 1377W        W17271  15.607  16.054   3.568  0.1333  0.2186  0.1066
 1378W        W17272   7.205  13.082  10.395  0.1782  0.0508 -0.3467
 1379W        W17273   3.816  13.181   2.020 -0.2747 -0.1716 -0.1203
 1380W        W17274   7.305   7.652   4.760 -0.1464 -0.0386  0.1827
 1381W        W17275   7.672  12.059  13.395 -0.0582  0.0954 -0.2683
 1382W        W17276   8.492   0.914  11.001 -0.1129  0.0174 -0.0614
 1383W        W17277   1.382   7.614   3.340  0.1325  0.1578 -0.2261
 1384W        W17278  17.306  13.593   0.399 -0.1259 -0.1245 -0.0611
 1385W        W17279  18.063   6.823   1.336 -0.0118  0.3074 -0.0617
 1386W        W17280   0.291  17.070   2.271 -0.0312  0.3728  0.0700
 1387W        W17281   2.817  18.088   0.548  0.0070 -0.2331 -0.1513
 1388W        W17282   8.662   2.215  13.398 -0.0426  0.0145  0.1275
 1389W        W17283  13.976  16.768  12.046  0.0222 -0.1501 -0.0193
 1390W        W17284  17.889  12.832  11.440  0.0014  0.4265 -0.1537
 1391W        W17285  17.849  13.008   3.761 -0.0532  0.1586  0.2467
 1392W        W17286   8.976   6.829  13.465  0.1141  0.1784 -0.2722
 1393W        W17287   5.792  19.004   4.899  0.0719  0.2991 -0.0424
 1394W        W17288   7.689   9.011  11.970 -0.0731 -0.0468 -0.2939
 1395W        W17289  18.551  18.333   4.351 -0.1957 -0.0447 -0.2055
 1396W        W17290   9.834  19.092   1.875 -0.0345 -0.1360  0.0364
 1397W        W17291   7.324  11.402   1.287  0.2642 -0.0975  0.0728
 1398W        W17292   5.538   2.860   3.561  0.0192 -0.2247 -0.3131
 1399W        W17293   2.392  17.868   0.458 -0.1016  0.2072  0.2961
 1400W        W17294   5.715   6.382   2.490  0.0770  0.1428  0.0566
 1401W        W17295   6.567  14.888   5.142  0.2536 -0.1760  0.2885
 1402W        W17296   2.268  17.610   3.856 -0.4056 -0.2084 -0.1482
 1403W        W17297  12.044  13.466   2.614  0.2421 -0.4365  0.1124
 1404W        W17298   3.065   2.247   1.650  0.1590 -0.2332  0.2403
 1405W        W17299   2.872  18.849   1.108  0.0462 -0.0171  0.0057
 1406W        W17300  18.139   2.456   3.156 -0.0141  0.0159  0.2570
 1407W        W17301  12.697  12.399   0.692  0.3649 -0.3416 -0.0499
 1408W        W17302  18.462   1.414  11.205 -0.1234  0.0028  0.1874
 1409W        W17303  12.471  15.634  10.616 -0.2795  0.1113 -0.4511
 1410W        W17304   9.083   5.422  10.912  0.1062 -0.0430  0.0414
 1411W        W17305  10.138   2.337   1.224 -0.0511  0.2451  0.0853
 1412W        W17306  15.888  16.061  13.332  0.5077 -0.1010  0.0035
 1413W        W17307  15.040   0.130  11.577 -0.3266  0.1193  0.2499
 1414W        W17308  13.347   5.596   5.815 -0.0842 -0.0181 -0.0116
 1415W        W17309  16.939  13.016   3.996 -0.0734 -0.2022 -0.1222
 1416W        W17310   1.913  17.513  10.735  0.1125  0.0186 -0.3694
 1417W        W17311  14.609  13.428  10.271  0.1298  0.0619  0.1209
 1418W        W17312  13.625   0.801  11.996  0.2396  0.3456 -0.1779
 1419W        W17313   7.318   0.977  12.183  0.1593 -0.2554  0.2434
 1420W        W17314   3.541  17.455   1.703  0.0241  0.2793  0.3231
 1421W        W17315   6.245   5.748   2.658 -0.0530  0.2755  0.1686
 1422W        W17316   5.829  14.426  11.525  0.1908  0.4959  0.1573
 1423W        W17317  16.317   4.850   2.888  0.2819 -0.0732  0.1452
 1424W        W17318   4.013  10.463   1.618  0.0266  0.1397  0.1817
 1425W        W17319  16.546   2.965  10.983  0.1123  0.1778 -0.0415
 1426W        W17320  16.279   6.655  12.799  0.0528  0.0954 -0.1508
 1427W        W17321   3.467   4.345  10.934  0.2416 -0.2025 -0.0959
 1428W        W17322   4.249  11.947  14.696 -0.0165  0.0581 -0.1709
 1429W        W17323  18.200   2.266   0.039 -0.0680  0.1644  0.3795
 1430W        W17324   6.114  11.544  13.657  0.2349  0.1700 -0.2481
 1431W        W17325   6.571  17.951  12.555  0.1789 -0.0010 -0.2803
 1432W        W17326   3.274  10.343  12.560  0.1283 -0.0343  0.2056
 1433W        W17327  14.563   9.386   4.769  0.1530  0.2540 -0.0581
 1434W        W17328  16.809  15.160  14.171 -0.3767  0.2415  0.1050
 1435W        W17329   6.128   0.836   3.797  0.0997  0.0277 -0.0548
 1436W        W17330   1.814   3.051   4.394  0.2514  0.3597 -0.0755
 1437W        W17331  17.352  18.113   1.734  0.0883 -0.1423 -0.2777
 1438W        W17332   4.850  17.661   0.424  0.1788 -0.3469 -0.2154
 1439W        W17333   4.479  19.196  14.588  0.2428 -0.0117 -0.1152
 1440W        W17334   8.460   1.425  11.131 -0.3584  0.2719  0.1354
 1441W        W17335   0.694   8.980  11.647 -0.2444  0.0990  0.1179
 1442W        W17336   7.783  18.664  13.018 -0.1566 -0.0441 -0.0127
 1443W        W17337  14.535   6.288   1.663 -0.2959 -0.2392  0.0406
 1444W        W17338  12.321   0.342   3.131  0.1228 -0.0734 -0.2087
 1445W        W17339   7.022   4.147   3.437  0.0360  0.2847  0.0875
 1446W        W17340  11.140   6.262   0.308  0.2270  0.1705 -0.0000
 1447W        W17341  14.070   4.931  13.418 -0.0862 -0.2061 -0.0117
 1448W        W17342  11.007   9.155   4.769 -0.0446 -0.2608  0.0433
 1449W        W17343   1.474   6.522   2.750 -0.1805 -0.0169  0.2892
 1450W        W17344  12.259  17.263  10.449 -0.0788  0.0666  0.3239
 1451W        W17345  17.151  11.783   9.638  0.0093  0.2733  0.1294
 1452W        W17346   5.990  15.146  13.236 -0.3888 -0.3339 -0.1899
 1453W        W17347   9.655  13.465  14.706  0.1393  0.1178  0.0363
 1454W        W17348   9.648   4.552   1.016  0.0068 -0.0703 -0.1318
 1455W        W17349   3.753   6.919   3.772 -0.0164 -0.1215  0.0248
 1456W        W17350   6.812   6.089   2.539 -0.0442 -0.4255  0.0799
 1457W        W17351  19.027  11.872  12.152  0.2221 -0.1181  0.1282
 1458W        W17352   1.905   3.049  11.337  0.1044 -0.2864 -0.1686
 1459W        W17353   6.449   4.987  14.295  0.1779 -0.0413 -0.3965
 1460W        W17354  16.831   6.026   3.516 -0.1309  0.2996  0.1252
 1461W        W17355  17.331   8.291   1.250 -0.0045 -0.0759 -0.2567
 1462W        W17356  11.839  16.756  11.391  0.2020  0.0029  0.0114
 1463W        W17357  15.252  13.728  12.846  0.0683 -0.3947 -0.0301
 1464W        W17358  12.418   4.154   4.871  0.2081  0.0894 -0.0123
 1465W        W17359  10.171  16.459   9.306 -0.5458 -0.0108 -0.1775
 1466W        W17360  15.039   2.710  13.308  0.0053 -0.2088  0.2666
 1467W        W17361  17.487   6.417  14.920  0.2369  0.0333  0.1422
 1468W        W17362  12.258   9.614   2.660  0.1942 -0.3707 -0.1837
 1469W        W17363  17.399   2.591  12.325  0.1012  0.2786  0.1827
 1470W        W17364   1.001   7.455  12.635  0.2225  0.0254  0.2999
 1471W        W17365  15.401  18.444  14.349 -0.1964 -0.1941  0.1582
 1472W        W17366   5.738  15.468  14.220 -0.0004 -0.0043  0.4130
 1473W        W17367  14.780  10.011  12.008 -0.0877  0.4047  0.0363
 1474W        W17368  12.300   5.619  14.390  0.0080 -0.1290  0.0236
 1475W        W17369  17.838  11.863  13.114 -0.2362 -0.0075 -0.0996
 1476W        W17370   1.916  13.374   2.697  0.0982 -0.4126 -0.2609
 1477W        W17371  10.469   8.372   1.143  0.0420 -0.3090 -0.1717
 1478W        W17372   4.522  11.819   3.360  0.1411  0.0627  0.0948
 1479W        W17373  12.871  14.115   2.233  0.1558 -0.0619  0.0626
 1480W        W17374  15.786   6.455  11.806  0.1008  0.0267  0.2202
 1481W        W17375   9.879  10.593   4.682 -0.4951  0.2418 -0.1714
 1482W        W17376  11.197  10.139  14.228 -0.0713  0.0769  0.4716
 1483W        W17377  11.186  15.117  14.514 -0.0525  0.2245  0.5141
 1484W        W17378  17.729  13.349   3.306  0.0438  0.2823 -0.0456
 1485W        W17379   4.271   8.558   4.659  0.0286  0.2544 -0.0864
 1486W        W17380   8.776   6.891  14.988  0.1296  0.1054  0.1229
 1487W        W17381   4.129   8.468  10.666  0.0257  0.1264  0.2315
 1488W        W17382  17.481  15.076   3.562 -0.1308 -0.0329  0.1467
 1489W        W17383  15.359   0.588   1.530 -0.0314  0.1738 -0.1854
 1490W        W17384  17.328   3.203   0.750 -0.0800  0.2196  0.1584
 1491W        W17385   5.842  16.713   3.327  0.2730 -0.3987 -0.1327
 1492W        W17386   3.285   5.344   1.401  0.2966 -0.0509  0.1208
 1493W        W17387  10.505  16.112  10.199  0.0521 -0.5045  0.0964
 1494W        W17388   3.298   3.406   5.313 -0.3306  0.0792  0.1041
 1495W        W17389   2.264  12.715  12.663  0.0430 -0.0491  0.3801
 1496W        W17390   8.710  13.503   3.595  0.1437 -0.0213  0.0440
 1497W        W17391  16.145   7.125   5.003 -0.0770 -0.0451  0.0771
 1498W        W17392   6.241   5.235   0.431 -0.0994 -0.1448  0.1060
 1499W        W17393  15.343   6.759   4.245  0.0568 -0.2290  0.0317
 1500W        W17394  14.274   0.657   2.796  0.1883  0.0459  0.0077
 1501W        W17395  16.376   2.290   0.127 -0.2776 -0.0655 -0.0418
 1502W        W17396   7.667   3.933  11.693 -0.0336  0.1252 -0.0225
 1503W        W17397   4.710  11.000   0.176  0.0491 -0.1750  0.1497
 1504W        W17398   7.196  10.648  10.971  0.1272  0.0025  0.0900
 1505W        W17399   4.762   0.455   0.758  0.0935  0.4742 -0.0232
 1506W        W17400  15.392  18.992   1.034 -0.1332 -0.0154 -0.1318
 1507W        W17401  11.130  18.988   0.829  0.0281 -0.2462  0.0245
 1508W        W17402  13.274   9.450  10.369  0.1933  0.1442 -0.0751
 1509W        W17403  18.909  17.086   3.649  0.4401  0.1016 -0.0301
 1510W        W17404   7.290   7.962  14.470 -0.4539  0.0294  0.0743
 1511W        W17405   6.573   1.590   3.032  0.0255 -0.0776 -0.6269
 1512W        W17406   3.188   7.405   1.193 -0.0897  0.0141  0.0025
 1513W        W17407   8.036   0.901  11.780  0.0549 -0.0416  0.0655
 1514W        W17408   6.768   0.031  14.474  0.1476  0.0817  0.3332
 1515W        W17409  11.972   4.822  13.394 -0.0161  0.1954  0.1240
 1516W        W17410   4.795   2.487   0.565  0.0035 -0.2584  0.1803
 1517W        W17411   2.645   5.387  12.236 -0.0916  0.0977  0.2563
 1518W        W17412   2.431  15.442   2.338  0.0541  0.2749  0.4524
 1519W        W17413  14.365   3.099  11.869 -0.0778  0.0816 -0.3427
 1520W        W17414  12.343   0.518  10.755 -0.0045 -0.1053  0.2293
 1521W        W17415  14.584  17.559  12.023 -0.0262 -0.1106 -0.0857
 1522W        W17416   5.976   3.274   4.336  0.0890  0.2289  0.3507
 1523W        W17417  18.322   3.368  12.767  0.2567 -0.1463  0.0672
 1524W        W17418  11.596   7.769  12.599  0.0560  0.1127 -0.0202
 1525W        W17419   9.270  17.789   2.897  0.1406  0.0131 -0.2194
 1526W        W17420   7.062  14.721  14.576  0.1872  0.1365  0.2067
 1527W        W17421  16.561  11.633   1.133 -0.0606 -0.0086  0.0379
 1528W        W17422  16.108  13.602   2.297 -0.5027 -0.0229 -0.3301
 1529W        W17423   2.621  12.892   4.665 -0.1165 -0.0021  0.0440
 1530W        W17424   3.511  19.186  11.369 -0.0046  0.2313 -0.2825
 1531W        W17425   4.145   5.326  11.702 -0.0703  0.1397  0.1304
 1532W        W17426   2.864  17.242   0.329  0.1509 -0.1188 -0.2256
 1533W        W17427  11.135   0.056  12.917 -0.3164  0.2866 -0.1382
 1534W        W17428   6.261   3.819  13.547 -0.2597  0.0161  0.0884
 1535W        W17429   1.811   3.372   1.484 -0.1616  0.1732  0.4172
 1536W        W17430  13.254  11.797   3.939 -0.1273  0.0491 -0.1447
 1537W        W17431  17.588   7.626   5.909 -0.0101  0.1264 -0.0484
 1538W        W17432   5.380  10.286  13.449 -0.2535  0.0035  0.1088
 1539W        W17433   6.953   7.676  14.778  0.0667  0.0841  0.1164
 1540W        W17434  16.462  13.096   2.499  0.0967  0.1807 -0.1044
 1541W        W17435   3.992   7.137   1.448 -0.1130  0.0772 -0.0573
 1542W        W17436   5.295   6.488  12.820  0.2286  0.2476 -0.0002
 1543W        W17437   4.926   0.828  12.618 -0.0410 -0.0677  0.0805
 1544W        W17438   9.205  12.356  15.101 -0.2648 -0.0334  0.0566
 1545W        W17439   8.827   0.075   4.281  0.1825 -0.0963 -0.1903
 1546W        W17440  12.543  19.029  13.607 -0.0006 -0.1155  0.1421
 1547W        W17441   9.206  12.430  12.621  0.2884  0.1779  0.1388
 1548W        W17442  18.559  11.718  10.896  0.1247 -0.3289  0.0339
 1549W        W17443  12.399  13.240   2.331  0.0647  0.1116  0.1007
 1550W        W17444   5.641   4.571   4.229  0.0248 -0.2657  0.1311
 1551W        W17445   5.735   9.905  12.502 -0.0470  0.0056  0.0631
 1552W        W17446  14.368   5.561  13.136 -0.0355  0.0388  0.0235
 1553W        W17447  16.925  10.844  11.226 -0.3949  0.1843 -0.0560
 1554W        W17448   1.742  14.452  12.614 -0.1547  0.0608  0.0660
 1555W        W17449  17.370  14.750  11.380  0.3226 -0.0222  0.2301
 1556W        W17450   0.246  12.566  14.108 -0.0342 -0.0579  0.0001
 1557W        W17451  17.765  15.217   2.991  0.0512  0.0130  0.2853
 1558W        W17452   0.971   3.311  12.882 -0.0037 -0.0148 -0.2442
 1559W        W17453   6.040  15.493   2.642  0.1387  0.0527  0.2749
 1560W        W17454   1.961  16.926   2.116 -0.0034 -0.0884 -0.1881
 1561W        W17455  17.615  10.956  13.724  0.0811  0.1801  0.4228
 1562W        W17456  10.720  11.309  14.090  0.3959  0.1344  0.0368
 1563W        W17457  14.453  10.995  13.539  0.4765  0.0722 -0.1920
 1564W        W17458   8.648  16.739   3.364  0.1234 -0.2620 -0.0502
 1565W        W17459  11.603  10.727  11.464  0.1561 -0.3046  0.1477
 1566W        W17460   3.547   1.315   2.407  0.1247 -0.4916 -0.2637
 1567W        W17461  14.211   0.145   5.771  0.0953 -0.0610  0.2114
 1568W        W17462  12.596   5.087   4.679  0.1072  0.2468 -0.1569
 1569W        W17463  13.663  16.106   1.572  0.3674 -0.0732 -0.3569
 1570W        W17464   9.238   2.191   4.743  0.0724  0.2458  0.0066
 1571W        W17465  14.520   9.525  14.665 -0.2266  0.0927  0.0617
 1572W        W17466   6.260  10.332  10.539  0.0613  0.2286 -0.2165
 1573W        W17467   7.074  18.609   0.982  0.1878  0.0008  0.1756
 1574W        W17468  10.062   2.931   1.892  0.2036  0.1290 -0.0528
 1575W        W17469   8.310   9.156   2.300 -0.0390  0.2584  0.0726
 1576W        W17470  13.088   8.774  11.054  0.1206  0.1638 -0.0827
 1577W        W17471  15.438  14.282   9.372  0.2965  0.0333 -0.1966
 1578W        W17472   7.665   2.077  11.773 -0.0971 -0.3395 -0.0647
 1579W        W17473  10.483  14.100   3.598 -0.1961  0.1522  0.0602
 1580W        W17474  16.998  15.870   3.367 -0.3244 -0.1419  0.0285
 1581W        W17475  14.080  17.759   3.711  0.0770  0.0901  0.1079
 1582W        W17476  12.156  16.095   2.637  0.2000  0.2425  0.0825
 1583W        W17477   6.768  14.410  13.931 -0.0967  0.3265 -0.2322
 1584W        W17478   9.132   0.243  12.089  0.0276  0.0108 -0.1132
 1585W        W17479   0.514  11.497  11.662  0.0954 -0.0281  0.2147
 1586W        W17480   1.304  13.523   0.932  0.1929 -0.0607 -0.1391
 1587W        W17481   1.259   9.371  13.529  0.0741  0.0148 -0.1235
 1588W        W17482  17.864  10.613  14.419  0.0258 -0.2752  0.0117
 1589W        W17483   0.119   0.863   1.874 -0.0408  0.3138 -0.0756
 1590W        W17484   4.331   0.393   1.952 -0.3171 -0.2423 -0.0944
 1591W        W17485  14.619   0.438   0.256 -0.0537 -0.1839 -0.2055
 1592W        W17486   1.503  10.165   5.192  0.0092  0.0511 -0.0844
 1593W        W17487  19.207   2.891   1.067  0.0715 -0.2746  0.1494
 1594W        W17488   0.167  14.797  11.792  0.0095  0.0214 -0.1622
 1595W        W17489   5.176   0.482   3.981  0.1596 -0.3460  0.3515
 1596W        W17490  17.231  17.164   1.446  0.4620 -0.2584 -0.0570
 1597W        W17491   5.883  12.297  11.716  0.0702  0.2584  0.1931
 1598W        W17492  11.964  14.690   4.294 -0.3131 -0.0055  0.1127
 1599W        W17493   1.339  10.310  10.074 -0.1111 -0.1231 -0.1716
 1600W        W17494  12.180   7.868  11.749  0.0924 -0.2979 -0.0166
 1601W        W17495  15.959  18.730   0.431  0.0571 -0.3064 -0.1084
 1602W        W17496  10.024   9.277   5.117  0.0918 -0.1116 -0.0546
 1603W        W17497   4.326  16.232  10.372 -0.5139 -0.1939  0.1612
 1604W        W17498  13.471  14.535  14.031  0.4083  0.1286  0.3493
 1605W        W17499  16.521  10.124   1.186 -0.1942 -0.1720 -0.0134
 1606W        W17500  10.771   9.552  13.778  0.0419  0.2402 -0.0006
 1607W        W17501   6.344  14.678   2.064  0.1903  0.0433  0.2206
 1608W        W17502  12.725   2.251  14.632  0.1543 -0.0800  0.2914
 1609W        W17503  17.229  17.559   4.353 -0.2197  0.1857 -0.2617
 1610W        W17504  16.263   8.131  14.853 -0.0095  0.0250 -0.2140
 1611W        W17505   0.302   5.733  11.995 -0.0675  0.2319  0.0590
 1612W        W17506  17.084   0.315   0.739  0.1234 -0.1214 -0.1369
 1613W        W17507   4.962   1.363   2.489  0.2484  0.1984 -0.0635
 1614W        W17508  16.275   3.340   4.309 -0.2846 -0.0653  0.3123
 1615W        W17509   6.803   2.423   3.506  0.2218 -0.0118 -0.4368
 1616W        W17510   1.623  11.400  12.573 -0.0779  0.3235  0.2370
 1617W        W17511   0.709  10.830  12.943 -0.1125 -0.0106 -0.1351
 1618W        W17512   1.152  16.034   9.908 -0.0793 -0.1373  0.0974
 1619W        W17513   7.576   2.602   0.612 -0.1671  0.1225 -0.2124
 1620W        W17514   7.518  18.144  15.102 -0.0039 -0.1209  0.3773
 1621W        W17515  13.794   6.563  14.951  0.3373 -0.0011  0.0676
 1622W        W17516   2.615  18.131  12.529 -0.0944 -0.0617 -0.0659
 1623W        W17517   5.905  19.180  10.784 -0.0416 -0.3493  0.1603
 1624W        W17518  17.610  11.224  10.473 -0.1521  0.0644 -0.1045
 1625W        W17519   9.015   1.346  15.021  0.0634  0.0263 -0.1463
 1626W        W17520   3.925  14.168   1.279  0.3676 -0.0043  0.1625
 1627W        W17521  17.365  11.673  12.886 -0.2074 -0.0793  0.2289
 1628W        W17522   2.879  11.373   0.484 -0.1139  0.2159  0.3634
 1629W        W17523  16.803  17.289  11.587 -0.2128  0.2279 -0.3298
 1630W        W17524  14.491   7.439  14.080  0.2325 -0.1296  0.0552
 1631W        W17525  12.171  12.469   4.811 -0.1739 -0.2910 -0.0388
 1632W        W17526  15.824   0.578   0.625  0.0874  0.0884  0.2047
 1633W        W17527  13.596  14.431  13.206  0.1451  0.4282  0.3204
 1634W        W17528  11.527   2.207  14.350  0.1306  0.0185  0.2062
 1635W        W17529   9.192  12.027  11.308  0.1613  0.3495 -0.0975
 1636W        W17530  11.273   9.458  13.637 -0.2520 -0.0663  0.1315
 1637W        W17531   9.267  12.563   2.833 -0.0247  0.3435 -0.0475
 1638W        W17532   8.691   3.640   0.116  0.3882  0.1488 -0.0913
 1639W        W17533   6.009   5.115   1.955 -0.0473 -0.1039  0.1108
 1640W        W17534  16.670   0.250  14.461  0.1441  0.2449 -0.2897
 1641W        W17535   5.022   1.619   5.603 -0.2085  0.1984  0.3548
 1642W        W17536   9.457  15.891   3.745  0.0578 -0.0546  0.1187
 1643W        W17537   8.661   5.978   3.303 -0.2919  0.2917  0.2027
 1644W        W17538  16.998   6.468   3.588 -0.3352  0.2350  0.0612
 1645W        W17539   3.650   8.661  14.260  0.0769  0.3012  0.2902
 1646W        W17540  19.048  10.472   3.166 -0.2970  0.2439  0.1780
 1647W        W17541  14.612  11.861   3.905 -0.0409  0.0336  0.1450
 1648W        W17542  14.780   4.947  13.957  0.0736 -0.0683  0.0019
 1649W        W17543   7.762   3.751   4.658  0.2406 -0.4265  0.0609
 1650W        W17544  17.767   2.890   5.034 -0.0864 -0.2479 -0.2885
 1651W        W17545   4.080   8.302   0.170 -0.2246 -0.1311 -0.1461
 1652W        W17546   6.761   0.895  10.942  0.2367 -0.0364  0.3008
 1653W        W17547   5.746  10.605   3.008  0.0114  0.1143  0.3577
 1654W        W17548   3.545   7.299   5.917  0.2072  0.0803  0.2058
 1655W        W17549   3.940   8.062  10.894  0.0758  0.3032  0.2211
 1656W        W17550  15.952  16.047   3.030  0.1844 -0.1267 -0.3388
 1657W        W17551  16.669   8.888  12.274  0.1064  0.1132 -0.2112
 1658W        W17552   7.667  18.616  14.491  0.2031  0.2338 -0.1423
 1659W        W17553  15.808  19.052  11.928  0.1395 -0.0567  0.1145
 1660W        W17554   4.610  14.103  13.858  0.1935  0.0481 -0.0006
 1661W        W17555   3.212   3.343   0.576 -0.3611  0.0315  0.0793
 1662W        W17556   0.000   7.625  14.650  0.0623  0.0819  0.2367
 1663W        W17557   5.920   4.945   1.414 -0.1189  0.1051  0.0339
 1664W        W17558   8.745   6.682  12.955  0.0844 -0.0235 -0.1644
 1665W        W17559   5.345   7.134   2.207 -0.1257  0.4121  0.3673
 1666W        W17560  19.171   0.009  14.651  0.2440 -0.1056 -0.0894
 1667W        W17561  10.053  10.210  12.460  0.2638  0.0928  0.0094
 1668W        W17562   2.335   9.153  11.407  0.3531  0.1603 -0.0634
 1669W        W17563   9.002   7.790   4.769  0.2729  0.0909 -0.0543
 1670W        W17564   3.775  19.058   0.088  0.2238 -0.0509  0.1408
 1671W        W17565  12.259   8.577   2.571 -0.3438 -0.0550  0.3122
 1672W        W17566  15.172   2.605   4.816  0.0659 -0.1808  0.0257
 1673W        W17567  18.313   5.922  12.484 -0.1098  0.1993  0.1485
 1674W        W17568   5.964  19.179   0.097 -0.1356  0.1093  0.1487
 1675W        W17569   6.590   0.361   5.111  0.2455  0.0085 -0.0304
 1676W        W17570   3.279  18.299  14.223 -0.0318 -0.3643 -0.1987
 1677W        W17571   9.050   7.434   1.039  0.0259  0.3715 -0.0161
 1678W        W17572  15.553   0.900  10.759  0.2854  0.0698 -0.2977
 1679W        W17573  14.436  15.578   1.529 -0.1230  0.0313 -0.2748
 1680W        W17574   0.203  19.122  13.228 -0.1839  0.1678 -0.1284
 1681W        W17575  12.712  13.190   0.872  0.0011 -0.1681  0.1546
 1682W        W17576  10.408  15.696  10.508  0.2428  0.4100 -0.2362
 1683W        W17577  12.477  18.764  12.634  0.0544  0.0869 -0.2097
 1684W        W17578  11.223  15.640   1.746 -0.1679 -0.2914  0.2362
 1685W        W17579  16.869   4.546  12.144  0.1043 -0.2351  0.3187
 1686W        W17580   0.793  11.772   3.445  0.0242 -0.0321  0.1846
 1687W        W17581   1.225  18.823   1.682  0.1936  0.0683 -0.1345
 1688W        W17582  15.848   6.195  13.970 -0.1082  0.1246  0.2236
 1689W        W17583  18.664   8.382  11.273  0.0020 -0.0665  0.0859
 1690W        W17584  19.049  17.347  13.231  0.0353  0.0469 -0.0184
 1691W        W17585   5.296   6.729   0.693  0.0785  0.0867  0.0966
 1692W        W17586   8.262  12.683  13.022 -0.1416 -0.1695 -0.0797
 1693W        W17587   2.544  18.530   2.772 -0.2017  0.0003  0.0683
 1694W        W17588   8.746   5.489  11.812  0.2638 -0.0154 -0.1316
 1695W        W17589  14.679   2.900   0.342  0.1051 -0.1204 -0.0402
 1696W        W17590   9.088   5.109   0.143  0.3472 -0.2746 -0.1158
 1697W        W17591   6.462  18.905   4.344 -0.1422 -0.2812 -0.3334
 1698W        W17592  16.727  12.184   2.134  0.3393 -0.3984 -0.0102
 1699W        W17593   2.731  15.372   0.342  0.2253  0.0134 -0.3805
 1700W        W17594  12.515  18.277   2.037 -0.3478  0.3789 -0.1609
 1701W        W17595   7.497  15.007  10.563 -0.0139  0.2703 -0.1302
 1702W        W17596   0.885  11.629  11.991 -0.0009  0.0809  0.0183
 1703W        W17597   7.817  16.252   0.492 -0.1156 -0.1152 -0.3285
 1704W        W17598  16.795  14.576  10.717 -0.1780  0.1150 -0.0152
 1705W        W17599  10.484  16.619  13.993 -0.1174 -0.2884  0.0205
 1706W        W17600  14.358   0.720  13.300  0.2179  0.0929  0.0550
 1707W        W17601   7.106   6.114  14.226 -0.0918  0.2015  0.2386
 1708W        W17602  10.221  19.022   0.971  0.1113 -0.1091 -0.0407
 1709W        W17603   5.620  10.898   0.796  0.0259  0.0375 -0.0461
 1710W        W17604   6.218  11.825  14.991 -0.2818 -0.1829 -0.1047
 1711W        W17605   6.354   7.774   0.315  0.0265  0.2673  0.0884
 1712W        W17606   9.847   8.427  11.666  0.0433  0.2046  0.0936
 1713W        W17607   6.977   7.985   4.179  0.3248  0.2912 -0.3454
 1714W        W17608  17.308  15.797   1.272  0.1387 -0.2524  0.1534
 1715W        W17609   2.679  16.131   1.754  0.1457  0.2818 -0.2259
 1716W        W17610  11.425  14.225  12.643  0.4864 -0.4855 -0.1596
 1717W        W17611  13.663  11.418   3.084 -0.1659  0.1293 -0.1781
 1718W        W17612   5.695   1.864   0.110 -0.4193 -0.0185  0.3270
 1719W        W17613   8.976   2.966  12.920  0.3146  0.1255 -0.3041
 1720W        W17614  19.146   9.525  12.038  0.0251  0.3064 -0.2511
 1721W        W17615  10.541  18.074   2.328  0.1564  0.0541 -0.1060
 1722W        W17616   7.385  15.546  14.595  0.1645  0.0124 -0.0025
 1723W        W17617  11.961   3.202  12.560 -0.1588 -0.0005  0.0019
 1724W        W17618   8.528  13.797  13.018  0.1114 -0.4478 -0.1077
 1725W        W17619   4.579   8.391   0.229  0.0596 -0.5203  0.2796
 1726W        W17620  16.937   6.352  12.137  0.1937  0.3857 -0.0618
 1727W        W17621   4.227   1.407  14.468  0.0509 -0.0908  0.1527
 1728W        W17622   4.369   4.370   0.386 -0.0896 -0.0116  0.1769
 1729W        W17623  10.961  11.402   0.430  0.1297  0.2241  0.0196
 1730W        W17624   5.688   9.900   3.555  0.3215  0.0026  0.0123
 1731W        W17625   3.683  15.434  15.089 -0.0580 -0.1842 -0.1703
 1732W        W17626   6.274  10.316   1.102 -0.0705  0.1152  0.0024
 1733W        W17627  16.977   3.623   4.871  0.1893 -0.0165 -0.1582
 1734W        W17628   1.867   9.245  14.714 -0.2218 -0.1326  0.0572
 1735W        W17629   6.722   7.965  12.015 -0.0546  0.4077 -0.2995
 1736W        W17630  14.284  10.008   1.856 -0.1946  0.0932  0.0172
 1737W        W17631   2.031   2.854  14.731  0.2069 -0.2075 -0.0085
 1738W        W17632  13.538   7.976   2.685 -0.1563 -0.0249  0.2389
 1739W        W17633  14.613  12.979  12.785  0.0539  0.0863  0.2534
 1740W        W17634   7.395  12.785   2.652  0.3420 -0.1977 -0.0219
 1741W        W17635   4.060   3.043   2.284 -0.0292  0.1814 -0.3428
 1742W        W17636   2.856  11.719  12.663 -0.3163  0.0514 -0.1274
 1743W        W17637   2.141   4.102   2.738 -0.1714 -0.0719 -0.4827
 1744W        W17638  15.609   3.647  10.904  0.2075 -0.4571 -0.0197
 1745W        W17639  17.600  14.039  12.310  0.0545  0.0231 -0.0987
 1746W        W17640  12.434  16.006   0.351  0.3017 -0.0335 -0.3284
 1747W        W17641   1.487  18.108   3.850 -0.0430 -0.0786  0.1282
 1748W        W17642   5.613  11.176   1.678 -0.2564 -0.1217  0.1581
 1749W        W17643   4.396  15.802   0.941  0.1113 -0.0953  0.0312
 1750W        W17644   4.032   7.047   5.350 -0.1788  0.3105 -0.1303
 1751W        W17645  17.714   4.641  13.894 -0.1150 -0.2838  0.2370
 1752W        W17646   0.864  17.129  13.401  0.1612 -0.1917 -0.2668
 1753W        W17647   1.369  11.104   2.040  0.2478  0.1284 -0.0570
 1754W        W17648  18.523   5.016   1.627 -0.0499 -0.1997  0.5665
 1755W        W17649  17.354  16.467   4.570  0.0227 -0.0281 -0.2397
 1756W        W17650   2.872   8.297   3.417 -0.2828 -0.1411  0.1885
 1757W        W17651   4.552   9.487   0.159 -0.2499  0.2791 -0.2543
 1758W        W17652   8.691   6.870  14.464 -0.0673  0.1654 -0.2116
 1759W        W17653  18.282  13.933  12.336  0.4441 -0.0958 -0.0119
 1760W        W17654  10.360  10.480  12.770 -0.0735  0.0336 -0.3470
 1761W        W17655   8.630   3.797   2.885  0.0408  0.0751 -0.1181
 1762W        W17656  10.709  16.218   1.002  0.1700  0.2254 -0.0991
 1763W        W17657  16.982  17.013  12.231  0.1531  0.0793  0.3190
 1764W        W17658  11.173  15.464   2.496  0.1632  0.2361 -0.1869
 1765W        W17659   3.276   0.165   4.293  0.0228  0.1478  0.0663
 1766W        W17660  15.754   7.249  15.044 -0.1766  0.2278 -0.1533
 1767W        W17661   3.922   6.653  11.043 -0.1222 -0.3851  0.1723
 1768W        W17662  14.585   4.778  13.466 -0.2382  0.3329  0.0012
 1769W        W17663   6.420   5.294  11.851  0.1376 -0.1951  0.3008
 1770W        W17664   1.575   2.413   3.046 -0.2292 -0.0819 -0.1745
 1771W        W17665   3.177   5.327  11.938 -0.2466  0.2041 -0.4276
 1772W        W17666  14.887  15.318   4.860 -0.2213 -0.0524 -0.0608
 1773W        W17667  13.568  14.060   2.283 -0.1933 -0.1085  0.2520
 1774W        W17668  10.649  18.130   1.240  0.1928  0.0598 -0.2132
 1775W        W17669  16.537   3.667  12.689  0.0796 -0.1605 -0.1696
 1776W        W17670  19.015  14.151   3.882 -0.2315  0.2401 -0.0316
 1777W        W17671   9.425  14.904  14.870 -0.4925 -0.0735  0.0451
 1778W        W17672   3.962   4.549  13.316 -0.3026 -0.4373  0.1053
 1779W        W17673   4.595  12.784  12.709  0.2004 -0.0623 -0.2311
 1780W        W17674  18.082   2.628  13.294  0.0103 -0.2744  0.1665
 1781W        W17675   5.614  12.686   5.508 -0.1436  0.3118  0.3293
 1782W        W17676  17.121   4.574   3.407  0.1930 -0.0766 -0.1543
 1783W        W17677  18.828   4.252   1.138  0.0736  0.2480  0.1999
 1784W        W17678   4.630   4.647   2.025 -0.0216  0.0572  0.0101
 1785W        W17679   0.788   7.263  13.634  0.1925  0.1586 -0.1428
 1786W        W17680  15.051  17.871   3.386  0.0073  0.1189  0.4079
 1787W        W17681   5.020   9.147  12.104 -0.1770 -0.1432 -0.1149
 1788W        W17682  14.398   7.108  15.083  0.0175  0.0607 -0.1026
 1789W        W17683  17.958  11.405   1.246  0.3117  0.0672 -0.2677
 1790W        W17684  13.000   8.581   0.432  0.5724  0.0091  0.0228
 1791W        W17685   7.073  16.988   4.752 -0.2731  0.1499  0.0916
 1792W        W17686  12.798  15.308  14.753  0.0064 -0.3015  0.2457
 1793W        W17687   4.329  12.080   4.522  0.6709 -0.1191  0.0677
 1794W        W17688   9.982  13.535  11.820  0.0665 -0.1135  0.1889
 1795W        W17689   9.511   6.220  14.893 -0.1936  0.1708  0.2562
 1796W        W17690   3.290   8.316   2.811 -0.0259 -0.0018  0.2375
 1797W        W17691   9.786   1.663  11.483  0.1965 -0.1835 -0.0811
 1798W        W17692   9.545   3.029  11.376  0.4104 -0.0732  0.0675
 1799W        W17693   8.253   6.730  13.895 -0.0841 -0.1363  0.1622
 1800W        W17694  14.577   8.794  10.941 -0.2982 -0.0774 -0.0087
 1801W        W17695  10.714   7.250   5.016  0.1878 -0.0122  0.0294
 1802W        W17696  16.675  16.060   1.512 -0.1560  0.0036 -0.2866
 1803W        W17697  12.861   3.577   2.646  0.1511  0.0483 -0.2276
 1804W        W17698  18.880   7.551  12.033 -0.0069 -0.0662 -0.1838
 1805W        W17699   1.057   2.546   2.312  0.5744  0.2438 -0.3045
 1806W        W17700  18.376   8.806  11.784 -0.0804 -0.1738  0.2592
 1807W        W17701  17.022   7.109  11.793  0.0504 -0.4582  0.2815
 1808W        W17702  11.018   5.412   0.271  0.2306  0.2110  0.0480
 1809W        W17703  14.298  12.374   1.642  0.0082  0.1724  0.2393
 1810W        W17704  15.447  10.145   0.880 -0.2884  0.1842  0.1573
 1811W        W17705  17.033  10.738   4.210  0.2280 -0.1366 -0.2078
 1812W        W17706  11.657  14.559   1.621  0.0398  0.0172 -0.0547
 1813W        W17707  14.650  10.226   3.191  0.1155 -0.0146 -0.2838
 1814W        W17708   1.919  13.135   0.379 -0.5541  0.1801  0.1112
 1815W        W17709  19.180   1.726   1.440  0.0762 -0.0998 -0.4461
 1816W        W17710  15.430  14.160   4.213  0.2843  0.2668 -0.0851
 1817W        W17711  16.505  14.056  13.768  0.3070  0.0190 -0.0846
 1818W        W17712   0.746   0.379   1.227 -0.1183  0.1651 -0.0602
 1819W        W17713  18.419  13.955  10.271 -0.0266  0.0581  0.0201
 1820W        W17714   5.270  15.485  11.276 -0.2631 -0.1532 -0.0533
 1821W        W17715  18.697   1.565   1.259 -0.3256 -0.1197 -0.0440
 1822W        W17716   2.993   9.932   2.446 -0.0459  0.0249  0.1163
 1823W        W17717   2.989  15.128  14.000 -0.3541 -0.0344 -0.1305
 1824W        W17718   7.957   0.093  11.090  0.1813  0.1383  0.0082
 1825W        W17719   6.449  14.029   3.747 -0.2045  0.2243  0.1477
 1826W        W17720  14.838  15.650  14.429 -0.0207  0.2326 -0.3541
 1827W        W17721   9.225  15.991  10.743  0.1290 -0.3269  0.4961
 1828W        W17722   1.704   0.129   1.879 -0.1291 -0.1040  0.2076
 1829W        W17723  17.800  18.656  11.400 -0.1832  0.0872  0.0826
 1830W        W17724  19.129   3.733   0.469 -0.1379  0.0050 -0.1849
 1831W        W17725  14.668  11.187   9.217  0.0905  0.0303 -0.0771
 1832W        W17726  14.585  15.774   4.206 -0.0992  0.2260  0.1340
 1833W        W17727   6.323   7.125  12.343  0.0111  0.5965 -0.0743
 1834W        W17728   5.589   5.176   2.273  0.1113 -0.2682 -0.0802
 1835W        W17729   4.513   9.687   4.184  0.0793  0.0918 -0.1996
 1836W        W17730   1.289  14.292  14.323  0.0799  0.0205 -0.0351
 1837W        W17731   4.734  15.288  13.430  0.0232  0.2945 -0.4548
 1838W        W17732  15.723  17.855   1.021 -0.2860 -0.1394  0.2881
 1839W        W17733   9.544   4.058   3.829 -0.2345  0.0917 -0.0911
 1840W        W17734   9.618  12.808   0.102 -0.1610 -0.0311 -0.3457
 1841W        W17735  15.407  14.805  10.752  0.2612 -0.2014 -0.1194
 1842W        W17736  12.291  15.522  12.511 -0.0655  0.2496  0.1547
 1843W        W17737   1.591   2.211   5.553  0.0885  0.1928 -0.0554
 1844W        W17738  10.326  13.328  11.522 -0.1356 -0.0975 -0.1446
 1845W        W17739  17.672   2.346   5.127  0.0780 -0.1251  0.3027
 1846W        W17740   4.488  18.677   4.375  0.1044  0.0724 -0.0321
 1847W        W17741   5.682   2.309   5.384 -0.2290  0.2019 -0.2984
 1848W        W17742   4.016   3.819   1.704  0.3307  0.4298  0.2121
 1849W        W17743  11.196  11.374   5.434 -0.0801 -0.0325 -0.4008
 1850W        W17744   3.615  14.460  12.018  0.3221 -0.0041 -0.0457
 1851W        W17745   7.919   7.581  12.072  0.2304 -0.3343  0.0368
 1852W        W17746   3.914   3.280  14.168 -0.1899  0.2198  0.0520
 1853W        W17747  14.776  15.981   1.579 -0.2584 -0.2433  0.3450
 1854W        W17748   4.317   9.704  13.230  0.2534  0.2268 -0.0396
 1855W        W17749  11.901  13.238   2.168  0.1617 -0.3521  0.5421
 1856W        W17750  17.512  15.055   1.266  0.1860  0.1953 -0.1728
 1857W        W17751  19.003   3.805  14.966  0.0979  0.2560 -0.0359
 1858W        W17752  14.029  11.924   2.697  0.2106 -0.2264 -0.1927
 1859W        W17753  11.065   1.242   2.441  0.0490 -0.0148  0.1694
 1860W        W17754  13.874   7.966  14.227  0.0711 -0.2613  0.4324
 1861W        W17755   1.144   4.227  11.089 -0.2323 -0.2618  0.3504
 1862W        W17756   2.182  18.081  14.523 -0.2351  0.0821  0.0398
 1863W        W17757   6.760  16.271  10.319 -0.0196  0.4733 -0.2307
 1864W        W17758   3.419   0.169   5.281 -0.3685  0.3541  0.1239
 1865W        W17759   1.202  11.895  15.108  0.3872  0.0976 -0.3860
 1866W        W17760  12.532   9.251   1.928  0.3078 -0.1430 -0.1117
 1867W        W17761   6.662  12.188  13.727 -0.3314 -0.1343 -0.0665
 1868W        W17762   7.311  11.362  13.613  0.3804 -0.2183  0.0040
 1869W        W17763   7.660  17.029  13.241 -0.2659 -0.0814  0.1275
 1870W        W17764  17.343  13.671   2.584 -0.4565 -0.2270 -0.0954
 1871W        W17765   5.041  13.500  11.143 -0.2409  0.2666 -0.0320
 1872W        W17766  13.621   3.802  13.409 -0.0310  0.0663  0.1672
 1873W        W17767  10.122  14.829  11.797  0.0780  0.0065  0.0821
 1874W        W17768   6.649  15.673  11.578 -0.0739 -0.1657 -0.2691
 1875W        W17769  16.834   5.969   9.840 -0.1876 -0.1481 -0.0138
 1876W        W17770  15.829   4.588  14.365 -0.2328  0.1357 -0.1353
 1877W        W17771   2.090   2.163  14.318  0.0918 -0.1251  0.0500
 1878W        W17772  18.060   7.444  11.268 -0.2103 -0.0372 -0.1517
 1879W        W17773  13.847   6.744   2.974  0.0846  0.1735 -0.1498
 1880W        W17774   4.652   1.724  14.576  0.2028 -0.1326  0.1720
 1881W        W17775  10.127   8.160  11.012  0.0593 -0.2143 -0.1981
 1882W        W17776  15.329  15.117  13.452 -0.3699  0.1035  0.0086
 1883W        W17777  13.692  16.964   0.347 -0.0068 -0.2434  0.3601
 1884W        W17778  17.077   7.016   2.946 -0.0121  0.2553 -0.2136
 1885W        W17779  13.395   0.799   0.570  0.1018  0.1433 -0.1245
 1886W        W17780  12.643  13.976  13.220 -0.1653  0.0165 -0.1686
 1887W        W17781  15.531   2.771  12.454  0.1451  0.4054  0.6385
 1888W        W17782   6.864   4.601   3.389  0.1415 -0.3179 -0.1127
 1889W        W17783   8.431  16.929  14.392 -0.2508  0.0395 -0.2365
 1890W        W17784  16.721   5.469  11.766  0.0524 -0.1188 -0.2071
 1891W        W17785  10.565   4.903  11.290 -0.2026 -0.0938 -0.1048
 1892W        W17786  16.594  15.169  11.809 -0.2525 -0.1445 -0.1023
 1893W        W17787   4.071   9.300   4.696  0.2886 -0.2081  0.0330
 1894W        W17788  11.569  19.167   1.038  0.2356 -0.1490  0.0500
 1895W        W17789   8.414  17.413   2.232  0.0645  0.1030 -0.4201
 1896W        W17790  17.843   0.410   2.980 -0.1213  0.1058 -0.0592
 1897W        W17791   8.065   4.740   4.925  0.1544  0.4731 -0.0988
 1898W        W17792  10.222   3.082   3.549 -0.3696 -0.0524  0.0499
 1899W        W17793  10.315   5.547   4.431 -0.3034  0.1069  0.0261
 1900W        W17794  10.761   6.891  10.817  0.0539  0.2037  0.0607
 1901W        W17795  17.331  14.866  13.267  0.0962 -0.0557 -0.0802
 1902W        W17796   1.363   2.207   3.956 -0.0740  0.4026 -0.2733
 1903W        W17797   0.482  11.270   4.972 -0.1331  0.4231 -0.1665
 1904W        W17798   2.552  17.363   4.724  0.2147 -0.0616  0.3036
 1905W        W17799   6.728   3.472  14.272  0.3122 -0.3964 -0.5050
 1906W        W17800  19.057   5.718   3.929  0.2243  0.0624 -0.0118
 1907W        W17801   0.945  16.498   3.538  0.0511  0.0587 -0.1055
 1908W        W17802  16.764  14.875  13.244  0.1793 -0.0669  0.0185
 1909W        W17803   0.779   8.958  13.637 -0.0281  0.0911  0.1865
 1910W        W17804   5.902   4.603   5.796 -0.0270 -0.2500  0.0896
 1911W        W17805  12.703   4.176  14.714 -0.1942 -0.1654  0.5768
 1912W        W17806   8.926   8.218  11.915  0.1589  0.2860  0.1534
 1913W        W17807   9.427   1.712   5.572 -0.3613  0.1926  0.0746
 1914W        W17808   3.762   9.959   0.076  0.5347 -0.0289 -0.2015
 1915W        W17809   9.562   1.908   3.296 -0.1149 -0.0529  0.0734
 1916W        W17810   7.603  15.682  13.484  0.1698 -0.0647 -0.0013
 1917W        W17811   1.578   6.514  14.468  0.4131  0.3653 -0.1507
 1918W        W17812   4.213   1.511  10.717  0.1952 -0.1759  0.1086
 1919W        W17813  14.682   9.214   1.377 -0.1006 -0.2242  0.0107
 1920W        W17814   6.021   4.639   1.017  0.2435 -0.0654  0.1867
 1921W        W17815   9.816   4.190  11.657 -0.0677 -0.2273  0.3065
 1922W        W17816   1.083  17.962   1.848 -0.0665  0.0012 -0.0781
 1923W        W17817   2.690  17.088   1.611 -0.1522  0.2845 -0.2176
 1924W        W17818  15.665  10.550  11.616  0.1172 -0.4136 -0.0009
 1925W        W17819   0.266  15.628  11.284  0.1715 -0.1113  0.2067
 1926W        W17820  16.904  18.930   0.527 -0.1454  0.1265  0.1394
 1927W        W17821  13.949   7.319  10.422  0.1227  0.2423 -0.0317
 1928W        W17822  12.300   8.224  12.125  0.2206 -0.1192 -0.1789
 1929W        W17823   5.070  16.344   2.906  0.0614 -0.0013  0.0307
 1930W        W17824   5.601  16.731  10.380 -0.1165  0.4111  0.2481
 1931W        W17825   8.230   9.153   4.404 -0.2635  0.0268 -0.1328
 1932W        W17826   5.717  16.099  10.760  0.0963 -0.4030  0.0309
 1933W        W17827  16.625  13.440  13.886 -0.1069  0.1801  0.0155
 1934W        W17828   1.026  16.767   3.939  0.1276 -0.1667 -0.4144
 1935W        W17829   7.169  10.556  14.605  0.0722 -0.0473 -0.2872
 1936W        W17830   8.872  14.599  11.533  0.2959 -0.0220  0.0308
 1937W        W17831   7.446  13.625   0.966  0.1619  0.0842  0.0323
 1938W        W17832  12.025  18.899   0.868  0.0432 -0.0107  0.0742
 1939W        W17833   2.899   1.010   1.080 -0.1719  0.1408 -0.0274
 1940W        W17834   9.129   5.944  11.140  0.1361  0.0661 -0.0538
 1941W        W17835  13.192   4.519   2.694  0.2953 -0.4958  0.0255
 1942W        W17836  17.337   9.287  13.620 -0.0550 -0.0828 -0.3134
 1943W        W17837   1.201   9.778  12.105 -0.0710  0.0896  0.2326
 1944W        W17838   3.931  17.149   2.101 -0.0021  0.3600  0.3257
 1945W        W17839   3.087  12.450  10.333 -0.0377  0.2060 -0.0564
 1946W        W17840  15.573   6.399  10.215 -0.2124  0.4222  0.1954
 1947W        W17841   2.107   1.164   5.863  0.3464  0.1869  0.0994
 1948W        W17842  17.729   1.778   0.882  0.5564 -0.2366  0.1144
 1949W        W17843   6.673   6.041  11.736 -0.2716  0.2367 -0.1050
 1950W        W17844   9.448   8.807   0.100  0.0755 -0.1294 -0.1356
 1951W        W17845   7.664   0.115   0.732 -0.1313 -0.2339 -0.1809
 1952W        W17846  16.939   1.810  12.209 -0.1104 -0.0569 -0.0926
 1953W        W17847  12.677  11.769   0.339  0.1544  0.2080  0.0875
 1954W        W17848  11.639   5.939   1.222 -0.1252 -0.0942  0.1616
 1955W        W17849   5.722  10.320  11.742 -0.1982 -0.1238  0.0808
 1956W        W17850  12.903  18.702   3.514 -0.4147 -0.0110  0.0199
 1957W        W17851  10.772  18.254  14.323 -0.2502  0.1278 -0.4619
 1958W        W17852   5.982  13.550  13.769  0.1047  0.1323  0.0384
 1959W        W17853   9.578  11.288   0.293  0.0142 -0.0250  0.0864
 1960W        W17854   8.277  15.650   3.768  0.2458 -0.0638 -0.1221
 1961W        W17855  14.202  14.226  12.670  0.0514 -0.3443  0.3345
 1962W        W17856   3.054  13.779   1.084  0.0682 -0.2053 -0.0305
 1963W        W17857   3.049   4.761  14.776  0.1788 -0.0288 -0.3455
 1964W        W17858  17.842   0.267  10.229 -0.1810 -0.2834 -0.2080
 1965W        W17859   3.331   0.013   0.915 -0.3215 -0.1244  0.0561
 1966W        W17860  18.679   5.473   5.685 -0.2101 -0.0493  0.0180
 1967W        W17861  13.746   6.707   4.763 -0.2384  0.2066 -0.1574
 1968W        W17862   7.445   3.604   1.282 -0.3842  0.1984  0.0155
 1969W        W17863   4.165   4.107   5.013 -0.1763  0.0257  0.0276
 1970W        W17864   2.876  18.357  13.447 -0.1270 -0.1276 -0.0879
 1971W        W17865  11.427   3.179   9.889  0.3397 -0.2326  0.2531
 1972W        W17866   9.909  11.836   2.067  0.2600 -0.0797 -0.0630
 1973W        W17867  18.666   5.589  12.364  0.0156  0.2040 -0.0040
 1974W        W17868  15.722   8.094  12.264 -0.2684 -0.1507  0.1319
 1975W        W17869   7.140   5.850   5.841  0.0826 -0.0443 -0.0858
 1976W        W17870   5.395   3.764   0.820  0.3436  0.3430  0.3263
 1977W        W17871  15.795   2.946   1.817  0.0280  0.0580  0.1800
 1978W        W17872   2.847   1.109   1.835 -0.0891  0.1609 -0.0624
 1979W        W17873  19.129   1.631   5.199  0.0956  0.2470  0.2970
 1980W        W17874   1.019  10.252  12.514 -0.0269  0.0555  0.4004
 1981W        W17875  18.179   7.834   0.933  0.1027 -0.3323  0.1946
 1982W        W17876   1.280  15.250   0.643 -0.0614 -0.0855  0.0489
 1983W        W17877   7.634  12.101  10.061  0.3292  0.0132  0.2616
 1984W        W17878   5.161   7.679   2.861  0.2279 -0.1421  0.2750
 1985W        W17879   1.570   1.173  12.694 -0.1498  0.0893  0.1159
 1986W        W17880  12.009   4.575   0.160 -0.1261 -0.0973  0.1439
 1987W        W17881   2.055  11.416  11.688 -0.0022  0.2886 -0.0187
 1988W        W17882  13.761   2.439   4.742 -0.2313  0.4264 -0.0012
 1989W        W17883   8.449  10.206  11.982  0.0817  0.1995 -0.1443
 1990W        W17884  15.155   7.416  11.067 -0.0404  0.3536  0.1031
 1991W        W17885  10.930  15.275  13.373 -0.1896  0.1906  0.0269
 1992W        W17886  18.326   8.770  13.252 -0.0541 -0.1933  0.0121
 1993W        W17887   1.837   6.328  12.400  0.0828 -0.2026  0.0385
 1994W        W17888  11.023   5.504   0.838 -0.3243  0.1185  0.1338
 1995W        W17889  13.190  16.351   0.960 -0.0079  0.0854  0.0955
 1996W        W17890  13.584   0.331   1.076 -0.2771 -0.0827 -0.1694
 1997W        W17891   7.180  16.449  10.996  0.2371 -0.0275  0.0535
 1998W        W17892   8.853  18.353  13.461  0.0945  0.0148  0.4071
 1999W        W17893   4.876   5.052   1.246 -0.3519 -0.1964 -0.1117
 2000W        W17894  11.370   1.767   3.271 -0.1298  0.1140  0.0631
 2001W        W17895  14.473  16.104  12.219  0.0650 -0.2040  0.0250
 2002W        W17896  14.570  11.227  10.190 -0.0354 -0.2773  0.0211
 2003W        W17897  11.640  18.931   2.360 -0.1636 -0.2581  0.1332
 2004W        W17898   5.249   0.332   1.602  0.2559 -0.0934  0.1637
 2005W        W17899   5.573   9.306  12.791  0.0524 -0.0848 -0.2540
 2006W        W17900   8.971   3.531   5.255  0.1446 -0.0501  0.0683
 2007W        W17901  10.394  12.131   1.132 -0.1995  0.1522 -0.2322
 2008W        W17902  14.191   2.650   3.667  0.0975  0.1104  0.0552
 2009W        W17903  15.084  13.632  13.448 -0.0773 -0.2427 -0.1965
 2010W        W17904  18.730  12.051   2.085  0.2540  0.3025  0.0165
 2011W        W17905  11.510   6.419   5.125  0.0236 -0.1221 -0.0399
 2012W        W17906  12.134  10.710  11.704 -0.0813  0.0695 -0.4615
 2013W        W17907  18.863  11.535   3.798  0.0887 -0.3842  0.2958
 2014W        W17908   3.360   2.827   6.136 -0.2080 -0.0727 -0.1664
 2015W        W17909  15.842   1.102  10.401  0.0084  0.1450 -0.0358
 2016W        W17910   0.624   0.263  10.854  0.2763 -0.1620  0.1036
 2017W        W17911   7.069  15.174  14.831 -0.0071 -0.0284 -0.3468
 2018W        W17912  14.000  16.663   1.505  0.0130  0.1806  0.2227
 2019W        W17913   4.088  17.918   3.676 -0.3339  0.4043 -0.4563
 2020W        W17914  14.849  13.539  13.008 -0.1711  0.0421  0.1356
 2021W        W17915   9.028   5.309   1.895 -0.3389 -0.1641  0.1465
 2022W        W17916  10.084  10.222   1.033 -0.2994 -0.1579 -0.3678
 2023W        W17917   5.873   1.272  12.785  0.2101  0.2174  0.3335
 2024W        W17918  13.802  12.944   1.516 -0.1944  0.0605 -0.1416
 2025W        W17919   4.479  17.017   3.435  0.0114  0.0916 -0.1756
 2026W        W17920  18.374   5.451   5.308 -0.1034  0.0598  0.1375
 2027W        W17921  14.618  18.049  10.041 -0.1136 -0.0958 -0.0717
 2028W        W17922   3.749  13.968  12.274  0.0033 -0.0456  0.1892
 2029W        W17923   4.846   8.113   3.149 -0.1117 -0.2693 -0.0610
 2030W        W17924   9.439  10.088  13.259  0.1728  0.0104  0.1726
 2031W        W17925  16.080  12.404  15.035  0.1775  0.0404 -0.1146
 2032W        W17926  17.996   5.598  11.261  0.0468 -0.0681  0.1426
 2033W        W17927  18.401   0.544   2.193  0.0495 -0.1274  0.1418
 2034W        W17928   9.458  13.794  10.361  0.2377  0.0376  0.0129
 2035W        W17929   1.884   6.662   4.162  0.0564  0.0773 -0.0405
 2036W        W17930  14.404  15.224  13.515  0.0479 -0.1071 -0.2144
 2037W        W17931  15.803   9.793  10.580 -0.2467 -0.2483  0.0839
 2038W        W17932  16.002  14.201  12.628 -0.0636  0.3046  0.2223
 2039W        W17933  18.095  12.607  11.016  0.0183  0.0177 -0.2925
 2040W        W17934   3.853   0.746  12.202  0.3800 -0.0827  0.1228
 2041W        W17935  16.255  13.776   0.677  0.4710 -0.0806  0.1248
 2042W        W17936   1.439  12.137   3.776 -0.1205 -0.2321  0.0488
 2043W        W17937  17.864  12.297  11.307  0.2219 -0.3886  0.1592
 2044W        W17938   3.479  14.289   9.868  0.1966 -0.1602 -0.1764
 2045W        W17939  12.675  12.677  14.999 -0.2362 -0.3000 -0.1060
 2046W        W17940   3.476   3.816   2.481  0.1223  0.0299 -0.0586
 2047W        W17941   9.700  17.356   1.995 -0.0183 -0.1066  0.1972
 2048W        W17942   5.031   8.595   0.318 -0.1318 -0.1936 -0.1821
 2049W        W17943   6.887  10.194   1.075  0.2232  0.0734 -0.0216
 2050W        W17944   1.263  12.344  12.607 -0.1130 -0.0062 -0.0397
 2051W        W17945   9.256   3.030  14.096  0.1632  0.0436  0.1427
 2052W        W17946   1.514   3.318  12.954 -0.2227 -0.1979 -0.2845
 2053W        W17947   3.099   1.824   5.340 -0.0843  0.0024 -0.0904
 2054W        W17948   2.485   0.055   3.976  0.0185 -0.1197 -0.0866
 2055W        W17949  11.000  17.869   3.988  0.0573 -0.2119  0.1407
 2056W        W17950   6.764  10.880  11.097 -0.4789  0.0146  0.0615
 2057W        W17951  13.197   8.383  12.081 -0.0287  0.1778 -0.1528
 2058W        W17952   6.425   9.213  11.742  0.0219 -0.1184 -0.2049
 2059W        W17953  12.776   6.994   2.554  0.0354 -0.0744  0.0128
 2060W        W17954  19.126   0.774   1.432  0.2982  0.1681  0.1155
 2061W        W17955  11.632  15.186   3.145 -0.0261 -0.0807 -0.0820
 2062W        W17956   7.552   7.472  13.897  0.1921  0.0085  0.3886
 2063W        W17957  14.263  18.693  11.694 -0.3775 -0.1007  0.4284
 2064W        W17958  10.663   2.172   0.172  0.1719  0.1195  0.1696
 2065W        W17959   1.422  13.201   0.610  0.0018  0.0450 -0.1804
 2066W        W17960  13.567   3.717  12.822 -0.0303  0.2099 -0.1892
 2067W        W17961  13.540   9.741   2.219  0.0145 -0.1278 -0.1886
 2068W        W17962   4.452   7.993   4.337  0.1314 -0.2868  0.4166
 2069W        W17963  17.930  12.667   4.126  0.0201 -0.0994 -0.4549
 2070W        W17964   5.760   2.356  14.100  0.4002 -0.0913 -0.3349
 2071W        W17965   9.088   5.096  11.747  0.1013 -0.0265 -0.2656
 2072W        W17966  17.065  16.526  12.153 -0.1398  0.0652  0.0793
 2073W        W17967  15.210  18.736   0.159  0.1893 -0.3681  0.1415
 2074W        W17968   9.906  15.504   3.042  0.4572  0.1391 -0.0447
 2075W        W17969   7.639  11.707   0.978  0.1012 -0.0063 -0.2394
 2076W        W17970   8.655   8.780  14.142  0.0125 -0.4745  0.1918
 2077W        W17971  18.704  17.791  14.053  0.1614  0.0133 -0.2782
 2078W        W17972  10.233  17.100   2.697 -0.0406 -0.1869 -0.0449
 2079W        W17973   5.060  12.968  13.848  0.0309 -0.0872  0.0223
 2080W        W17974  13.432   9.380   1.604 -0.1676  0.3335  0.1108
 2081W        W17975  10.779   4.320   1.685 -0.1206 -0.1822 -0.0905
 2082W        W17976  17.105   1.868  13.374 -0.0247  0.0138  0.3358
 2083W        W17977   9.008  15.843  12.328  0.1370  0.0665 -0.0024
 2084W        W17978   5.804  12.109   3.366 -0.0144 -0.1283  0.2373
 2085W        W17979   0.496   0.662   1.555  0.1601  0.0665 -0.2364
 2086W        W17980   5.347   9.330   2.297 -0.3902 -0.2089  0.1639
 2087W        W17981  17.013   7.786   1.521 -0.0402 -0.0718  0.1418
 2088W        W17982  14.499   4.173   3.075  0.2012  0.4775  0.0591
 2089W        W17983  14.677   5.878   0.179  0.2250 -0.0861 -0.1235
 2090W        W17984   9.757   1.325   1.039 -0.1775 -0.1351  0.0733
 2091W        W17985  17.482  18.201   3.432  0.5198  0.0886 -0.1267
 2092W        W17986  17.149   6.604   1.222  0.1204  0.0404  0.1059
 2093W        W17987  15.553   2.427  11.019 -0.2494 -0.3771 -0.5116
 2094W        W17988  16.925  16.510   3.742  0.2545  0.1050  0.1997
 2095W        W17989  11.022   3.544  13.888  0.1273  0.1201 -0.0867
 2096W        W17990   1.967   0.574   3.198  0.1083  0.2824 -0.2256
 2097W        W17991   5.891  17.275  12.622 -0.2619  0.2141 -0.0203
 2098W        W17992  17.180   7.019  13.456  0.0227  0.1501  0.1418
 2099W        W17993  18.511   3.785   4.976  0.2238 -0.4305 -0.0419
 2100W        W17994  11.534  15.761   0.545 -0.0535 -0.0394 -0.0624
 2101W        W17995  15.556  18.333   0.351 -0.0533 -0.1744 -0.0495
 2102W        W17996  18.344   3.074  13.157  0.0547 -0.1703  0.5473
 2103W        W17997  19.026  10.808   3.657  0.2511  0.1201  0.1037
 2104W        W17998   4.826  18.301   3.597  0.0844 -0.2775  0.0213
 2105W        W17999  15.570  14.266   0.682  0.1728 -0.2953 -0.2783
 2106W        W18000  11.702   8.612   3.342 -0.0153  0.0274 -0.0014
 2107W        W18001  13.005  16.783   4.677 -0.3889  0.0244 -0.1093
 2108W        W18002  12.518  18.187  12.225 -0.4882 -0.1092  0.0529
 2109W        W18003  10.725   5.690   2.845  0.0773  0.0439  0.0169
 2110W        W18004   1.160  14.331  13.181  0.0450 -0.0470 -0.2113
 2111W        W18005   3.826   9.388   3.452  0.1351 -0.3134 -0.2048
 2112W        W18006  12.730  17.605   0.532  0.3012 -0.1134 -0.0892
 2113W        W18007   3.165  12.215   4.071  0.1702  0.3284  0.1154
 2114W        W18008   1.922   8.194   2.753 -0.1103 -0.0007 -0.2481
 2115W        W18009  14.150  13.988  14.229 -0.1129 -0.1899  0.4642
 2116W        W18010  10.010  14.061  11.485  0.2051 -0.1926  0.0154
 2117W        W18011  16.331  16.832  10.904  0.2377  0.3732  0.3518
 2118W        W18012   1.285   5.185   0.008  0.0034 -0.3284 -0.0800
 2119W        W18013   3.259   5.346   0.301 -0.2192  0.1122  0.0992
 2120W        W18014  17.220   6.184  11.591 -0.0803  0.4635 -0.1073
 2121W        W18015  10.380  16.129   5.198 -0.2977 -0.1542  0.1709
 2122W        W18016   9.699  13.177   1.852 -0.0943  0.1424  0.1427
 2123W        W18017   4.215  15.956  10.818  0.2252 -0.1342 -0.1474
 2124W        W18018  12.558   9.828   4.925  0.3129 -0.3451  0.3401
 2125W        W18019   8.759  19.071   3.330 -0.1855  0.0104 -0.3001
 2126W        W18020  13.806  16.540   4.661 -0.0099 -0.2502  0.0204
 2127W        W18021  16.859  10.709  11.940 -0.2359 -0.0042  0.1161
 2128W        W18022   5.193   1.174   3.357 -0.1726 -0.0057  0.1202
 2129W        W18023   4.877   3.941   5.139 -0.0551 -0.1836 -0.0480
 2130W        W18024  18.749  11.212  11.565 -0.1284  0.2579  0.3656
 2131W        W18025   0.930   4.750  14.318  0.0890  0.0329 -0.0313
 2132W        W18026   0.209   5.787  10.269  0.2505  0.2749  0.0796
 2133W        W18027   6.805  19.144  13.149  0.0821 -0.2046  0.1503
 2134W        W18028   9.438   5.710  13.497 -0.0281 -0.1588  0.0752
 2135W        W18029   2.734   5.874  14.743 -0.2565 -0.4148  0.1472
 2136W        W18030   4.241  16.751  10.469  0.0207 -0.1972 -0.2431
 2137W        W18031   7.029  17.654  13.498 -0.3368  0.0040 -0.1874
 2138W        W18032  15.141   3.294   1.210 -0.0249 -0.2851  0.4500
 2139W        W18033   6.519   7.263   2.748  0.1064  0.0449 -0.1447
 2140W        W18034  11.305  17.363   0.293 -0.0729  0.3067 -0.1932
 2141W        W18035  11.220   9.325   0.464 -0.0182 -0.1686  0.2504
 2142W        W18036  16.044   7.746  12.644 -0.0437  0.1827 -0.4500
 2143W        W18037   1.817  14.354   0.516 -0.2753  0.1984  0.1619
 2144W        W18038  13.431  18.562   4.296  0.2962  0.0934 -0.1481
 2145W        W18039   6.454  12.458  12.533  0.0325 -0.0952  0.2291
 2146W        W18040   6.677   0.053   2.134 -0.0483 -0.1221 -0.2277
 2147W        W18041   2.921   8.890   3.339  0.1245  0.2764 -0.0329
 2148W        W18042   7.771  12.578   1.210  0.1703 -0.1386  0.0458
 2149W        W18043   4.211   8.724  13.401  0.0454  0.0920 -0.2048
 2150W        W18044  16.034  14.506   1.368  0.1682 -0.1752 -0.1634
 2151W        W18045   4.260   9.400   2.765 -0.2626 -0.1161  0.5370
 2152W        W18046  18.937  11.197  13.945  0.1027 -0.2726 -0.2715
 2153W        W18047  15.896  11.527   5.065 -0.0908 -0.5214 -0.0791
 2154W        W18048  16.778   0.009  10.023 -0.1439 -0.1256  0.0954
 2155W        W18049   8.740   5.132  12.975 -0.1367 -0.2371  0.2314
 2156W        W18050  10.131  12.515  13.438  0.3668 -0.0555 -0.0953
 2157W        W18051   5.688  16.261   2.909 -0.2289  0.1061  0.1409
 2158W        W18052  12.045  19.087  13.950  0.4543  0.1394  0.2670
 2159W        W18053   6.711  12.663  14.682 -0.1796  0.0593 -0.1259
 2160W        W18054  15.534  16.198  11.346 -0.2406  0.1583 -0.0484
 2161W        W18055   8.487   7.293  14.883  0.0446 -0.1670  0.1138
 2162W        W18056  11.303   8.110   1.915 -0.1917 -0.5888 -0.2210
 2163W        W18057   3.940   7.171  11.868 -0.1555  0.0980  0.0082
 2164W        W18058   3.572   7.162   2.590  0.2050 -0.1203 -0.2426
 2165W        W18059  14.401   6.615   5.417 -0.1075 -0.0641  0.0374
 2166W        W18060  17.015  14.568  13.631 -0.1305  0.1578  0.0911
 2167W        W18061  11.986   4.479   0.661  0.0272 -0.0725  0.1177
 2168W        W18062  15.002   5.128   4.797  0.1588 -0.1498 -0.0324
 2169W        W18063   8.391   6.076   4.702  0.1997 -0.2826 -0.4318
 2170W        W18064  12.476   0.042  12.567 -0.3219  0.2410 -0.3029
 2171W        W18065   1.204   7.643  11.009  0.2245 -0.0387  0.2397
 2172W        W18066  10.907  13.450  10.818 -0.1864  0.0540  0.1544
 2173W        W18067  16.320  10.098  10.507 -0.0243 -0.0069  0.0310
 2174W        W18068   1.798  14.994   4.054  0.0131 -0.0865 -0.0318
 2175W        W18069  17.819   0.145   3.388 -0.0454 -0.0891 -0.0290
 2176W        W18070  13.675   6.975  14.278  0.1849  0.0376  0.4241
 2177W        W18071   3.017  18.924   3.962 -0.0021  0.1394  0.2891
 2178W        W18072   6.661   4.223   5.202 -0.1496  0.2526  0.2792
 2179W        W18073  17.135   3.798  12.726  0.2457  0.4000  0.0336
 2180W        W18074   4.845  10.477   0.152 -0.3765 -0.0623 -0.0497
 2181W        W18075   7.348   5.102   0.533 -0.1326  0.0095  0.0409
 2182W        W18076  17.050   0.101   2.628 -0.0357 -0.0706 -0.0020
 2183W        W18077  15.990   1.541   4.033 -0.2956 -0.0056 -0.1002
 2184W        W18078  16.533   7.881  10.844  0.1759  0.0010  0.0801
 2185W        W18079   7.741   1.041   2.782  0.1786 -0.3717 -0.4910
 2186W        W18080  14.982  16.637   0.695  0.4145  0.1857  0.3568
 2187W        W18081  14.660   9.338  10.643  0.1213  0.0173  0.1204
 2188W        W18082  12.504   9.588  14.008  0.2900 -0.1043  0.1729
 2189W        W18083   7.620   3.347  13.431  0.0493 -0.1321 -0.2913
 2190W        W18084   9.856  18.292   1.824  0.1524 -0.1792  0.4942
 2191W        W18085  15.122  18.742   3.867  0.2977  0.2446  0.3365
 2192W        W18086   7.827  10.946  13.981 -0.0765 -0.0884  0.3753
 2193W        W18087  17.474  13.005   4.133  0.0895  0.0750  0.1402
 2194W        W18088   3.427   5.416  12.973  0.0475 -0.0413  0.0328
 2195W        W18089   5.189   7.266  11.126 -0.2836  0.0724 -0.0743
 2196W        W18090  16.601  13.534  14.750 -0.1686  0.2010 -0.2619
 2197W        W18091   5.808   7.480   3.542  0.0108 -0.0611 -0.0119
 2198W        W18092  18.773   8.032   1.912  0.0242 -0.2078 -0.0672
 2199W        W18093   7.305  11.238   3.841  0.1871  0.1779 -0.1432
 2200W        W18094   9.534   5.290  15.068  0.1381 -0.2328  0.4471
 2201W        W18095  14.690   6.133   0.685 -0.2576 -0.0344  0.1984
 2202W        W18096  14.548   8.958  14.632 -0.0326 -0.2035  0.1497
 2203W        W18097  15.744  10.138   4.448  0.1036 -0.3645 -0.1477
 2204W        W18098  16.727   0.687  14.962 -0.2819  0.1264  0.2066
 2205W        W18099   4.130  13.877   3.114 -0.0055 -0.2861  0.2361
 2206W        W18100   8.131   8.361  14.922  0.2341 -0.3793 -0.1487
 2207W        W18101  10.347  18.084  13.395 -0.0600 -0.3811 -0.0096
 2208W        W18102   5.431   0.418  13.826 -0.1202 -0.1288  0.3308
 2209W        W18103   0.989  18.564   9.747 -0.0468 -0.3261 -0.1117
 2210W        W18104   2.025   6.257   2.009 -0.0204 -0.1425  0.0513
 2211W        W18105   0.443  11.879   3.834  0.0418  0.3497 -0.2314
 2212W        W18106  18.057   9.857   1.994  0.3150 -0.0382  0.0627
 2213W        W18107  16.633   0.922   2.651  0.0709 -0.1916  0.0973
 2214W        W18108  10.392  15.583  14.316  0.5986 -0.2713  0.1467
 2215W        W18109  16.013   9.780  12.591 -0.5693 -0.0453  0.1528
 2216W        W18110  16.722  14.154  14.974  0.0558  0.3053 -0.3125
 2217W        W18111   9.147   6.376  11.430  0.2884  0.1605  0.1411
 2218W        W18112  11.287   9.547  15.071  0.1713  0.1344 -0.0372
 2219W        W18113   6.219   3.900  14.850  0.3250  0.2240 -0.2459
 2220W        W18114   2.419   8.704   0.369 -0.0859  0.0549 -0.1609
 2221W        W18115   1.153   4.516   1.272 -0.4716 -0.2008  0.2503
 2222W        W18116   9.923  11.050  13.530 -0.0872  0.1891 -0.0773
 2223W        W18117  12.238  16.142  12.366  0.1003 -0.0724  0.3662
 2224W        W18118  13.014  16.569   3.999  0.1595  0.5432 -0.0539
 2225W        W18119   6.646   4.364   0.426  0.0110  0.0508  0.3274
 2226W        W18120  11.525  15.328   9.396  0.3244  0.2417  0.0341
 2227W        W18121  18.326  14.773  13.328  0.0190  0.2265 -0.0479
 2228W        W18122   1.343  13.726   3.192 -0.0206 -0.0032  0.2030
 2229W        W18123  12.901  16.647  12.284  0.2457 -0.0707 -0.0878
 2230W        W18124   9.445   4.772   0.578  0.1972  0.2376  0.2463
 2231W        W18125  17.923   4.184   4.594  0.1233  0.2903 -0.2153
 2232W        W18126  16.724  12.444   4.818 -0.0321 -0.0274 -0.0663
 2233W        W18127   7.817  13.633  14.397 -0.1795 -0.2837 -0.1001
 2234W        W18128  14.672   7.871   0.237 -0.0531 -0.1020  0.1057
 2235W        W18129   4.371  16.259   3.370 -0.1748 -0.1358 -0.0909
 2236W        W18130  13.339   0.533  12.314  0.1956 -0.0327 -0.0027
 2237W        W18131   8.287  14.754  10.048  0.2047 -0.2258 -0.2163
 2238W        W18132   3.793  18.606  13.418 -0.1206  0.2528 -0.2847
 2239W        W18133  13.230  17.390   0.491  0.1746  0.0004  0.0116
 2240W        W18134   3.346  16.599   1.733  0.0219 -0.0597  0.1275
 2241W        W18135  18.001   8.344  13.657 -0.1539  0.0736 -0.1913
 2242W        W18136  12.411  11.346  11.024  0.2089  0.2180  0.3937
 2243W        W18137  12.851   7.724  13.010  0.0149 -0.3941 -0.0288
 2244W        W18138  10.362   3.441   4.942 -0.2048 -0.0802  0.1203
 2245W        W18139   4.010   8.904   4.448  0.1131 -0.1157 -0.0572
 2246W        W18140   0.118   7.868  12.723 -0.3667 -0.3177  0.0874
 2247W        W18141  13.092   5.950  13.784  0.1603 -0.0637  0.1151
 2248W        W18142   9.019   1.857   4.135  0.0425 -0.0357 -0.0212
 2249W        W18143   0.084   3.740   1.910 -0.1177 -0.3487 -0.2764
 2250W        W18144  14.923  16.578  12.089 -0.0976  0.1824  0.4642
 2251W        W18145  12.253  16.444  10.367  0.0446 -0.4050  0.0370
 2252W        W18146   7.954  17.137  10.450  0.3180 -0.0007  0.0691
 2253W        W18147  14.892  12.403   5.244  0.1368  0.1202  0.0876
 2254W        W18148  11.064   5.716   1.845 -0.2599  0.2122 -0.0770
 2255W        W18149  16.769   7.756  13.411 -0.1416 -0.0026 -0.2170
 2256W        W18150  11.061   3.590  11.167 -0.0355  0.0589  0.2566
 2257W        W18151   2.422  10.682  11.721 -0.0725  0.0471 -0.1579
 2258W        W18152  17.650   3.522   0.402 -0.3342  0.0016  0.2575
 2259W        W18153  11.153   0.987   2.921 -0.2031 -0.0509 -0.4256
 2260W        W18154  13.323   7.115   4.618  0.3273  0.3225 -0.2313
 2261W        W18155   1.153  18.270  13.459 -0.0512  0.4678  0.0851
 2262W        W18156  16.685  14.785   3.160 -0.0179  0.1272 -0.1123
 2263W        W18157  13.263  14.410   3.685  0.0314  0.1039 -0.0806
 2264W        W18158  17.178  15.464   3.727 -0.0123 -0.1739 -0.0224
 2265W        W18159  12.292   3.224   0.036  0.5087 -0.0813 -0.4507
 2266W        W18160   6.040   2.873   2.406 -0.0413  0.1058  0.2294
 2267W        W18161   3.618  16.965   0.688 -0.1188  0.0493 -0.1020
 2268W        W18162  14.335   7.824  13.022  0.1531 -0.2437  0.0357
 2269W        W18163  15.537  15.058  11.217  0.0780 -0.4197 -0.1883
 2270W        W18164  18.719   9.634  14.741  0.0235  0.3048  0.0198
 2271W        W18165   6.160   1.798  11.052 -0.1937 -0.0744  0.0723
 2272W        W18166   4.459   6.227  12.945  0.2571  0.1319  0.0073
 2273W        W18167  10.521   1.496  15.081 -0.0062 -0.0815 -0.0531
 2274W        W18168   2.234   9.055  13.661 -0.0719 -0.1405  0.2552
 2275W        W18169  13.165  10.571   3.541 -0.2634  0.0971 -0.2455
 2276W        W18170   2.220   4.261   5.643 -0.4263  0.1249  0.3154
 2277W        W18171   1.250   0.641   2.038  0.1262  0.2384  0.3047
 2278W        W18172  16.692   0.575   3.979 -0.3721 -0.0854 -0.3989
 2279W        W18173   1.782   3.731   1.031 -0.0521  0.1429  0.2500
 2280W        W18174  10.310  13.272  10.303 -0.3300 -0.0297 -0.2825
 2281W        W18175  17.815   5.429   0.923 -0.1869 -0.2574 -0.0673
 2282W        W18176   2.499   4.810  11.655  0.2092  0.2186  0.2630
 2283W        W18177   1.031  13.529  10.709 -0.2701  0.2337  0.1852
 2284W        W18178  18.478  18.913  11.218  0.3098 -0.2044  0.1745
 2285W        W18179  12.536   4.635  12.033 -0.3910 -0.4052  0.1759
 2286W        W18180   9.328  11.429  15.008  0.0391 -0.0195 -0.0753
 2287W        W18181  16.188  15.389   3.711 -0.2721  0.0762  0.0157
 2288W        W18182  14.755  10.831  11.464  0.2483  0.0656 -0.0253
 2289W        W18183   1.353   9.334   1.195 -0.0013  0.3364 -0.2554
 2290W        W18184   4.169  11.878  12.518  0.0319  0.0266 -0.4332
 2291W        W18185  13.292  11.798  13.840  0.2291  0.0323  0.1413
 2292W        W18186   0.217   7.469   5.355  0.0262 -0.0962  0.2366
 2293W        W18187  15.683   6.671   1.627 -0.0324  0.1412 -0.0339
 2294W        W18188  16.681   9.895   4.301 -0.1781  0.2775 -0.0036
 2295W        W18189  11.261   3.628  10.730  0.1229 -0.0657  0.1430
 2296W        W18190   2.569   5.050   4.506 -0.3551 -0.1340 -0.1710
 2297W        W18191   0.767   2.694   3.367  0.2269  0.0696 -0.3562
 2298W        W18192   5.204   0.105  12.286  0.0486 -0.0208 -0.3071
 2299W        W18193  10.277   8.922   1.930  0.0556  0.0000 -0.0041
 2300W        W18194  11.798  17.641   2.217  0.1156  0.1927  0.0076
 2301W        W18195   7.151  15.102   1.174 -0.0053  0.0925  0.2016
 2302W        W18196  13.469  12.539   1.700 -0.1156 -0.0809 -0.1545
 2303W        W18197  16.454  12.874  13.122 -0.2167  0.1769 -0.1409
 2304W        W18198   6.442   0.109  11.680  0.1623  0.2646 -0.2759
 2305W        W18199   8.761  10.040   2.835 -0.3694  0.1637  0.1148
 2306W        W18200  11.435   9.319   4.529  0.1354  0.1130 -0.0554
 2307W        W18201   5.347   2.908   4.395  0.2723 -0.0110 -0.0164
 2308W        W18202  11.297   5.999  12.954 -0.4115  0.0310 -0.1497
 2309W        W18203  12.926  17.566  12.529 -0.0318  0.0401  0.3436
 2310W        W18204  12.170  11.456  13.694  0.1333 -0.1645 -0.0961
 2311W        W18205  11.698  17.368   1.134 -0.2934  0.3086  0.1319
 2312W        W18206   7.945   3.783  14.729  0.0796 -0.1314 -0.1090
 2313W        W18207  16.182   3.855   0.035  0.1616 -0.0637  0.3796
 2314W        W18208   6.149   7.575   2.479 -0.2364 -0.0497 -0.0641
 2315W        W18209   6.868   1.582   2.005 -0.1561  0.2653  0.3424
 2316W        W18210   9.164   7.350   3.467  0.1222 -0.0565  0.5882
 2317W        W18211  15.165  13.990  10.270 -0.0983  0.0265  0.1272
 2318W        W18212  15.733   3.739  14.835 -0.0483  0.1399  0.2381
 2319W        W18213   1.992   4.969  13.346 -0.3387  0.0495  0.5182
 2320W        W18214   2.795  14.661  12.493 -0.2156  0.1234  0.0272
 2321W        W18215   7.297  14.151  12.595 -0.2932 -0.0978 -0.0865
 2322W        W18216  15.040  10.045  11.328 -0.1417 -0.2491 -0.3596
 2323W        W18217   1.379   5.758  11.731  0.0315 -0.1815  0.1598
 2324W        W18218   3.248   9.933   0.088 -0.2419  0.1705  0.2888
 2325W        W18219   0.628  11.042   0.813  0.2844  0.0593 -0.0423
 2326W        W18220   6.352   1.334  11.946  0.2532  0.1357  0.2981
 2327W        W18221  16.663   5.142  13.691 -0.2613 -0.4399  0.3691
 2328W        W18222   9.309  11.785  12.433  0.3108 -0.2587  0.1496
 2329W        W18223  16.968  16.163  11.713  0.1263 -0.0067 -0.1177
 2330W        W18224  10.679   2.474  11.621  0.0701 -0.2923  0.3668
 2331W        W18225   7.006   9.921  14.267  0.1727  0.0039  0.2157
 2332W        W18226   0.277   7.666  11.961  0.1350  0.0027  0.0929
 2333W        W18227   1.514  11.125   0.712  0.1709  0.0325  0.0687
 2334W        W18228  14.793   1.127  12.405  0.1551  0.0271 -0.2058
 2335W        W18229   2.177  19.049  12.936  0.1724 -0.1045  0.2842
 2336W        W18230  12.312   7.803  14.130  0.2302 -0.1157 -0.2235
 2337W        W18231   1.456  16.613   3.302 -0.0920 -0.1092  0.3037
 2338W        W18232  12.068   9.458  14.199  0.1124 -0.1608  0.2068
 2339W        W18233   7.246   4.116  13.877  0.1857 -0.1954 -0.0239
 2340W        W18234   6.042  13.448   5.076  0.2144 -0.1966 -0.0382
 2341W        W18235   2.621  13.526  13.696 -0.1443  0.3480 -0.0689
 2342W        W18236  15.311  12.676   2.827 -0.1778  0.0749 -0.2181
 2343W        W18237   0.574   4.623  13.191  0.1921 -0.3768  0.0125
 2344W        W18238   6.960  18.753  13.546  0.0886 -0.0473 -0.0617
 2345W        W18239   2.623  16.453  10.491  0.0984 -0.0494  0.1742
 2346W        W18240  18.092   8.840   3.587  0.1856  0.3772  0.1247
 2347W        W18241   7.016   8.760  10.874 -0.0244  0.0511 -0.0131
 2348W        W18242  10.386   2.823  15.026 -0.3251  0.0907 -0.0649
 2349W        W18243  19.106   5.056  15.086  0.4588  0.0269 -0.3432
 2350W        W18244   6.670  17.941   3.170 -0.0948 -0.2019  0.0574
 2351W        W18245  11.577   1.400  12.850  0.0286  0.0282 -0.5518
 2352W        W18246  15.529   3.834  11.581 -0.1692 -0.0591 -0.0497
 2353W        W18247   0.009   5.378   1.406  0.1912  0.0557 -0.1092
 2354W        W18248   5.909  14.650   3.504  0.1345 -0.0226  0.0001
 2355W        W18249   2.500  17.769   3.324  0.0484  0.0950  0.0076
 2356W        W18250  11.706  11.780  13.768  0.0120 -0.0731 -0.0705
 2357W        W18251  18.250  14.423   1.545  0.0305 -0.1837 -0.0158
 2358W        W18252   8.537  17.702  12.807  0.0586 -0.4143 -0.0906
 2359W        W18253  16.015   4.696   3.383  0.0998 -0.2168  0.2689
 2360W        W18254   0.574  10.857   4.649  0.1079  0.2650 -0.3690
 2361W        W18255   4.855   8.465  11.242 -0.0549  0.2207 -0.1747
 2362W        W18256   4.552  13.718   2.285  0.0845  0.0370  0.1025
 2363W        W18257   5.668   1.216   4.594  0.2374  0.1270  0.3125
 2364W        W18258  17.481   6.894   2.459 -0.0084 -0.1361  0.2279
 2365W        W18259   8.565   2.514  14.491 -0.2989  0.2380  0.2643
 2366W        W18260   7.457  12.910   0.098 -0.4353 -0.0720  0.4234
 2367W        W18261  11.021  13.665   3.082 -0.0219  0.2151  0.0566
 2368W        W18262  13.767   0.530   2.511 -0.3943 -0.0327  0.3603
 2369W        W18263  18.883   0.472   4.071  0.2211 -0.2833  0.0658
 2370W        W18264  16.235  11.307  11.958  0.0545  0.0455  0.1094
 2371W        W18265  11.357   5.782   2.289  0.1253 -0.1178  0.0422
 2372W        W18266   4.001   1.100   0.275  0.1617 -0.0952 -0.0707
 2373W        W18267   1.450   5.148   1.454  0.3132  0.0510  0.0261
 2374W        W18268  15.640   3.267   0.404 -0.0634 -0.2322  0.0495
 2375W        W18269   7.990  18.832  13.426  0.0345  0.1629  0.1297
 2376W        W18270   9.300  16.426  13.666  0.1581  0.2504 -0.0783
 2377W        W18271   1.787   8.750  13.506 -0.2206  0.0284  0.2331
 2378W        W18272   6.471   6.551  14.592  0.1978  0.0876  0.0101
 2379W        W18273   5.439  10.838  11.154 -0.0522 -0.1396 -0.0753
 2380W        W18274   2.811  10.257  13.656 -0.1198 -0.0346 -0.3072
 2381W        W18275  11.014  12.458  13.540 -0.2902 -0.2458  0.0384
 2382W        W18276  12.572  13.521   3.900 -0.1185 -0.1994  0.0615
 2383W        W18277  16.934  13.774   1.882 -0.1736  0.2281 -0.1808
 2384W        W18278   3.503   9.538  13.761 -0.2909 -0.1656  0.0650
 2385W        W18279  19.000  10.839  13.626 -0.0702  0.2187 -0.1094
 2386W        W18280  10.541   8.252  13.031  0.2235  0.0500  0.1581
 2387W        W18281  16.930  12.439  11.586  0.1537 -0.1910 -0.1306
 2388W        W18282   2.264  16.471  13.394  0.2670 -0.1820 -0.3125
 2389W        W18283   9.030  13.650  11.218  0.0384 -0.1279 -0.2495
 2390W        W18284  16.314  14.226   0.188 -0.1052  0.1839 -0.1475
 2391W        W18285   9.754   9.731  12.598  0.1326 -0.0015  0.0403
 2392W        W18286  12.119   2.220  14.379 -0.0145 -0.1699  0.1113
 2393W        W18287   5.102   7.465   3.929  0.4821 -0.0398  0.3159
 2394W        W18288   7.120  14.780   2.690 -0.0304 -0.0302  0.0079
 2395W        W18289   1.329  15.246   5.531  0.0627  0.1316  0.3292
 2396W        W18290  13.024  11.439   2.905 -0.0979  0.3910 -0.1398
 2397W        W18291   4.868  12.256  10.476  0.2502 -0.0426  0.2912
 2398W        W18292  11.105  15.632  14.392  0.0717 -0.0185 -0.1935
 2399W        W18293  11.976  16.433   3.154  0.0682  0.1536 -0.1748
 2400W        W18294  10.967   7.489  14.809  0.0180 -0.0921  0.1672
 2401W        W18295   4.311   6.607   2.203 -0.0797  0.0772 -0.1111
 2402W        W18296   0.110   1.574  14.698 -0.3967 -0.1818 -0.2552
 2403W        W18297   4.517  14.690  11.275 -0.0664  0.0692 -0.0045
 2404W        W18298   2.488  17.708   1.578  0.0215  0.4105 -0.1591
 2405W        W18299  10.953   9.072  13.014 -0.2454  0.0309  0.0050
 2406W        W18300  13.152  17.760   3.427 -0.0301 -0.1283  0.1683
 2407W        W18301  11.441   3.262  10.429 -0.0566  0.2057  0.0244
 2408W        W18302   9.994  11.829   3.125  0.0142  0.1943 -0.1843
 2409W        W18303   5.346   0.290   5.254 -0.2029 -0.1712  0.1505
 2410W        W18304  17.079   3.277  15.054  0.2445  0.0700  0.0841
 2411W        W18305  15.755   3.783   3.582  0.2743 -0.1156  0.1146
 2412W        W18306   9.654   9.779   5.771 -0.0566 -0.0584  0.3243
 2413W        W18307  11.451  13.677  12.808 -0.0415 -0.2713  0.0186
 2414W        W18308   3.263   7.871   2.493 -0.0278 -0.0498  0.3149
 2415W        W18309  16.756  15.946  14.843 -0.1195 -0.0065 -0.1928
 2416W        W18310  15.867  12.927   0.786  0.1137 -0.1436 -0.4278
 2417W        W18311  12.333   5.719  12.043  0.1212  0.0819  0.0679
 2418W        W18312  12.692  14.160  14.402  0.0127 -0.1094 -0.3150
 2419W        W18313   2.946  16.783   2.423 -0.1945  0.0273 -0.2414
 2420W        W18314  14.842   8.633  12.147 -0.0822 -0.1494  0.1003
 2421W        W18315  17.621  12.327  13.800  0.0413 -0.0318  0.0666
 2422W        W18316   0.391   6.922   2.325  0.4499 -0.1458 -0.0497
 2423W        W18317  14.520   7.427   4.401  0.0700 -0.0433  0.0738
 2424W        W18318   8.424   5.746  13.061 -0.0887  0.1308  0.1541
 2425W        W18319  15.738  11.840   5.495  0.1199  0.0417  0.1235
 2426W        W18320   6.083  16.541  12.652  0.0504  0.0181  0.1532
 2427W        W18321   5.550   4.990  12.909  0.0505 -0.1361 -0.3198
 2428W        W18322  17.170   2.268   5.349  0.3323 -0.1374 -0.1618
 2429W        W18323   0.589   3.358  14.333 -0.0610 -0.0931 -0.1205
 2430W        W18324   1.402   3.792  13.187  0.1720 -0.0172  0.0376
 2431W        W18325   7.816  10.802  12.660 -0.0166  0.1379 -0.1883
 2432W        W18326  11.193   6.228  12.515  0.0119  0.3337  0.3030
 2433W        W18327  14.996   6.758   4.624  0.1635  0.2509 -0.1186
 2434W        W18328   1.835  10.007   0.027  0.1055 -0.1904 -0.0256
 2435W        W18329  15.946  18.673  11.637  0.2443 -0.1787  0.1622
 2436W        W18330   4.849   4.618  11.330  0.0310  0.1896 -0.1871
 2437W        W18331  12.693  17.828   3.857 -0.0489  0.2682  0.2098
 2438W        W18332  18.932   5.479   2.725  0.0481 -0.2087 -0.2317
 2439W        W18333   5.690  18.529   5.122  0.0634 -0.0862 -0.3449
 2440W        W18334   9.994  18.111  14.442 -0.1255  0.1619 -0.0139
 2441W        W18335  17.022  17.430  14.711 -0.0868 -0.3578 -0.1491
 2442W        W18336   4.966  12.043  11.741 -0.3641 -0.2775 -0.0450
 2443W        W18337  12.240  10.568  10.841 -0.3097 -0.2366 -0.2525
 2444W        W18338  12.768  12.178  11.658 -0.4337 -0.0062 -0.2579
 2445W        W18339   8.523  10.525  10.306 -0.1904  0.1564 -0.2358
 2446W        W18340   5.094   6.313   3.552  0.1423  0.0502 -0.2192
 2447W        W18341   8.553   6.800   3.674 -0.1803  0.1347  0.1524
 2448W        W18342  16.348  19.089   3.458  0.3644  0.0552  0.0419
 2449W        W18343   0.410  17.432  10.557 -0.2758  0.0709  0.1870
 2450W        W18344   3.019   7.085  13.803 -0.3934  0.0010  0.0090
 2451W        W18345   3.637  14.691   2.632 -0.0897  0.0834  0.3791
 2452W        W18346   2.833   6.488   1.086  0.5562  0.2259  0.0822
 2453W        W18347  15.038  10.637   3.144 -0.0457 -0.2083 -0.1340
 2454W        W18348  10.900   8.893   2.243 -0.0671 -0.0504 -0.1436
 2455W        W18349   0.426  12.313   2.788 -0.0046 -0.1557  0.2055
 2456W        W18350  18.418   0.332  13.413 -0.0421  0.4383 -0.2121
 2457W        W18351   1.604  18.439  12.458  0.2995 -0.4682 -0.3057
 2458W        W18352   5.555  14.174   1.714 -0.2054  0.0177  0.2179
 2459W        W18353  19.147   0.723   0.160 -0.3177 -0.1837  0.1658
 2460W        W18354   1.982   6.795   2.863  0.0367 -0.1789 -0.0325
 2461W        W18355   0.326  16.463   2.428 -0.1825  0.2887  0.0458
 2462W        W18356   3.016   3.942   1.395 -0.1808 -0.0175 -0.2802
 2463W        W18357  11.506  15.878   1.054 -0.1512 -0.0845  0.1254
 2464W        W18358   2.664   1.612   0.106 -0.2858  0.0088 -0.0400
 2465W        W18359   6.819   8.865  14.691 -0.0428 -0.1215 -0.5449
 2466W        W18360  17.950  13.558  12.363  0.1685  0.0620 -0.1294
 2467W        W18361   0.475  16.469  14.006 -0.0300 -0.0158 -0.0723
 2468W        W18362   3.273  18.230   3.621  0.2051 -0.2418 -0.0065
 2469W        W18363   8.570   5.349  10.875 -0.1676 -0.5324 -0.0384
 2470W        W18364   9.041  18.718  14.920  0.0170 -0.1041  0.0662
 2471W        W18365   9.579  10.564  14.564 -0.2832 -0.1713 -0.0485
 2472W        W18366   7.953  18.174   2.518 -0.0797 -0.2402  0.2256
 2473W        W18367   1.623   9.063   3.020  0.0439 -0.2755  0.3009
 2474W        W18368  14.178   0.635   3.389  0.2976  0.3077  0.3750
 2475W        W18369   3.489   3.159   1.027 -0.0461  0.1296 -0.2517
 2476W        W18370  13.510   5.059   4.454 -0.0296 -0.0608 -0.1347
 2477W        W18371  17.641   4.904   0.121  0.3106  0.2669  0.1096
 2478W        W18372  17.030   6.674   5.059 -0.1809 -0.0925  0.0616
 2479W        W18373  16.302   6.763   2.670 -0.1705 -0.0946 -0.3125
 2480W        W18374  16.652  11.982  12.035 -0.0430  0.3902  0.0428
 2481W        W18375   8.001  14.328  11.283  0.1363 -0.0745 -0.3150
 2482W        W18376   2.814   8.052   3.810  0.1281 -0.0858 -0.3324
 2483W        W18377   5.909   8.161   1.098 -0.1913 -0.1501  0.2291
 2484W        W18378  15.358  11.450  12.972  0.0739  0.0630 -0.0190
 2485W        W18379  14.068   8.360  14.491 -0.2277 -0.3219  0.1198
 2486W        W18380  16.348   5.208   5.255  0.0987 -0.2178  0.0110
 2487W        W18381  10.194  18.754   2.035 -0.0018  0.1696 -0.3493
 2488W        W18382  16.319  13.983  12.168 -0.0704 -0.1925 -0.2231
 2489W        W18383  17.996   3.764   5.925  0.0088  0.0100 -0.2797
 2490W        W18384   3.882  16.866   2.576 -0.0350 -0.2342  0.0486
 2491W        W18385   4.982   5.724   2.407  0.0510 -0.2145  0.0650
 2492W        W18386   3.572  16.163  14.126 -0.1531 -0.0885 -0.2663
 2493W        W18387   6.336   9.721  11.798 -0.2272  0.4620 -0.4297
 2494W        W18388   8.432   4.012  13.441  0.0017 -0.2742  0.0974
 2495W        W18389  10.848   4.046   3.785  0.3764  0.0466  0.0243
 2496W        W18390  17.990   5.983   4.542 -0.0488 -0.1569  0.0623
 2497W        W18391  14.428   0.684  12.141  0.1062 -0.1213  0.1873
 2498W        W18392  13.249  10.005  14.071  0.2182 -0.2699  0.0561
 2499W        W18393   5.280  16.288   5.358 -0.2182 -0.2156  0.0403
 2500W        W18394  16.842  18.582  14.268  0.0346 -0.2460  0.0850
 2501W        W18395  13.356  11.724  10.022  0.2821 -0.1634 -0.0360
 2502W        W18396  10.161  17.343   5.152  0.1373 -0.2818  0.2609
 2503W        W18397   1.870  14.988   3.202 -0.6273 -0.0668  0.0529
 2504W        W18398  12.262   9.847   5.737  0.1410 -0.3586 -0.0793
 2505W        W18399  13.949   9.026   4.933 -0.1847 -0.0287 -0.0414
 2506W        W18400   4.028  16.394   1.096 -0.2045  0.2012  0.1633
 2507W        W18401   3.655  18.583   0.369 -0.0603 -0.0274 -0.0053
 2508W        W18402  14.177   2.615  14.722  0.3159  0.3921  0.4902
 2509W        W18403  15.669   4.729   5.183  0.1192  0.2878  0.1526
 2510W        W18404  16.309  13.002   3.534  0.1607  0.2351 -0.0151
 2511W        W18405   1.272   5.641   1.731 -0.0939 -0.3722  0.1844
 2512W        W18406  17.219  10.643  13.597  0.0804  0.0718  0.1490
 2513W        W18407   5.454   9.970  13.787 -0.0625  0.1304 -0.0800
 2514W        W18408   4.670  14.375   4.067 -0.0388 -0.2024  0.2218
 2515W        W18409   9.000   7.700  13.176  0.0965 -0.1583  0.2605
 2516W        W18410  18.918  17.131  13.819  0.2721  0.2304  0.0260
 2517W        W18411  16.103  17.736   0.603 -0.0236  0.0641 -0.1001
 2518W        W18412   1.609   7.355  10.985 -0.1044 -0.2613  0.1437
 2519W        W18413  17.037  10.663  14.965  0.0719 -0.1836  0.0983
 2520W        W18414  14.933   1.299   1.871  0.0192  0.1006 -0.0037
 2521W        W18415  18.925  11.175   0.659  0.0651 -0.1697 -0.0802
 2522W        W18416  14.561   8.017  10.194  0.0853 -0.2119  0.0944
 2523W        W18417   3.392   1.561   3.955 -0.2178 -0.3898 -0.1731
 2524W        W18418  10.474  12.531  12.538 -0.2075  0.0718  0.1892
 2525W        W18419   5.926  17.066  15.091 -0.1160 -0.1098  0.2974
 2526W        W18420   1.975  18.436  13.634 -0.1475 -0.2575  0.4137
 2527W        W18421   9.082  15.690   4.074 -0.0991  0.3422 -0.1827
 2528W        W18422  12.491  19.027   0.701  0.0282  0.0166 -0.1248
 2529W        W18423  18.589  10.241  13.118  0.0805 -0.0827  0.1664
 2530W        W18424   0.362  18.540   0.948  0.0528  0.0028  0.1201
 2531W        W18425   1.245   6.064  14.512 -0.0410  0.0237  0.0695
 2532W        W18426  13.920  17.250  15.092  0.3542  0.1668  0.0203
 2533W        W18427   1.307   9.428  11.177  0.3134  0.0456 -0.2266
 2534W        W18428   3.585   0.737  11.266 -0.3588 -0.0295  0.0858
 2535W        W18429  16.080   2.148  10.951  0.0683  0.3610  0.0387
 2536W        W18430  13.665   0.211  12.584 -0.0341  0.1143 -0.3469
 2537W        W18431   9.609  12.767   4.645 -0.0735  0.1839  0.1044
 2538W        W18432  11.333  15.108  12.321 -0.1877  0.2711  0.0903
 2539W        W18433   2.299  16.551   0.600 -0.0446  0.5844 -0.1177
 2540W        W18434   1.094   9.757  13.266 -0.1151 -0.6575 -0.0449
 2541W        W18435  16.243   6.265  14.836 -0.0287  0.1388  0.2401
 2542W        W18436   3.740   0.288   4.279  0.0749  0.0988  0.3700
 2543W        W18437   8.115   0.971  13.015  0.0832 -0.3520 -0.1782
 2544W        W18438  16.892   7.170   5.171 -0.3373 -0.0541 -0.1110
 2545W        W18439  12.120   2.177  12.944  0.0634  0.0718 -0.0717
 2546W        W18440  12.063   8.416   4.338 -0.1755 -0.0255 -0.0364
 2547W        W18441  17.523  11.517   4.468  0.1170 -0.0695  0.3160
 2548W        W18442  10.449   2.299   2.572  0.2428 -0.1338 -0.2155
 2549W        W18443   9.837   4.837  11.359  0.0752  0.1944 -0.5217
 2550W        W18444  16.720  16.427  10.878 -0.1315  0.0050  0.1268
 2551W        W18445   5.842  10.244   1.444 -0.2233 -0.3910 -0.0412
 2552W        W18446   6.101  10.753  14.996  0.2914  0.2721  0.0788
 2553W        W18447   5.438   3.679  12.422  0.0473  0.5703  0.1614
 2554W        W18448   4.979   3.560   4.119  0.1456  0.0666 -0.1128
 2555W        W18449   0.538  13.777  10.663  0.0863  0.1527 -0.0817
 2556W        W18450   2.140  18.507  12.540  0.0953  0.0839  0.2625
 2557W        W18451  16.127   3.262  11.810 -0.0942 -0.1464  0.0977
 2558W        W18452   8.519  10.283  14.753  0.0467  0.2374 -0.1432
 2559W        W18453   3.356   8.027  13.514  0.0301  0.2033 -0.0819
 2560W        W18454  12.315  15.780  13.827  0.0866  0.3531 -0.2149
 2561W        W18455   8.512  15.559  10.266 -0.1522  0.2262  0.2137
 2562W        W18456   0.087   3.244  12.713 -0.0526  0.4553 -0.3042
 2563W        W18457   8.062  17.272  14.164 -0.1148 -0.3193  0.1256
 2564W        W18458  18.502   7.840   4.935 -0.0744 -0.1009 -0.1046
 2565W        W18459   0.600  10.519   2.765  0.3059  0.1311  0.1043
 2566W        W18460   4.953  13.022   5.158 -0.0426 -0.2893 -0.2202
 2567W        W18461   4.591   4.691  14.604  0.1025  0.1426 -0.1309
 2568W        W18462   5.376  13.938  14.993  0.2628  0.0356 -0.1389
 2569W        W18463   8.595  16.021  12.025  0.4970 -0.3549 -0.4839
 2570W        W18464  18.463   9.617  12.868  0.0914 -0.0023  0.2508
 2571W        W18465   3.897   5.252  14.596  0.0591  0.1667  0.4072
 2572W        W18466   5.036   4.357   4.525 -0.0743  0.0455 -0.1147
 2573W        W18467   3.556   6.615   1.800  0.2714  0.3920 -0.1385
 2574W        W18468  15.856   5.409  13.405 -0.0512  0.0073 -0.2197
 2575W        W18469   9.254   3.767   1.742  0.0883 -0.0942 -0.5045
 2576W        W18470  17.490  15.101   5.823 -0.1072  0.2416 -0.2629
 2577W        W18471   9.752  13.430   0.521  0.0143 -0.1392  0.0252
 2578W        W18472  19.098  11.489   9.752 -0.0510 -0.1324 -0.1513
 2579W        W18473   0.067  19.105   4.837  0.2041  0.1106 -0.1474
 2580W        W18474  14.628  13.891  11.604  0.1499  0.3401 -0.1317
 2581W        W18475  14.210  10.878  12.115 -0.1291 -0.3769 -0.4170
 2582W        W18476  15.891   4.323   1.246 -0.1265  0.0543  0.3132
 2583W        W18477  14.259  16.777  11.096 -0.2140  0.1596 -0.1109
 2584W        W18478  15.615  14.351  10.534  0.1800 -0.3004  0.0560
 2585W        W18479   6.495  16.849  12.681  0.3467 -0.1669  0.0900
 2586W        W18480   9.634   7.361  10.612 -0.1396  0.0322  0.0596
 2587W        W18481   2.660   2.657   0.927  0.4112 -0.1064 -0.1265
 2588W        W18482   6.697  11.913   2.898 -0.1749 -0.0629  0.0565
 2589W        W18483  12.186   5.412   1.159  0.0969 -0.1182  0.1101
 2590W        W18484   5.315  11.599   2.567 -0.1078  0.1136  0.0684
 2591W        W18485  11.422  13.599  13.590  0.0684  0.2918  0.3300
 2592W        W18486   0.275   5.180  13.922  0.0637  0.1495  0.1536
 2593W        W18487   1.081   3.591   3.392 -0.0875 -0.1710 -0.0318
 2594W        W18488  12.269  12.132   2.962  0.1899 -0.0380 -0.2929
 2595W        W18489   4.322  13.087   1.855  0.0578  0.1531  0.0971
 2596W        W18490  14.153  14.357  10.896 -0.1317  0.0949 -0.0686
 2597W        W18491   4.707   9.700   3.721  0.1308  0.2475 -0.1192
 2598W        W18492   3.985   3.167   0.235 -0.1349 -0.0958 -0.3667
 2599W        W18493  16.319  17.039   0.063  0.1184 -0.1516 -0.2808
 2600W        W18494  15.640  15.756   0.362  0.0739 -0.2779 -0.1122
 2601W        W18495   3.131   7.248  10.094 -0.0318  0.1760 -0.1218
 2602W        W18496  18.436   5.059   4.498 -0.0045 -0.0383 -0.1121
 2603W        W18497   2.678  11.475   4.513  0.0014 -0.2439 -0.0641
 2604W        W18498   7.656   4.599   5.198  0.2011  0.0076  0.1155
 2605W        W18499  12.086  10.001   5.094  0.2110  0.2975  0.0519
 2606W        W18500  16.207  15.896  14.054  0.2659  0.2266  0.0766
 2607W        W18501   2.874   5.789  12.066  0.1208  0.0697 -0.0190
 2608W        W18502   4.067   2.368  10.122  0.0902 -0.0777 -0.1773
 2609W        W18503  18.109  10.684   2.818 -0.2755  0.1454 -0.1680
 2610W        W18504  10.854   8.745  10.580  0.1773  0.2543  0.0058
 2611W        W18505  18.017   7.083  15.038  0.0750 -0.1804 -0.4108
 2612W        W18506  10.856   4.109  14.506 -0.0367  0.0671  0.0720
 2613W        W18507  14.394   4.392  14.877 -0.1054 -0.0744  0.1822
 2614W        W18508  18.997   7.211   1.381 -0.0603  0.0685 -0.0290
 2615W        W18509  17.948  16.481   2.507  0.0207  0.1948  0.1574
 2616W        W18510  16.860   0.429   3.054 -0.0632 -0.0699  0.0515
 2617W        W18511   8.389   0.923  10.381  0.4068  0.0669 -0.0860
 2618W        W18512  17.453   5.185   5.846  0.2538 -0.0396 -0.2392
 2619W        W18513  17.404   6.322   0.304 -0.5810  0.0342 -0.2080
 2620W        W18514   4.543  11.855   0.802  0.1741 -0.2497 -0.3577
 2621W        W18515   5.972  13.823   1.946 -0.0507  0.2879  0.0423
 2622W        W18516   8.533   3.227  10.801 -0.3402 -0.1340 -0.0176
 2623W        W18517  13.006  12.176  11.200 -0.1455  0.1283 -0.2243
 2624W        W18518  13.077   0.421   0.857 -0.0849  0.1243  0.1127
 2625W        W18519   4.410  15.887  12.029 -0.0193  0.1656  0.0328
 2626W        W18520   8.230  10.953   3.261 -0.0796 -0.3643 -0.2892
 2627W        W18521  12.854  17.356  14.325 -0.1803  0.2049  0.1828
 2628W        W18522  12.586   1.026  13.424 -0.1335 -0.0620  0.0792
 2629W        W18523   6.694   1.496   2.582  0.3662  0.1245  0.2245
 2630W        W18524  17.178   6.704  10.687  0.0308 -0.3062 -0.1704
 2631W        W18525   9.702  14.429   3.506 -0.1731 -0.2852 -0.0483
 2632W        W18526  12.078   8.280   1.507  0.0035 -0.2791 -0.0979
 2633W        W18527   5.660  17.291   5.007  0.2857 -0.0255  0.3022
 2634W        W18528   6.471  17.919   4.145  0.1289 -0.1531 -0.1656
 2635W        W18529   9.813  13.405  10.266  0.1575 -0.2813 -0.1878
 2636W        W18530   4.224  12.353   2.109 -0.0569  0.2282  0.2850
 2637W        W18531  18.530  10.541   9.163  0.0010 -0.0063 -0.0340
 2638W        W18532   0.775   5.121  13.498  0.1069 -0.0734  0.1662
 2639W        W18533   2.503  15.335   1.382  0.3598 -0.1752  0.0774
 2640W        W18534   2.229  16.064   1.876  0.0541 -0.1409  0.1899
 2641W        W18535   7.610   7.136   3.182  0.1806 -0.2220 -0.1073
 2642W        W18536   7.227  13.589  13.193  0.0367 -0.2933  0.1506
 2643W        W18537   2.856   5.753   2.572  0.3578  0.0866 -0.3472
 2644W        W18538  10.778   9.734   4.946  0.0828  0.1981  0.1663
 2645W        W18539  10.222   6.310   4.720 -0.3049  0.3415 -0.2420
 2646W        W18540   4.662   7.142  12.349  0.0429 -0.0431  0.2305
 2647W        W18541   2.486  12.765   5.201 -0.1125  0.0659 -0.2181
 2648W        W18542  19.002  14.328   4.797  0.1319  0.1218  0.3448
 2649W        W18543  18.081   7.589  12.646 -0.1586  0.0687  0.1189
 2650W        W18544  16.633  15.392  10.368 -0.1802  0.1013 -0.1246
 2651W        W18545   2.876   7.990  13.736 -0.2834 -0.0354  0.2916
 2652W        W18546  14.287  13.460   1.420  0.0134 -0.0337 -0.4260
 2653W        W18547   6.302  12.259   1.477 -0.2687  0.1800  0.0832
 2654W        W18548   4.335   7.140   4.357  0.0815  0.4427  0.0755
 2655W        W18549   6.353  15.690  14.987 -0.2145 -0.1759  0.0576
 2656W        W18550   8.662  12.630  14.259 -0.2696 -0.0865  0.3045
 2657W        W18551  18.789  17.843  14.968 -0.2222 -0.0138 -0.3128
 2658W        W18552  18.641   3.656  13.735 -0.1477 -0.5076  0.6700
 2659W        W18553  18.872  18.162  13.675 -0.5355 -0.1226 -0.0389
 2660W        W18554  13.870   7.716   5.045  0.1392  0.0660 -0.3761
 2661W        W18555  15.789  14.913   4.386  0.0311 -0.2611 -0.2803
 2662W        W18556   7.695  16.557  13.053 -0.1455  0.0565  0.1392
 2663W        W18557   2.950  18.887  14.663  0.0806 -0.1110 -0.0500
 2664W        W18558  11.635  16.957  13.110  0.0904 -0.1226 -0.2582
 2665W        W18559  13.639   7.088   0.053 -0.1930  0.0112 -0.0266
 2666W        W18560  17.372   1.482  12.198 -0.1295  0.3909 -0.0898
 2667W        W18561   5.890  11.041   2.857 -0.0695  0.1460  0.1455
 2668W        W18562   9.907  11.625   9.450  0.1682  0.1252 -0.0722
 2669W        W18563  13.232   6.128  12.389 -0.0403  0.4275  0.3537
 2670W        W18564   7.080   7.677  13.901  0.0018 -0.0282 -0.2083
 2671W        W18565   5.896  11.034  14.512  0.4643  0.0321 -0.1132
 2672W        W18566  13.730   9.708   0.598  0.1727  0.0625 -0.0560
 2673W        W18567   5.619  14.015  12.731  0.2368  0.1192  0.2742
 2674W        W18568   2.048   0.809   0.551 -0.1109  0.2761  0.0751
 2675W        W18569   3.854  12.293   3.524  0.1095  0.1828 -0.1690
 2676W        W18570  18.126   3.645   1.939  0.1806 -0.1037  0.1556
 2677W        W18571   8.877  11.808   4.118 -0.0853  0.1507 -0.1719
 2678W        W18572   1.777   3.790   2.679  0.2854  0.1528 -0.0492
 2679W        W18573   8.627   5.510   4.878  0.2679  0.0172  0.0482
 2680W        W18574  15.625   1.029  14.414 -0.1189 -0.2193 -0.0363
 2681W        W18575  13.018   9.831  13.143  0.1148 -0.2081  0.0315
 2682W        W18576  16.446  15.896  10.395  0.2263  0.0348  0.1236
 2683W        W18577   8.338   4.508   4.165 -0.1251 -0.2719 -0.1860
 2684W        W18578  12.182  12.729  13.730  0.2225 -0.0471  0.0923
 2685W        W18579   2.176   7.885   0.691 -0.2680 -0.1869  0.0090
 2686W        W18580  12.629   8.757  13.849 -0.2139  0.0262 -0.1036
 2687W        W18581  12.025  12.152   3.544  0.0618  0.5626 -0.0800
 2688W        W18582   4.645  10.419  14.197  0.1081 -0.1607  0.0583
 2689W        W18583  18.116  18.573   4.448  0.0739 -0.2423 -0.3051
 2690W        W18584  18.433   8.395  12.607 -0.1624  0.0217  0.1999
 2691W        W18585  15.091   5.586   1.922 -0.0201 -0.0277 -0.2126
 2692W        W18586  12.444  10.876   0.893  0.1183  0.4270  0.0475
 2693W        W18587   7.582   9.299   5.100  0.2021  0.2256 -0.2654
 2694W        W18588  11.780  11.870   2.116  0.2076  0.3383  0.1272
 2695W        W18589   1.947   6.304  10.997 -0.0842  0.1434  0.2146
 2696W        W18590  17.270   0.598  11.531 -0.0848  0.0647 -0.2892
 2697W        W18591   2.626  14.929   0.062 -0.3729  0.0338 -0.2225
 2698W        W18592  11.285  15.210  10.579 -0.3507  0.1708  0.1045
 2699W        W18593   9.522  11.541   2.869 -0.0394 -0.1130  0.4544
 2700W        W18594   4.374   1.635  13.522 -0.0300 -0.3109  0.0855
 2701W        W18595   0.740  15.950  14.115  0.1403 -0.1068  0.2228
 2702W        W18596   4.324   9.032  13.745 -0.1053 -0.0300  0.3264
 2703W        W18597   9.197   6.856   1.778 -0.4599  0.1335  0.1077
 2704W        W18598   5.822   2.504   2.061 -0.0682 -0.2584 -0.3081
 2705W        W18599  13.915  10.422   0.486 -0.0226 -0.0517  0.0285
 2706W        W18600  11.315   1.045  14.725 -0.2955 -0.1298  0.2479
 2707W        W18601   6.603  10.773   4.150  0.0704 -0.1050  0.1753
 2708W        W18602  16.390  18.414  14.243 -0.0390  0.4619  0.1905
 2709W        W18603   3.931   4.436   1.242 -0.3982 -0.3317 -0.3509
 2710W        W18604  10.458   2.513  11.122  0.0245 -0.1479  0.0605
 2711W        W18605   1.849  18.824  12.098 -0.1021  0.1732  0.0836
 2712W        W18606   1.676  17.947  12.430  0.2335 -0.2636 -0.2897
 2713W        W18607  15.753   1.440  11.965 -0.1707 -0.0407  0.0008
 2714W        W18608  18.624  13.812   3.929 -0.0589 -0.2253 -0.2528
 2715W        W18609  10.397   9.096   2.390  0.1091 -0.1078 -0.0752
 2716W        W18610   1.126   9.852  14.318 -0.3248 -0.0345  0.1210
 2717W        W18611  13.570  18.846   2.995 -0.0220  0.1498  0.3924
 2718W        W18612   7.241  17.712  10.717  0.2875 -0.0298  0.1402
 2719W        W18613  11.723   4.967   1.453 -0.0485  0.3805  0.1933
 2720W        W18614   0.761  16.396  11.356 -0.2483 -0.1723 -0.4200
 2721W        W18615   5.873  16.387   2.411 -0.0471  0.1466  0.2576
 2722W        W18616  18.722   8.108   4.531  0.2180 -0.0253  0.1378
 2723W        W18617  15.429   6.288   4.079  0.0919 -0.3312  0.1699
 2724W        W18618   9.921   4.450   4.661  0.0274  0.2262 -0.2051
 2725W        W18619  16.039   4.243   5.917 -0.1180  0.3073  0.0004
 2726W        W18620   1.147   8.085   0.530 -0.0336  0.3234  0.0343
 2727W        W18621   2.974   1.902  14.558 -0.1804  0.0171  0.2795
 2728W        W18622  17.120   9.165   4.837 -0.2088 -0.0286  0.4212
 2729W        W18623  10.482  12.653   0.517 -0.0254 -0.4298  0.0407
 2730W        W18624  13.097   9.951  10.394 -0.0578  0.1416  0.0286
 2731W        W18625   7.459   2.558  10.701  0.2540  0.1279  0.1613
 2732W        W18626   1.703   4.009   3.483  0.0524  0.3630 -0.1193
 2733W        W18627  15.997  18.960   1.869 -0.2493 -0.2692 -0.5584
 2734W        W18628  10.975  10.306   4.594 -0.0952  0.0049  0.0704
 2735W        W18629   7.587  10.557   3.946  0.0090  0.1328 -0.1197
 2736W        W18630   6.788   8.243   0.837 -0.3918  0.1132 -0.0080
 2737W        W18631  11.100   7.463  14.026  0.1602 -0.0724  0.0412
 2738W        W18632   5.978   8.265   3.817  0.2737 -0.4432 -0.2591
 2739W        W18633  15.182  11.172   0.069  0.1374  0.3590 -0.1473
 2740W        W18634  12.250   6.864  13.279 -0.2454 -0.3332  0.1265
 2741W        W18635  16.116   9.282   5.185 -0.0344  0.2918  0.1202
 2742W        W18636  12.691  12.270   4.471  0.0100  0.1644  0.2962
 2743W        W18637   6.086  16.954   0.958 -0.0892 -0.3241 -0.0809
 2744W        W18638   0.037  16.789   3.332  0.0360 -0.0447 -0.4047
 2745W        W18639   8.036   1.411   5.452 -0.0567 -0.0121 -0.0227
 2746W        W18640  17.817   6.010   1.837  0.2289 -0.0047  0.0340
 2747W        W18641  18.464   7.569   4.386  0.2649 -0.0970  0.0268
 2748W        W18642  14.732  14.373  10.965 -0.2032 -0.3648  0.0467
 2749W        W18643  14.147  12.736  14.985 -0.0131 -0.0930 -0.2513
 2750W        W18644  13.987   0.592   5.604 -0.4032  0.2527  0.5031
 2751W        W18645  11.079   6.972   1.965 -0.0602  0.0248 -0.0081
 2752W        W18646   9.191  14.723  14.426 -0.2429  0.1574 -0.1553
 2753W        W18647   1.888  16.185   4.991 -0.0924  0.3090  0.0682
 2754W        W18648   7.810   8.438  13.853 -0.0110  0.2683 -0.2033
 2755W        W18649  16.741  18.459  13.083 -0.4709  0.1129 -0.1135
 2756W        W18650   5.482  13.423  14.880  0.2352 -0.3546  0.2071
 2757W        W18651  11.915  16.859  10.498  0.1049 -0.0058 -0.0658
 2758W        W18652   3.350   1.112   4.621 -0.0639  0.0113  0.0323
 2759W        W18653  17.802  14.883  13.883  0.0823  0.0488 -0.0405
 2760W        W18654  14.169   1.067   3.139  0.1528 -0.0577  0.0335
 2761W        W18655   2.323  15.548  12.447  0.3672 -0.1538  0.0302
 2762W        W18656  14.064   5.964   3.914 -0.0289 -0.0803  0.3717
 2763W        W18657   6.216  10.548   1.572  0.1547 -0.2368 -0.0879
 2764W        W18658  10.184   2.800  13.671  0.0200 -0.2995 -0.1012
 2765W        W18659  13.210  10.081  12.514 -0.3248 -0.0948 -0.2049
 2766W        W18660   5.386   1.707   0.469  0.0115  0.0745 -0.3142
 2767W        W18661   0.755  17.615   1.611  0.1342 -0.1372 -0.1597
 2768W        W18662  13.995  17.490   5.156  0.3404  0.1381  0.2504
 2769W        W18663  18.888  11.027   2.326 -0.0709  0.0360 -0.1944
 2770W        W18664   8.187   5.157   1.853 -0.1138 -0.2725  0.3497
 2771W        W18665  15.464   3.600  14.343 -0.0241  0.2393 -0.0395
 2772W        W18666  11.608   8.212   2.324  0.1420 -0.2964 -0.3408
 2773W        W18667  11.851  18.327  11.529  0.0208  0.0611  0.0449
 2774W        W18668  16.880  11.584   1.559 -0.1048  0.1921 -0.0045
 2775W        W18669   8.690   3.914  13.863 -0.0780 -0.1055 -0.3350
 2776W        W18670  12.419  18.212  14.333  0.2132  0.1807 -0.0111
 2777W        W18671   1.095  11.143   1.074  0.3053  0.2028 -0.0709
 2778W        W18672   9.585   1.919  11.054 -0.0359  0.1251  0.0753
 2779W        W18673  12.082   3.428   9.112 -0.0854  0.1098  0.0953
 2780W        W18674   4.242   5.267   1.380  0.2077  0.1313  0.2173
 2781W        W18675   1.586  15.870   4.578 -0.2204  0.2500  0.0292
 2782W        W18676   8.508   5.817   1.144  0.3906  0.0434 -0.4579
 2783W        W18677  15.359  11.408   1.461 -0.0464  0.0278 -0.0011
 2784W        W18678  18.168  17.248   0.264  0.0436  0.1850  0.0087
 2785W        W18679   5.591   3.155   4.812 -0.0378 -0.1422 -0.1723
 2786W        W18680   9.275  18.616  11.583  0.1079 -0.0397  0.0484
 2787W        W18681  13.051  14.157  14.053  0.2456 -0.0423  0.4075
 2788W        W18682  13.222  10.189  10.812  0.3349 -0.3472 -0.0948
 2789W        W18683   2.500   0.982   5.656  0.1120 -0.1364 -0.0511
 2790W        W18684  13.128   7.314  12.805  0.3768 -0.1058 -0.1807
 2791W        W18685   0.548   0.879   2.737  0.0022 -0.2349  0.0888
 2792W        W18686  12.534   5.712   0.801  0.0481 -0.1552 -0.1453
 2793W        W18687   9.474  15.802  10.301  0.2082 -0.0124  0.1676
 2794W        W18688   6.605  14.168   9.796  0.0142 -0.0587 -0.1168
 2795W        W18689   3.694   5.656  12.209 -0.1504 -0.1807  0.1159
 2796W        W18690   3.490   3.087   4.093  0.2253 -0.1569 -0.3450
 2797W        W18691  17.943  18.854   0.016  0.2070 -0.1561 -0.0154
 2798W        W18692  18.590  19.210  11.593 -0.3077  0.0798  0.0462
 2799W        W18693  17.022  13.713   3.472 -0.3738  0.0974  0.0236
 2800W        W18694   5.393   6.692   2.810  0.0042  0.2682  0.0975
 2801W        W18695  16.720  13.392   3.730  0.2225 -0.1495 -0.1060
 2802W        W18696  14.614   5.742  11.004  0.1543  0.1283  0.2404
 2803W        W18697  18.833  18.273  14.632  0.0914  0.2275 -0.3902
 2804W        W18698   9.855  11.910  11.053  0.1290 -0.0365 -0.0442
 2805W        W18699  16.096  13.124  12.871  0.0798  0.1354  0.1439
 2806W        W18700  15.533  18.735   4.057 -0.0277 -0.1220 -0.0272
 2807W        W18701  11.000   9.662  10.774 -0.3151 -0.2884 -0.1807
 2808W        W18702   0.036  15.122   1.347 -0.0580  0.1226 -0.1597
 2809W        W18703   6.981   8.992  13.755 -0.4753  0.0989 -0.1746
 2810W        W18704   8.286   4.628   1.957  0.2674  0.4217 -0.0939
 2811W        W18705   6.807   5.942   5.423  0.1344 -0.3022  0.0246
 2812W        W18706   2.601   6.287   3.171  0.0930 -0.3646  0.2122
 2813W        W18707  14.194   6.824   1.019  0.4042  0.4763 -0.0496
 2814W        W18708   8.465   8.905   0.330 -0.1367  0.1635  0.0741
 2815W        W18709   8.009  15.193   1.309  0.5361 -0.0818 -0.4018
 2816W        W18710   6.691   2.650   0.479  0.2169  0.1440  0.0993
 2817W        W18711   5.562   8.702   1.037 -0.1586  0.3920  0.0696
 2818W        W18712   4.063  12.853  14.211  0.1369 -0.3680 -0.2684
 2819W        W18713   8.435  13.141  10.034  0.0852  0.1338  0.2670
 2820W        W18714   8.892   5.833   2.105  0.2444 -0.3199 -0.2450
 2821W        W18715  12.773   8.757   1.044 -0.0679 -0.0601  0.0361
 2822W        W18716   3.729  11.288  12.572  0.3549 -0.0862 -0.1314
 2823W        W18717   7.335   2.712  12.108 -0.1501  0.2070  0.0783
 2824W        W18718   5.577  11.719   1.279  0.0395  0.0748 -0.2141
 2825W        W18719   0.976   9.686   4.416  0.0284  0.4332  0.1378
 2826W        W18720  17.200   0.092  12.910  0.2250 -0.6174  0.0535
 2827W        W18721   0.025   0.901  14.565  0.1958  0.0541 -0.3084
 2828W        W18722   7.676   2.759   4.834 -0.1583 -0.0788 -0.1347
 2829W        W18723  15.524   0.741   0.247  0.2409 -0.0185  0.1560
 2830W        W18724   5.496  10.213   3.880  0.2373  0.2033  0.1186
 2831W        W18725  12.851  17.349   2.548  0.0645  0.1751  0.2154
 2832W        W18726  14.582   7.955  14.825  0.0713  0.0221  0.0216
 2833W        W18727   1.264   1.551   0.616 -0.1650  0.0907  0.1827
 2834W        W18728  16.077   6.719   2.212  0.0797 -0.0067 -0.0564
 2835W        W18729   8.675  10.228   0.957 -0.1090 -0.0058  0.0026
 2836W        W18730   9.829  10.240   1.628  0.1811 -0.0864  0.0381
 2837W        W18731   8.334   2.178   3.598  0.2058  0.2735 -0.1858
 2838W        W18732   4.457  17.311  14.635 -0.1503 -0.0941 -0.2712
 2839W        W18733   0.355   6.075  14.319 -0.0207  0.0556 -0.2001
 2840W        W18734  11.211  14.384   3.541 -0.0227  0.0271 -0.2916
 2841W        W18735   5.868  10.576  11.171 -0.2064  0.0223 -0.0725
 2842W        W18736  11.839  13.640  12.067  0.0323  0.2120 -0.0385
 2843W        W18737   3.687   8.185   5.379  0.1017 -0.0882  0.1326
 2844W        W18738   8.632  15.817   2.038  0.2678 -0.1030 -0.2123
 2845W        W18739   4.070   6.281   3.077  0.1040 -0.1415  0.0425
 2846W        W18740   6.799  15.382   2.904 -0.1447 -0.2339 -0.0963
 2847W        W18741   4.220   5.574   4.070  0.1667 -0.1944  0.1415
 2848W        W18742   1.073   3.173   3.637  0.1056  0.0825 -0.4364
 2849W        W18743  12.507   2.741   5.324 -0.4585 -0.0274  0.1119
 2850W        W18744  17.362  15.507   3.255  0.1265 -0.6506  0.0521
 2851W        W18745  11.340   4.583   2.362  0.0496  0.0246  0.2736
 2852W        W18746  17.009  14.809  11.861  0.0326  0.0157  0.5355
 2853W        W18747  12.556   5.056   0.022  0.1073  0.2946  0.0873
 2854W        W18748  17.451   0.391   3.627 -0.0308  0.1180  0.4046
 2855W        W18749   4.919  13.126   1.731 -0.0175  0.0022 -0.1057
 2856W        W18750   9.952  17.393  13.314 -0.2705 -0.0657 -0.2143
 2857W        W18751   8.789   8.676   4.509 -0.0277 -0.1217  0.0351
 2858W        W18752  12.113  18.261   2.881  0.2696 -0.0507  0.1943
 2859W        W18753   2.804   3.389  14.832 -0.0186 -0.0716 -0.0562
 2860W        W18754   0.047  18.523  13.097 -0.0556  0.0240  0.1317
 2861W        W18755  13.990   5.817   4.384 -0.1847 -0.2147 -0.1441
 2862W        W18756   8.224  14.037   9.963 -0.1688  0.0088  0.2474
 2863W        W18757  15.454  12.235   9.334  0.0345  0.0837 -0.6170
 2864W        W18758  15.474  11.374   3.743  0.4776  0.0166  0.0858
 2865W        W18759   0.874  15.338  12.514  0.2628 -0.0770  0.1167
 2866W        W18760  18.869   4.901   2.645  0.2114 -0.1244 -0.0109
 2867W        W18761  18.563  18.051  11.636 -0.1942  0.1671  0.0060
 2868W        W18762  12.462  18.892  15.039 -0.1503  0.0392 -0.0516
 2869W        W18763   7.268   4.947   1.068 -0.1136 -0.0810 -0.1623
 2870W        W18764  15.822   1.482   5.501  0.1630  0.0875  0.2029
 2871W        W18765   6.572  16.681  12.221  0.0875  0.1234 -0.0105
 2872W        W18766   7.078   6.096  12.640 -0.2520 -0.3116  0.1669
 2873W        W18767   2.649   3.915   2.597 -0.1890  0.1772  0.1100
 2874W        W18768   6.007  15.938   1.591 -0.1200 -0.1113  0.1461
 2875W        W18769   2.009  18.226   0.383  0.0407 -0.2077 -0.1796
 2876W        W18770  17.241  12.736  12.006 -0.2671  0.0480 -0.0343
 2877W        W18771   9.019   6.622   1.267  0.0591  0.0103 -0.2611
 2878W        W18772  14.011  12.495  12.182 -0.3097 -0.0647  0.0477
 2879W        W18773  18.361  10.971  10.808 -0.1861  0.0855  0.1104
 2880W        W18774  19.098  15.306  12.501 -0.1176 -0.3099  0.2769
 2881W        W18775  17.132  11.639   4.799  0.2024 -0.1202  0.3614
 2882W        W18776  11.382   1.013  13.220  0.0830  0.0184 -0.0567
 2883W        W18777  18.497  10.989   5.291  0.0775 -0.1287  0.0198
 2884W        W18778   4.459  18.741  14.257 -0.1160  0.0300  0.0297
 2885W        W18779   2.016   4.073  13.253 -0.2227 -0.1798  0.2664
 2886W        W18780   1.940   3.022  13.216  0.0897 -0.3376 -0.3827
 2887W        W18781   1.785  15.152  10.513  0.0070 -0.2832 -0.2870
 2888W        W18782   3.996  17.897   4.761 -0.1297  0.0655  0.1481
 2889W        W18783   0.920   7.596  14.065 -0.0064  0.0387  0.0361
 2890W        W18784  17.482   5.054  14.738 -0.1604 -0.2552 -0.1551
 2891W        W18785  15.247   7.303   5.369  0.2324 -0.1148  0.0586
 2892W        W18786  11.935   5.573  12.444 -0.1182  0.6459 -0.0034
 2893W        W18787   1.892  14.900   4.692 -0.2080  0.0386  0.3228
 2894W        W18788   3.888   7.058   4.586 -0.0189 -0.0647  0.1662
 2895W        W18789  14.072   7.430  14.384 -0.1671 -0.1452  0.0042
 2896W        W18790  13.264  11.705   1.790  0.1458 -0.1649  0.0910
 2897W        W18791   1.955   9.627   0.425  0.2333 -0.0888  0.0500
 2898W        W18792  12.955   5.691   2.272 -0.4896  0.0103  0.0541
 2899W        W18793   4.336  14.944   4.536  0.1016  0.2236  0.0442
 2900W        W18794  15.610   0.587  14.706  0.0042  0.4679  0.0471
 2901W        W18795   4.439   3.982  14.196 -0.0222 -0.2939  0.2153
 2902W        W18796   3.889   5.527  11.029  0.1951  0.0607  0.0568
 2903W        W18797   4.047   2.847   5.449  0.2514 -0.0381 -0.0253
 2904W        W18798   3.433  10.577  13.026 -0.2989 -0.0244  0.2724
 2905W        W18799  19.176  15.373   0.130  0.1150 -0.1768 -0.1422
 2906W        W18800  15.526  10.167   3.717  0.0896  0.0134  0.0834
 2907W        W18801  17.861  17.187  11.092  0.0463  0.0559 -0.0821
 2908W        W18802  12.750   1.694   1.225  0.1114  0.1750  0.0157
 2909W        W18803  15.160   2.506  12.271  0.2946 -0.1294  0.0631
 2910W        W18804   1.802  12.878  13.888 -0.1825  0.1314  0.1074
 2911W        W18805   1.864  10.874   2.046  0.0562 -0.0341 -0.0316
 2912W        W18806   8.093  18.279   4.928  0.0621 -0.1804 -0.0488
 2913W        W18807   4.812  16.282  14.467 -0.0278  0.0721  0.3378
 2914W        W18808  14.575   6.110  10.225  0.0547  0.2321  0.0974
 2915W        W18809  13.144  16.839   1.839  0.3048  0.0279 -0.0007
 2916W        W18810  12.506   8.033  13.226  0.2426  0.3211 -0.1325
 2917W        W18811  15.352  10.387  12.699 -0.3071 -0.2374  0.0582
 2918W        W18812  11.335   1.868   1.949  0.1812  0.4690  0.5049
 2919W        W18813   3.163   6.466   5.620 -0.2282  0.2528  0.2505
 2920W        W18814   5.623  16.097   0.576 -0.3784 -0.0409  0.1692
 2921W        W18815  12.914   9.921  14.639 -0.1967  0.0290  0.0661
 2922W        W18816   0.151  10.865   0.987 -0.1695  0.0403 -0.1166
 2923W        W18817   0.394  14.778   1.619 -0.2579 -0.3945  0.0135
 2924W        W18818   7.343   2.349  12.851 -0.0735 -0.0039 -0.1957
 2925W        W18819  18.257  14.893  10.427 -0.2362  0.2212  0.2389
 2926W        W18820   1.952  11.409   3.776 -0.0817  0.0020 -0.3903
 2927W        W18821   0.696  18.273  12.621 -0.1273 -0.0933  0.0912
 2928W        W18822   1.900   9.825  12.568 -0.3703  0.0758  0.2276
 2929W        W18823   1.333  19.007   0.455 -0.0659  0.4407 -0.2513
 2930W        W18824   1.578  13.078  13.470  0.0173  0.0122 -0.0863
 2931W        W18825   7.788   2.676  13.007  0.0967  0.1620 -0.0515
 2932W        W18826   1.727  14.353   1.726  0.0677 -0.1268  0.0560
 2933W        W18827  18.660   2.223  15.079 -0.1264  0.1180 -0.1888
 2934W        W18828  16.086   9.900  11.079  0.1941 -0.3154 -0.1676
 2935W        W18829   9.984   9.674  11.245 -0.1803  0.0065 -0.1294
 2936W        W18830   1.142  18.860  15.059  0.1345 -0.0394 -0.0276
 2937W        W18831  14.766   6.748  10.622  0.2202  0.0390 -0.0178
 2938W        W18832  13.613  15.948   0.113  0.2394 -0.2028  0.0561
 2939W        W18833  16.227   4.654  14.690  0.2593 -0.0351 -0.3745
 2940W        W18834   4.329   1.136   5.081 -0.0730 -0.0178 -0.0224
 2941W        W18835  16.124   6.620   4.863  0.1198  0.4401 -0.0224
 2942W        W18836  13.412  14.945   0.507 -0.1169  0.2950  0.1964
 2943W        W18837   9.030   2.538  10.913 -0.1864 -0.0910 -0.1566
 2944W        W18838  17.752  15.725   2.283  0.1084 -0.0980  0.1191
 2945W        W18839  10.390   2.932   1.551 -0.0182 -0.0474  0.0088
 2946W        W18840   8.933  15.144  11.679  0.2275 -0.1921  0.1678
 2947W        W18841  16.828  17.353   4.108 -0.1836 -0.0759  0.4005
 2948W        W18842   3.387  13.464   2.027  0.0116  0.4807  0.1348
 2949W        W18843  11.899  12.681  11.860  0.2769 -0.1696  0.0134
 2950W        W18844  13.342   5.688   3.273  0.2375  0.2351  0.0009
 2951W        W18845  19.172  18.613   3.981 -0.5259 -0.1532 -0.0149
 2952W        W18846  12.902  17.616  13.894 -0.0473 -0.0171  0.1673
 2953W        W18847  18.936   7.071   3.396  0.3769  0.0900  0.1670
 2954W        W18848  11.149   6.207   2.140 -0.2579 -0.0435 -0.0274
 2955W        W18849  18.366   9.088  13.656  0.2610  0.2809  0.0668
 2956W        W18850   6.814  11.730  14.788 -0.1884 -0.0326  0.2495
 2957W        W18851   4.874  13.623   0.420  0.1002  0.2525  0.0738
 2958W        W18852  16.161   5.237   3.283 -0.2545  0.0095 -0.0091
 2959W        W18853  13.812  11.355   2.134  0.1211  0.3142 -0.0930
 2960W        W18854  13.022  12.450   0.195 -0.0930  0.1506 -0.3066
 2961W        W18855   1.370  18.618   4.005  0.0572 -0.2522 -0.5270
 2962W        W18856  14.908  15.906  13.374  0.0306 -0.0929 -0.4154
 2963W        W18857   8.393   9.500   4.007 -0.1706  0.2114  0.3311
 2964W        W18858  11.469   3.336   4.910 -0.1170  0.1920 -0.0042
 2965W        W18859   8.805   9.505  12.820 -0.1061 -0.1193 -0.0185
 2966W        W18860  14.399   4.768   2.842  0.2013 -0.2276  0.2133
 2967W        W18861   7.068   1.947   5.695 -0.0627 -0.0889 -0.2586
 2968W        W18862   9.853  18.916   0.641  0.0462 -0.2104 -0.0094
 2969W        W18863   6.074   7.757  13.655 -0.0521  0.0809  0.0812
 2970W        W18864  19.113   7.824   2.239 -0.2971  0.1816 -0.2070
 2971W        W18865   9.757   0.477   1.299  0.0868 -0.1084  0.2831
 2972W        W18866   7.523  12.759   3.660  0.0794 -0.1634 -0.1328
 2973W        W18867   7.010   9.055   4.756  0.2087 -0.0331  0.0717
 2974W        W18868  15.893  14.957   0.162  0.2516 -0.1803  0.1866
 2975W        W18869  16.580   8.888   1.477 -0.3990 -0.0917 -0.0788
 2976W        W18870   1.455   1.891  10.787 -0.1814 -0.3916 -0.1843
 2977W        W18871   6.061   5.588   3.823 -0.2156  0.5276 -0.2521
 2978W        W18872   6.983  18.359  12.777  0.0407  0.0344  0.0799
 2979W        W18873  18.709  12.576  14.497 -0.2839  0.2007  0.0479
 2980W        W18874   7.974  13.813   1.561 -0.0151  0.3212  0.0617
 2981W        W18875   7.069  12.450   0.199  0.0041  0.1197 -0.1955
 2982W        W18876   5.790   5.652  13.992 -0.0806 -0.2562  0.2219
 2983W        W18877   8.932  10.530  14.657 -0.0407  0.0285 -0.2380
 2984W        W18878   9.450   2.592  14.368 -0.2603  0.2877 -0.0831
 2985W        W18879  13.224   0.255  11.890  0.2251 -0.0030 -0.2290
 2986W        W18880  15.908  14.717  10.897  0.2268  0.2672  0.2916
 2987W        W18881  12.359  11.463   1.978  0.0772  0.1233  0.1581
 2988W        W18882   1.304  11.600  11.283 -0.1695 -0.1716 -0.4749
 2989W        W18883   0.393  13.682  11.266  0.0730 -0.5816  0.1847
 2990W        W18884   3.993  10.888   3.987 -0.1232  0.1772  0.1794
 2991W        W18885  18.734   7.540   2.563  0.0849 -0.1619 -0.3970
 2992W        W18886   3.567   5.092  12.255 -0.0222 -0.2268 -0.0043
 2993W        W18887   3.419  11.223  14.719  0.0871  0.3672 -0.1918
 2994W        W18888   2.656   0.526  10.743 -0.0179 -0.0054  0.2477
 2995W        W18889   2.653  12.390  11.259  0.1061  0.2001 -0.0733
 2996W        W18890  15.454   4.572   0.844  0.2560 -0.2433 -0.1116
 2997W        W18891   2.089   5.994   3.399  0.2679 -0.0584  0.0871
 2998W        W18892   4.003  17.834  12.314 -0.2188  0.1419  0.3916
 2999W        W18893   4.471   9.011   3.567  0.4479 -0.0740 -0.2760
 3000W        W18894   0.746   7.630   4.902  0.1687 -0.0138  0.3585
 3001W        W18895  15.226  12.639  11.756  0.1461 -0.0542 -0.0513
 3002W        W18896  15.352  16.172   1.857  0.0226 -0.0936 -0.0095
 3003W        W18897   5.705   8.446  10.681 -0.1817 -0.2507  0.0647
 3004W        W18898   2.434  17.040   0.066 -0.0687  0.1531  0.0577
 3005W        W18899  11.827   8.747  14.697 -0.1397  0.1649  0.2180
 3006W        W18900   2.819   9.469   4.183  0.0557  0.3483  0.2242
 3007W        W18901  16.791  18.927   2.380 -0.0438 -0.0149  0.0813
 3008W        W18902  10.368  11.136   0.110 -0.0662  0.0568 -0.0275
 3009W        W18903   2.732  11.842   4.144  0.2909 -0.1470 -0.2158
 3010W        W18904  11.688  13.111   0.900 -0.2067  0.1267 -0.1842
 3011W        W18905   7.698   7.270  13.216 -0.2403  0.0519  0.3249
 3012W        W18906  14.960  15.722   1.098 -0.2577  0.5396  0.3223
 3013W        W18907   0.853  11.396   2.764 -0.2055 -0.0698 -0.1011
 3014W        W18908  11.750   8.005   3.625  0.3097 -0.0738  0.1415
 3015W        W18909  11.312   3.996   4.621  0.4038  0.1893  0.1385
 3016W        W18910   0.193   9.076   1.082  0.0520 -0.0195  0.2802
 3017W        W18911   2.520   1.904  11.861  0.4406 -0.0883 -0.0271
 3018W        W18912  14.795   4.595   1.476 -0.0042  0.2265 -0.1684
 3019W        W18913   3.998   3.738  13.914  0.5040  0.0757  0.1045
 3020W        W18914  15.481  18.559  11.172  0.2681 -0.0369  0.2739
 3021W        W18915  18.663   6.085  14.170 -0.0308 -0.0760  0.1825
 3022W        W18916  11.543   4.519  11.932 -0.2827 -0.1561  0.2532
 3023W        W18917   5.216   4.308  13.582 -0.0820 -0.0345  0.1494
 3024W        W18918   9.935   8.835   0.522 -0.1422 -0.0889  0.2118
 3025W        W18919  19.213   9.590   0.982  0.1089  0.0947  0.0916
 3026W        W18920  11.741   5.968   3.614  0.1742 -0.0567 -0.1445
 3027W        W18921   2.571  12.626  13.402  0.0676  0.0728 -0.1857
 3028W        W18922   9.255   7.374   4.653  0.2938 -0.0940 -0.0054
 3029W        W18923   4.854   0.974   0.582 -0.0187 -0.0580  0.0757
 3030W        W18924   7.501   6.773   2.898  0.2360  0.1930  0.2573
 3031W        W18925   9.766  10.542  13.339 -0.0466  0.1006  0.1855
 3032W        W18926   6.474   6.520   4.780 -0.2863 -0.0492  0.1894
 3033W        W18927   6.150   0.705   4.350  0.0236  0.4721  0.0225
 3034W        W18928  17.406   5.306   3.239 -0.2770  0.0607  0.0552
 3035W        W18929   5.174   4.825   1.978 -0.2371 -0.1448  0.1927
 3036W        W18930   5.415   9.478  13.766  0.0851  0.1399  0.2383
 3037W        W18931  12.477   6.264  11.261 -0.3146  0.1289 -0.0485
 3038W        W18932   9.051   9.930   3.285  0.1390  0.1786 -0.1353
 3039W        W18933   9.765  19.039  11.804 -0.1291 -0.2483  0.0962
 3040W        W18934  10.014  10.364   3.239 -0.3491 -0.3017 -0.0205
 3041W        W18935   6.246  11.849   5.712  0.0044  0.2814 -0.0395
 3042W        W18936   5.553   3.830   2.705  0.1770  0.2778  0.4391
 3043W        W18937  15.629   6.553   2.607 -0.0338  0.1933  0.0348
 3044W        W18938  13.720   4.061   3.218 -0.1881  0.1590  0.0383
 3045W        W18939   0.319   5.508  14.262  0.0031 -0.3668 -0.0821
 3046W        W18940   2.558  13.224   0.490 -0.1752  0.2714 -0.0253
 3047W        W18941   9.103  11.699   3.175  0.1244 -0.2422 -0.1018
 3048W        W18942  14.227  17.157   1.581  0.0401 -0.0814  0.0083
 3049W        W18943   3.638  13.133  10.923 -0.3652 -0.2058  0.1447
 3050W        W18944   7.381   7.410   0.603  0.1090 -0.0804  0.1354
 3051W        W18945  10.514   4.398   4.476  0.0715 -0.2342  0.2210
 3052W        W18946   2.309   7.275  14.555  0.2327  0.1005  0.1402
 3053W        W18947  15.251   2.063   2.776  0.0286  0.0739 -0.0353
 3054W        W18948   3.680   1.421  10.806  0.0045 -0.2716 -0.2173
 3055W        W18949  10.719  15.849   3.753 -0.1708  0.1631  0.2408
 3056W        W18950   2.209   0.231  10.857 -0.1364 -0.2382  0.1108
 3057W        W18951   6.787   5.937  12.254  0.1108  0.1706 -0.1750
 3058W        W18952   7.160  17.325   1.561  0.4001 -0.1178  0.3015
 3059W        W18953   8.884   6.127   1.295  0.0744 -0.1293  0.0115
 3060W        W18954  18.880  10.336   2.177  0.1437 -0.2153 -0.0292
 3061W        W18955  12.665   0.337  10.349  0.1644 -0.3755 -0.0954
 3062W        W18956  14.967  11.121   1.374  0.2053 -0.0847  0.2759
 3063W        W18957  17.915   6.178  12.349 -0.2208 -0.1977 -0.4461
 3064W        W18958   6.161  14.140  14.598 -0.1080 -0.0348  0.4018
 3065W        W18959   2.489  14.471   4.349  0.0825  0.2490  0.2596
 3066W        W18960   8.835   9.577   4.090  0.0292  0.0321 -0.0544
 3067W        W18961  11.435   4.021  10.950  0.2055 -0.2086 -0.2102
 3068W        W18962   5.982  15.648   4.841 -0.1360 -0.0515 -0.1738
 3069W        W18963   9.687  13.794  13.598  0.1838 -0.0565  0.0357
 3070W        W18964  16.194  17.750  14.025  0.0918 -0.1166  0.1301
 3071W        W18965  15.606   3.236  14.675 -0.0060  0.3198 -0.1466
 3072W        W18966  18.484  12.936  11.054  0.0678 -0.1263 -0.1755
 3073W        W18967   7.940   2.707   2.972 -0.0097  0.0424 -0.1820
 3074W        W18968  17.820  12.834  13.498 -0.1408 -0.0421  0.0153
 3075W        W18969  15.817   3.432   4.604  0.0291  0.2950  0.1879
 3076W        W18970  17.543   5.971   2.238  0.0655  0.0478 -0.1172
 3077W        W18971   8.780  10.312   3.533 -0.0526 -0.1320  0.0498
 3078W        W18972  18.439   4.521   2.813  0.3384 -0.2078 -0.0259
 3079W        W18973   6.081  12.283  14.190  0.4712 -0.0752  0.0892
 3080W        W18974   2.893   3.607   5.074 -0.0720  0.0071  0.1323
 3081W        W18975   5.244   8.628  13.563 -0.0966 -0.1426  0.1851
 3082W        W18976  15.010   8.116   3.392 -0.0918  0.1635  0.0998
 3083W        W18977  16.072   6.808  13.803  0.1298  0.4166 -0.1574
 3084W        W18978   3.598   3.966  12.607  0.1917 -0.1748 -0.0406
 3085W        W18979  17.830  12.256   1.351 -0.2709  0.0980 -0.4427
 3086W        W18980  15.731  17.666   4.903 -0.0807 -0.3149  0.0514
 3087W        W18981  13.687   8.605  15.086  0.0858 -0.0403  0.2859
 3088W        W18982  15.665  17.352   0.626  0.0993  0.0813  0.0276
 3089W        W18983  15.143  17.182   1.833  0.1328 -0.0687  0.0101
 3090W        W18984   6.824   4.328  14.034 -0.0794  0.2193 -0.0743
 3091W        W18985  13.256   1.462  10.962  0.0055 -0.1505 -0.2523
 3092W        W18986  14.761   4.231  14.192 -0.0463 -0.4069  0.1199
 3093W        W18987  17.404  16.684  12.537  0.0436 -0.0059 -0.1819
 3094W        W18988  10.585   6.750   1.226 -0.0028  0.2730 -0.2032
 3095W        W18989  13.265   8.126   1.134  0.3090  0.1360  0.1339
 3096W        W18990  16.963  13.313  10.872  0.1490  0.2043  0.0434
 3097W        W18991  18.877   6.081  14.619  0.1353  0.2444  0.0415
 3098W        W18992   4.558  18.254  12.071  0.1964 -0.0434 -0.1005
 3099W        W18993  16.093   0.868   4.043 -0.0318 -0.0090  0.0907
 3100W        W18994   6.585   2.755   5.048  0.2881 -0.3704  0.2723
 3101W        W18995   3.648  14.340   1.789  0.2274 -0.2959  0.2166
 3102W        W18996   7.525  14.678   3.008  0.1642  0.0416 -0.0208
 3103W        W18997   9.985   9.177   2.723  0.2154  0.1393 -0.1735
 3104W        W18998  18.250   8.809  12.329  0.1455 -0.1846  0.1299
 3105W        W18999  13.702   3.707   4.670 -0.0135 -0.0571 -0.0914
 3106W        W19000   0.689   7.902   1.294 -0.1266 -0.0682 -0.0398
 3107W        W19001   1.770   1.587   0.971  0.0963  0.1842 -0.3816
 3108W        W19002   6.401   2.184   1.511  0.2113  0.1543  0.1562
 3109W        W19003  12.969   6.138   4.224 -0.0359  0.1127  0.1329
 3110W        W19004   8.201   3.712   1.528  0.1552  0.0800  0.2287
 3111W        W19005   0.959   2.268   1.722 -0.0760 -0.0282 -0.1459
 3112W        W19006  10.291  18.502  14.170 -0.0424 -0.1372 -0.0360
 3113W        W19007   0.395   7.495   2.354 -0.0037  0.0488  0.1433
 3114W        W19008   0.889  13.439  13.955 -0.0851  0.2380  0.0218
 3115W        W19009  19.001   9.311  11.448  0.1412  0.0027  0.0911
 3116W        W19010  18.145  14.863   2.782  0.2439 -0.0015  0.2856
 3117W        W19011   7.836  13.565   0.685 -0.0518  0.2427  0.1662
 3118W        W19012  15.056  15.966   2.765  0.2269  0.2709 -0.0062
 3119W        W19013  12.286   5.591   4.681  0.0066 -0.0539  0.2496
 3120W        W19014   6.381  18.412  14.848  0.2718  0.2925  0.0876
 3121W        W19015   9.092  18.852  12.918  0.3243  0.1824  0.1462
 3122W        W19016   4.688   1.798  11.209 -0.0440 -0.1669  0.0993
 3123W        W19017  11.738  11.529   0.765 -0.1339 -0.3386 -0.1856
 3124W        W19018  13.472  12.954  12.878 -0.0208 -0.0468  0.1401
 3125W        W19019   3.385  15.151   5.319  0.0946  0.0977  0.2831
 3126W        W19020  12.426  13.423  13.810 -0.0088  0.0303  0.2978
 3127W        W19021  10.647  13.363  12.503  0.1155  0.2610 -0.0429
 3128W        W19022   7.872   4.887  14.639 -0.0917 -0.1593 -0.0180
 3129W        W19023   1.853  15.752  12.474  0.0556  0.1875 -0.2760
 3130W        W19024  14.351   8.549  10.555  0.0546 -0.2189  0.1214
 3131W        W19025  13.460   2.526   0.509  0.0763  0.2844 -0.0922
 3132W        W19026  11.055  10.541  10.863 -0.3313 -0.3887 -0.0824
 3133W        W19027   8.699   4.380  13.615 -0.0415 -0.0370 -0.0903
 3134W        W19028   4.289   9.617  11.843 -0.1486  0.1291  0.1776
 3135W        W19029   8.250   1.552   2.046  0.2064 -0.2919 -0.2053
 3136W        W19030  10.634   3.961   4.772  0.0179 -0.0155 -0.0539
 3137W        W19031   4.249   4.630   3.956 -0.1398 -0.1946  0.1996
 3138W        W19032  18.542  12.806   3.351  0.0696  0.1734  0.3034
 3139W        W19033  12.531   4.609  10.493 -0.0115 -0.1374 -0.4008
 3140W        W19034  10.258  11.337   3.826 -0.2692  0.1235 -0.1016
 3141W        W19035  17.222   6.577   5.979  0.0833 -0.0364  0.1422
 3142W        W19036  18.219   6.487  14.117 -0.2784  0.2884  0.0315
 3143W        W19037   3.470  11.188   4.208 -0.0420 -0.3480 -0.0465
 3144W        W19038   2.191  16.900  14.110 -0.0255  0.0352 -0.2178
 3145W        W19039   2.861   7.605  14.055 -0.1522 -0.4418  0.0013
 3146W        W19040   5.053   8.613   1.692 -0.0868 -0.0168  0.0474
 3147W        W19041   3.656   3.975   3.900  0.0906  0.0315 -0.0007
 3148W        W19042   5.889  12.955   4.402  0.1196  0.2177  0.0889
 3149W        W19043  11.899  17.762  13.322 -0.3311  0.3776 -0.1361
 3150W        W19044   5.878  10.922  12.159  0.0568 -0.2249  0.3235
 3151W        W19045   9.615  12.211   0.196  0.1163  0.2419  0.0218
 3152W        W19046  12.840   0.632   1.624  0.3666  0.1007 -0.0306
 3153W        W19047   7.405  15.452   4.497 -0.2219 -0.1186  0.1813
 3154W        W19048   6.759   7.453   1.876  0.0821  0.0092 -0.1859
 3155W        W19049  15.591   7.116   9.923 -0.1637 -0.0357  0.1544
 3156W        W19050  17.200  17.496   0.647  0.0521  0.0789  0.0040
 3157W        W19051  10.454  12.273  11.437 -0.4703 -0.1613  0.0503
 3158W        W19052  18.124   6.615   3.236  0.0103 -0.1879  0.1147
 3159W        W19053   4.905  10.283   2.790 -0.0619 -0.0635 -0.4625
 3160W        W19054   9.074   3.494  13.424  0.4349 -0.0797 -0.0186
 3161W        W19055  16.833   4.263   2.267 -0.1431 -0.1859  0.3572
 3162W        W19056   2.718  14.496   9.142 -0.3843 -0.0066 -0.2529
 3163W        W19057   0.089  14.628  15.104  0.1177 -0.1633  0.1401
 3164W        W19058   2.651  18.934   0.266 -0.1427  0.2191 -0.1425
 3165W        W19059   1.619   9.094  10.588 -0.2421  0.1577  0.1052
 3166W        W19060   0.614  15.682  14.859 -0.1809  0.4080 -0.1897
 3167W        W19061  15.856   7.272   3.189  0.0725  0.0595 -0.2949
 3168W        W19062   1.032  10.796   5.515  0.0538  0.2288 -0.0233
 3169W        W19063  10.108   7.510   3.127 -0.2466 -0.2355 -0.2949
 3170W        W19064  18.567  11.298  10.506 -0.1215  0.1277  0.1624
 3171W        W19065  14.941   6.014   3.360  0.0468 -0.0142  0.0434
 3172W        W19066   6.236   0.454  13.092 -0.0627  0.0808 -0.3503
 3173W        W19067  14.088  10.959   1.926 -0.0630  0.1064  0.1139
 3174W        W19068   5.980   2.525  12.808 -0.3484 -0.1574  0.1863
 3175W        W19069   3.708   0.572   5.052  0.3064  0.0731  0.1274
 3176W        W19070   1.630  18.827  13.734  0.0330 -0.2983  0.0413
 3177W        W19071   8.168  13.215  11.267 -0.1435  0.2951 -0.0952
 3178W        W19072  11.905  17.737  10.270 -0.0469  0.0139  0.1992
 3179W        W19073  14.917  13.413  14.838  0.1127 -0.0875 -0.0283
 3180W        W19074  10.999  10.677  11.305 -0.1862 -0.4140 -0.2859
 3181W        W19075  11.157  10.144  12.984 -0.0590  0.1280  0.1960
 3182W        W19076  11.200   8.719   5.414 -0.1500  0.1223 -0.0969
 3183W        W19077   8.815   3.326  13.872 -0.3198 -0.3461 -0.0643
 3184W        W19078  12.561   4.045   2.305 -0.0313 -0.0716 -0.2940
 3185W        W19079   8.560   6.922   4.702 -0.0618  0.1089  0.0447
 3186W        W19080   3.977  13.185  13.849  0.3214 -0.0941 -0.3232
 3187W        W19081   7.156  12.501  11.164 -0.1412  0.0868 -0.4190
 3188W        W19082   6.797   1.118  15.059  0.2520 -0.3203 -0.3286
 3189W        W19083   1.162  14.298   5.069 -0.1588  0.2805  0.1366
 3190W        W19084   8.041   4.361   3.097 -0.1185  0.1882  0.2695
 3191W        W19085   8.671   6.076  13.437 -0.2785  0.0130 -0.3931
 3192W        W19086  11.776  10.851   3.375 -0.2129 -0.0113  0.1007
 3193W        W19087   4.246   9.123   0.740 -0.2838  0.0020  0.1500
 3194W        W19088   7.571  16.260   2.142  0.3238  0.0320 -0.1422
 3195W        W19089   5.142   2.982   3.302  0.2600  0.3163 -0.2501
 3196W        W19090   9.269  16.659  14.104  0.2040 -0.0059  0.1097
 3197W        W19091  15.775  15.927   4.799  0.4425  0.2389 -0.1609
 3198W        W19092   7.052   4.859  13.159 -0.1077  0.2209 -0.0391
 3199W        W19093   9.657   7.966   0.770  0.0564  0.0365  0.1442
 3200W        W19094   3.779  15.766  10.888  0.1314  0.0176 -0.1567
 3201W        W19095  10.848  17.520   4.380  0.0524 -0.0141  0.2817
 3202W        W19096   1.273  18.824   5.000  0.0572  0.1297 -0.4212
 3203W        W19097  13.424   7.209   1.951  0.1541  0.0586  0.0226
 3204W        W19098  14.256  10.964  10.957  0.3412 -0.1481  0.1921
 3205W        W19099   0.336  10.415  14.300  0.0340 -0.0440  0.2961
 3206W        W19100  17.920  17.044  12.825  0.2623  0.3716 -0.0970
 3207W        W19101   9.889   2.684  14.104  0.0309 -0.3811  0.3386
 3208W        W19102   5.993   5.334  12.325 -0.2085 -0.2616 -0.0136
 3209W        W19103   9.682  13.949   1.962  0.4763  0.1061  0.1015
 3210W        W19104  18.888   8.348   4.115 -0.3325  0.1654  0.0899
 3211W        W19105  15.899   7.213   2.392 -0.2988  0.1298 -0.0503
 3212W        W19106  11.727   6.915   5.082 -0.0120  0.1213  0.0199
 3213W        W19107  16.622  17.518   2.058  0.1954 -0.1354  0.0108
 3214W        W19108  18.560  10.806  11.246  0.4565 -0.0815  0.1714
 3215W        W19109  19.090   5.816  14.267 -0.1053  0.0472 -0.1763
 3216W        W19110   3.653   1.534   3.387  0.1197 -0.3596  0.0659
 3217W        W19111   4.629  13.731  11.384 -0.1906  0.2777 -0.1091
 3218W        W19112  18.728   3.944   4.130 -0.0919  0.0957  0.0433
 3219W        W19113  17.098   5.856  13.188  0.1257  0.1911  0.1850
 3220W        W19114  18.823  17.415  12.719 -0.0880 -0.4247  0.1534
 3221W        W19115   4.282  14.834   3.199 -0.0972 -0.1833 -0.1160
 3222W        W19116  18.268   9.516   4.651  0.3926 -0.0957 -0.3100
 3223W        W19117  16.353   0.200   4.257  0.1352 -0.0968 -0.1573
 3224W        W19118  16.643   7.575  13.882  0.1206 -0.0038  0.1773
 3225W        W19119  17.199  13.426   2.232 -0.0945  0.2288  0.0406
 3226W        W19120   0.874  10.409   0.764  0.0368 -0.3480  0.1628
 3227W        W19121  13.259  18.230  10.350 -0.0572  0.2963  0.0370
 3228W        W19122   2.844   9.627  11.775 -0.0902 -0.1390 -0.0562
 3229W        W19123  11.853   8.986  14.249 -0.0808  0.0194 -0.0308
 3230W        W19124   8.107   2.577   4.748  0.0069 -0.1382 -0.0648
 3231W        W19125  18.074  11.371  10.526 -0.1101 -0.3281 -0.2869
 3232W        W19126  10.671   5.300  10.838 -0.0793  0.0404 -0.0158
 3233W        W19127  18.833   1.946   4.255 -0.0047  0.0409  0.3683
 3234W        W19128   1.576  13.381  14.769 -0.1119 -0.0828  0.3710
 3235W        W19129  15.349   3.142  11.615 -0.1502  0.1373  0.2545
 3236W        W19130   0.715   5.012   3.274 -0.0691  0.1954 -0.1394
 3237W        W19131  13.411   2.195   1.267 -0.4112  0.4077  0.2494
 3238W        W19132  18.073   8.387  12.020  0.0329 -0.4865 -0.2627
 3239W        W19133   7.869   6.547  14.169  0.0684  0.3266 -0.3773
 3240W        W19134  13.455   2.873  13.001  0.0549  0.2375 -0.1293
 3241W        W19135  16.609  10.078   0.303  0.0520 -0.0161  0.5146
 3242W        W19136  12.050   8.352  14.313  0.1058 -0.1148  0.2007
 3243W        W19137  15.964  10.891  13.305  0.0270 -0.0331 -0.0547
 3244W        W19138  12.676  17.501  14.996 -0.0256  0.3441 -0.1652
 3245W        W19139   5.956  15.918  14.193  0.1397 -0.1398 -0.1911
 3246W        W19140  16.213  11.770  13.418 -0.1278 -0.2760 -0.2163
 3247W        W19141   2.640   8.034   2.168  0.0398  0.0491 -0.0068
 3248W        W19142  12.019  16.632   9.815 -0.0326 -0.1047  0.0602
 3249W        W19143  15.387  18.386  12.397 -0.0458  0.2628  0.3717
 3250W        W19144  12.396  13.221   0.341 -0.3171 -0.3267 -0.1269
 3251W        W19145   6.693  14.848  14.168  0.0307 -0.0759  0.1213
 3252W        W19146   4.825   2.735   3.803 -0.0502 -0.0968  0.0506
 3253W        W19147   8.238   6.647  12.979  0.0062  0.1132  0.1027
 3254W        W19148   2.931  10.342   4.137  0.0270 -0.0929 -0.2541
 3255W        W19149   6.146   4.389   2.605 -0.0660 -0.2279 -0.2529
 3256W        W19150   8.419  17.155   3.287 -0.1554  0.2742  0.0836
 3257W        W19151  11.708   0.325   0.209  0.3579 -0.1429 -0.0660
 3258W        W19152  12.052  11.564  11.328 -0.1281 -0.4577 -0.1371
 3259W        W19153  17.859  12.788   0.644 -0.2199  0.1464  0.0891
 3260W        W19154  11.846  14.490  11.963  0.1317  0.3895  0.0721
 3261W        W19155   2.287  16.458  13.941 -0.3217  0.0670  0.2422
 3262W        W19156  15.458   3.436   3.328  0.1848 -0.5768  0.0588
 3263W        W19157   2.273  18.674   2.392 -0.1145  0.1925 -0.0266
 3264W        W19158   3.751  15.396  13.076  0.3011 -0.1803  0.0526
 3265W        W19159   7.523   1.758  11.016  0.3280  0.2088 -0.0226
 3266W        W19160   8.239  12.150   9.178  0.1583  0.0260 -0.3735
 3267W        W19161  10.522  16.424   4.230  0.0168 -0.0649 -0.4596
 3268W        W19162  14.571   5.529  14.563  0.1209 -0.0746  0.0912
 3269W        W19163   1.244  14.359  12.567 -0.0443  0.1380 -0.3760
 3270W        W19164  12.125   5.979   1.973  0.0161 -0.0269 -0.2959
 3271W        W19165  19.098   4.109   5.491  0.0353  0.0884  0.0043
 3272W        W19166  13.032  11.946   2.529  0.1914 -0.0235 -0.2553
 3273W        W19167   4.350   5.872   1.777 -0.1161  0.0454  0.0528
 3274W        W19168  11.391   0.251  10.698  0.0142  0.2237  0.2829
 3275W        W19169   2.227   9.705   2.590  0.0411 -0.1451  0.0368
 3276W        W19170   7.989  18.309   1.951 -0.2487  0.1072 -0.0992
 3277W        W19171  17.502   4.079   3.851 -0.0249 -0.3892  0.0307
 3278W        W19172  13.846  12.579   3.875  0.1421 -0.2616  0.2108
 3279W        W19173  16.101  15.137   2.205 -0.2537 -0.2986  0.1183
 3280W        W19174   2.624  11.279   0.027  0.0379  0.2720  0.1818
 3281W        W19175  12.968   0.673  11.987 -0.3244  0.0572  0.0566
 3282W        W19176  13.741   7.569  13.408  0.1922  0.1611 -0.1298
 3283W        W19177  19.139   2.447   3.575 -0.1983  0.1369  0.1529
 3284W        W19178   0.792   8.603  13.299 -0.0965  0.0113  0.2938
 3285W        W19179  14.239   6.266   0.095 -0.0272  0.0621 -0.1694
 3286W        W19180   0.582  18.048   2.011 -0.3074  0.1920 -0.2345
 3287W        W19181   0.750   3.924  11.131  0.1538 -0.0207  0.1949
 3288W        W19182   1.839   0.426   0.027  0.2727 -0.0875  0.1651
 3289W        W19183   7.855   9.476  11.852  0.0292  0.0646  0.2135
 3290W        W19184  16.245   1.040  13.451 -0.0759  0.4443 -0.1691
 3291W        W19185   2.985   8.982  14.909 -0.0534  0.0466  0.0519
 3292W        W19186   2.415  12.221   0.671  0.0473  0.0078  0.0329
 3293W        W19187  17.148   4.272  12.791  0.1542 -0.0308  0.0407
 3294W        W19188  17.885  10.447   3.678  0.2487 -0.4844  0.0211
 3295W        W19189   8.823  11.924  13.798 -0.0346 -0.0085  0.0712
 3296W        W19190  15.400   0.868  11.231  0.1419 -0.0125  0.1603
 3297W        W19191   5.927  17.588  13.804 -0.6756 -0.4132 -0.1519
 3298W        W19192  12.460   6.113   0.522 -0.2620  0.2190  0.0894
 3299W        W19193  18.269  14.390  10.626 -0.1203  0.0226 -0.3518
 3300W        W19194   7.885  12.751  13.760 -0.0914 -0.0135  0.1927
 3301W        W19195  18.621  11.397  13.458 -0.1100  0.2204  0.1249
 3302W        W19196  15.999  10.018  13.925 -0.0586  0.0049  0.3089
 3303W        W19197  12.989  14.615   1.444  0.2650  0.2561  0.3893
 3304W        W19198  14.911   4.651  10.858 -0.0482 -0.1222 -0.3816
 3305W        W19199  16.968  10.376  12.941 -0.4483 -0.1879  0.2709
 3306W        W19200  16.866   9.012   2.439 -0.2503 -0.2902 -0.0673
 3307W        W19201   4.068  17.888  12.797  0.0962 -0.1923  0.0529
 3308W        W19202   5.214  13.163   2.119 -0.0334  0.1643 -0.1054
 3309W        W19203   9.395  14.839  12.952  0.0108  0.0723  0.4202
 3310W        W19204  11.597   2.078   3.682 -0.2882 -0.2458 -0.1939
 3311W        W19205   2.975  13.452   9.507  0.1008 -0.1155 -0.0618
 3312W        W19206  11.929   0.158  11.346  0.0068  0.1891  0.0279
 3313W        W19207   7.421  15.178  12.562  0.2686 -0.0662  0.2567
 3314W        W19208   1.623  10.292  12.665  0.1330  0.1195  0.2901
 3315W        W19209  11.405   4.670  13.818  0.0645  0.2368  0.1952
 3316W        W19210  19.178   7.720   9.646  0.3168  0.0953  0.0134
 3317W        W19211   5.822   3.084  10.176 -0.0967 -0.2241  0.3414
 3318W        W19212  16.643   5.736   2.567 -0.2969 -0.1645  0.1423
 3319W        W19213   3.314  11.695   3.372 -0.0297  0.0983  0.1341
 3320W        W19214   7.860   7.826  11.127  0.3321 -0.0841  0.6121
 3321W        W19215   2.023   2.414  10.355  0.2471  0.4562  0.1097
 3322W        W19216   3.514  16.508  13.787 -0.0521 -0.0297  0.0539
 3323W        W19217  16.928  15.631   2.411 -0.4340 -0.5241  0.0474
 3324W        W19218   1.529  12.614   3.883 -0.1508  0.2798  0.1989
 3325W        W19219   6.517   8.129  10.694 -0.0341  0.2691  0.1927
 3326W        W19220  15.497  12.897  12.117 -0.4077 -0.0834  0.2567
 3327W        W19221   3.118  12.559   2.285 -0.1085 -0.1137 -0.0340
 3328W        W19222   7.699   5.156   0.911 -0.0855 -0.0467  0.0656
 3329W        W19223  14.333  13.749   4.373  0.0006  0.2654  0.2856
 3330W        W19224   4.822   4.324  13.064  0.1070  0.0492 -0.4156
 3331W        W19225   1.871  17.755   0.559 -0.1903  0.3635 -0.1058
 3332W        W19226  17.373   6.991   4.921  0.0264  0.1681  0.2668
 3333W        W19227  14.067  10.829  13.364  0.0855 -0.0359  0.2010
 3334W        W19228   6.562   0.832   1.711  0.0461  0.1108  0.1846
 3335W        W19229  15.662   2.744   3.270  0.0145 -0.3054  0.0534
 3336W        W19230  10.758   3.742   1.643 -0.4872  0.0959  0.1315
 3337W        W19231   4.477   3.806   1.450 -0.2118 -0.1927  0.0228
 3338W        W19232   7.542  14.309   0.086 -0.2561  0.0482 -0.1704
 3339W        W19233   6.796  13.885  11.336 -0.0789 -0.0475  0.0883
 3340W        W19234   7.002  16.397   2.810  0.2262  0.0346  0.1030
 3341W        W19235  12.031  13.752   0.379 -0.4175 -0.4715  0.0346
 3342W        W19236  10.544  16.729  12.234 -0.1607  0.0977 -0.1815
 3343W        W19237  11.611  13.035  11.129  0.3640  0.1222  0.2437
 3344W        W19238  10.855  15.691   2.236 -0.0778 -0.1772  0.2217
 3345W        W19239   0.132   8.994  11.284  0.4591 -0.1644  0.3151
 3346W        W19240   4.020   1.224   6.007 -0.0673 -0.0939 -0.1222
 3347W        W19241   7.811   3.439   3.054 -0.4325 -0.1871  0.4219
 3348W        W19242   9.155  13.836  14.887 -0.0372 -0.0683  0.0910
 3349W        W19243   9.046  13.290   3.255  0.0633 -0.0705  0.1863
 3350W        W19244  12.090  12.286   2.404  0.1524  0.1288  0.0856
 3351W        W19245   3.361   9.771   4.773  0.0019 -0.0242 -0.1370
 3352W        W19246  17.345   2.772  14.312  0.0724 -0.1335 -0.0020
 3353W        W19247   0.236   6.326   0.227  0.3171  0.2019 -0.0900
 3354W        W19248   4.707   4.448  10.784 -0.0543 -0.0964  0.0971
 3355W        W19249  12.807   6.454  10.758 -0.0286 -0.1435  0.0795
 3356W        W19250  18.890   7.205  14.901  0.4039  0.4159 -0.0839
 3357W        W19251   4.497  11.350  14.920 -0.0527 -0.2369 -0.0242
 3358W        W19252  14.874  13.219   0.245 -0.0215 -0.1557  0.0313
 3359W        W19253   7.338   4.675   1.705  0.2819  0.5317 -0.0371
 3360W        W19254  15.890   4.551   2.125 -0.2202 -0.1814 -0.2270
 3361W        W19255   5.427   8.781  12.007 -0.4075 -0.1359  0.2373
 3362W        W19256   9.027  18.343   1.464  0.1426 -0.1194  0.3174
 3363W        W19257  16.348  15.598   0.355 -0.2354 -0.2108 -0.2275
 3364W        W19258   4.773   1.166   4.636  0.1522  0.0468  0.0230
 3365W        W19259   7.107   7.332  12.257  0.2699  0.4050  0.2778
 3366W        W19260   4.784  10.114   2.241  0.0944  0.3216  0.0429
 3367W        W19261   1.584   8.269   0.362 -0.2004 -0.1629 -0.0126
 3368W        W19262   8.259   7.023  11.208 -0.0839  0.0290  0.0852
 3369W        W19263  19.108   5.529  12.060  0.0061  0.2400 -0.1929
 3370W        W19264  19.214  10.200   0.328 -0.0281 -0.1697 -0.1280
 3371W        W19265  13.910   2.201  14.998  0.1905 -0.0653 -0.0841
 3372W        W19266  13.385   5.486   1.328  0.0989  0.0931 -0.1772
 3373W        W19267   5.025  15.467  10.362 -0.2191  0.0520 -0.1144
 3374W        W19268  17.207   0.406  15.055 -0.0732 -0.3391 -0.3901
 3375W        W19269   4.334  17.080   0.383  0.1359 -0.0670 -0.0601
 3376W        W19270   9.213  15.185   1.535  0.2585 -0.1060  0.2740
 3377W        W19271   8.472  14.335  12.445 -0.2008  0.0455 -0.1703
 3378W        W19272   7.238   8.315   2.416 -0.1787 -0.1172  0.0176
 3379W        W19273  15.256   2.271   0.380 -0.2495  0.1077 -0.1114
 3380W        W19274   8.088  17.175   3.641 -0.1812 -0.0997  0.1942
 3381W        W19275  11.814  10.476  13.513  0.0169  0.1823  0.1997
 3382W        W19276  18.746  18.020  12.131  0.3440  0.2963  0.3231
 3383W        W19277   7.136  14.259  11.450 -0.1515  0.1260  0.2884
 3384W        W19278  11.556   6.601  10.367  0.4233  0.1026  0.0360
 3385W        W19279   5.969   7.177   2.751  0.4583  0.0718 -0.3989
 3386W        W19280   6.749   2.751   2.123  0.1606  0.0540 -0.0140
 3387W        W19281  13.457  18.241   2.250  0.3367  0.2008  0.3497
 3388W        W19282  18.934   4.126  13.637  0.4151  0.1751 -0.1532
 3389W        W19283   9.606   9.714  10.924 -0.5675 -0.1318 -0.2634
 3390W        W19284  14.967   6.786  15.097  0.1983  0.3073 -0.0050
 3391W        W19285  12.083  10.721  12.590 -0.0502 -0.0868 -0.1468
 3392W        W19286   7.555   5.892   5.063  0.1610 -0.0757 -0.2712
 3393W        W19287  13.470   2.132   5.029  0.1142 -0.3015 -0.0801
 3394W        W19288  14.723   5.896   3.841 -0.0834 -0.1234  0.3194
 3395W        W19289   9.225   7.311  14.232  0.1762  0.4270 -0.0304
 3396W        W19290  14.652   4.073   0.691  0.2074  0.0264  0.0840
 3397W        W19291  18.421   5.275  14.321 -0.0645 -0.4318 -0.2869
 3398W        W19292   3.946   3.981   1.183 -0.1079  0.0269 -0.1736
 3399W        W19293   1.449   9.708  10.679  0.0263 -0.3816 -0.0196
 3400W        W19294   0.114   5.595  12.912  0.1427  0.0220  0.1362
 3401W        W19295   1.184  19.042   4.064  0.3358 -0.2630 -0.0413
 3402W        W19296   4.561   1.045   2.460 -0.1483 -0.2266 -0.1967
 3403W        W19297  15.076   3.663   3.576 -0.2442  0.3193  0.1562
 3404W        W19298  13.363  13.332   3.720 -0.1969  0.1659 -0.2179
 3405W        W19299   5.783   4.972   5.044 -0.0668 -0.1181  0.2166
 3406W        W19300   8.201  13.951   2.808 -0.1896 -0.0590  0.0371
 3407W        W19301  17.160   5.524   2.696  0.0643 -0.2560  0.1868
 3408W        W19302   7.169  13.643   2.052  0.0065 -0.2746  0.0478
 3409W        W19303  12.999   8.671  13.108  0.3725  0.3954 -0.0086
 3410W        W19304   5.069  17.980   3.317  0.0911 -0.1722  0.0933
 3411W        W19305  12.144   2.143   3.457 -0.1806 -0.2162  0.0850
 3412W        W19306   7.993   3.251  10.668 -0.0967  0.1435 -0.0072
 3413W        W19307  12.082   6.570  10.474 -0.1377 -0.0837  0.0742
 3414W        W19308  18.830   8.807   1.955  0.0199 -0.3415  0.1736
 3415W        W19309  17.531   5.021   3.760 -0.3714  0.3435  0.4321
 3416W        W19310  17.407   3.106  12.226  0.1397 -0.2593  0.0937
 3417W        W19311  11.448   2.197   4.648 -0.0401 -0.0234  0.0519
 3418W        W19312   5.079   9.735  11.655 -0.2556  0.1865 -0.3314
 3419W        W19313  13.694   7.416   0.692 -0.3097 -0.0397 -0.4354
 3420W        W19314   2.381  10.830  12.227 -0.3577 -0.3210 -0.1136
 3421W        W19315   2.077   9.793   4.871 -0.1810  0.1476 -0.0307
 3422W        W19316   7.536  18.151   2.152 -0.1808 -0.1183  0.1443
 3423W        W19317   4.607  14.833  14.145 -0.1762  0.0489 -0.2261
 3424W        W19318   9.117   6.299   5.086  0.0316  0.0395 -0.1334
 3425W        W19319   2.123   3.647   4.332 -0.3400 -0.3875  0.0488
 3426W        W19320  10.932   4.961   3.262  0.1688 -0.2113 -0.2727
 3427W        W19321  13.593  15.172  10.845 -0.2704 -0.4678 -0.3471
 3428W        W19322   8.242   2.158  14.592 -0.0668  0.0214  0.0767
 3429W        W19323   9.736   8.743  12.029  0.1154  0.2908 -0.1220
 3430W        W19324  13.337   3.976   1.088 -0.0900  0.2434  0.1409
 3431W        W19325   8.801  15.231   4.302  0.1147 -0.1887  0.1066
 3432W        W19326  11.498   4.958   3.015 -0.0995  0.4831 -0.0193
 3433W        W19327  10.436  18.893   5.326  0.2963 -0.1359  0.1767
 3434W        W19328   6.499   6.431   1.824  0.2502  0.1734 -0.0176
 3435W        W19329   2.742   6.143  14.300  0.0378  0.2613 -0.5401
 3436W        W19330  10.601   3.005   2.033  0.0073  0.0379 -0.0993
 3437W        W19331   3.735  18.215   1.318  0.1108 -0.2324 -0.0623
 3438W        W19332   7.128   7.203   4.834  0.1874  0.0577  0.1064
 3439W        W19333   7.251  10.263  12.626  0.0941  0.1381  0.1170
 3440W        W19334  11.266  17.053   4.671  0.3435 -0.0548 -0.0495
 3441W        W19335  14.249   8.189   4.036 -0.2218 -0.3108  0.2694
 3442W        W19336  14.717   8.904  13.590 -0.0922  0.1946  0.2099
 3443W        W19337  13.113  12.908   0.892 -0.3932 -0.1722 -0.0857
 3444W        W19338  14.985  10.276   4.503  0.1577 -0.2350  0.0835
 3445W        W19339  13.085  10.256  11.352 -0.1388 -0.0811  0.1884
 3446W        W19340  15.686  16.373   5.087  0.0021 -0.0485 -0.3166
 3447W        W19341  12.283  14.734  10.880  0.1067  0.2629 -0.0307
 3448W        W19342   3.940   7.631  11.123  0.2859 -0.0759 -0.1546
 3449W        W19343  10.721   8.244   9.433  0.3939 -0.0757 -0.0732
 3450W        W19344   3.476   2.800   3.638 -0.0753  0.2230 -0.1589
 3451W        W19345  13.754   7.290   4.919 -0.3997 -0.2465 -0.1687
 3452W        W19346   9.283   9.683   2.942  0.1931 -0.1564  0.1224
 3453W        W19347  18.710   3.952   2.705  0.1580  0.1632 -0.3193
 3454W        W19348   5.898   6.570   2.926 -0.2437  0.2021 -0.1784
 3455W        W19349   8.621  13.371   4.142 -0.3145  0.3924  0.1555
 3456W        W19350  15.483   0.052  12.852 -0.0934  0.0881  0.1999
 3457W        W19351  15.540  15.753   4.363  0.2863 -0.1735 -0.0373
 3458W        W19352   6.930  14.034  10.099 -0.0461 -0.1999 -0.1346
 3459W        W19353  13.696   9.529  14.791  0.1683 -0.1695  0.0600
 3460W        W19354  19.167  15.287   4.878 -0.3066 -0.0417 -0.0451
 3461W        W19355   5.889   9.391  10.458  0.0231  0.0954 -0.2314
 3462W        W19356  16.262   3.994   1.030  0.1324  0.0113  0.1742
 3463W        W19357  12.444   5.640   0.250 -0.0597 -0.2610 -0.2463
 3464W        W19358  11.708   8.220  14.833 -0.2678  0.1980 -0.1091
 3465W        W19359  15.286  15.141  12.794 -0.0078 -0.1199  0.2623
 3466W        W19360  12.359   3.881  13.979  0.0307 -0.0428  0.0055
 3467W        W19361   5.461   7.013  12.717  0.0827 -0.0163  0.0669
 3468W        W19362  16.816   8.181  14.143  0.2217  0.3170 -0.1855
 3469W        W19363   9.656  10.981  11.100  0.0485  0.3485 -0.0436
 3470W        W19364   8.787   1.988  12.305 -0.1015 -0.1040 -0.0495
 3471W        W19365   5.873  13.342   4.066 -0.1062  0.2122 -0.5660
 3472W        W19366   6.548   8.859   4.872  0.0062 -0.0551 -0.4618
 3473W        W19367   4.845   1.952   0.460  0.2001 -0.0038  0.2382
 3474W        W19368   9.854   3.150   4.181  0.2029  0.2515  0.1127
 3475W        W19369   0.195  13.861   2.210  0.0275 -0.1993 -0.2998
 3476W        W19370   4.645   6.810  13.946  0.1221  0.2109 -0.1372
 3477W        W19371   0.460  13.722   3.196  0.2735  0.0425  0.1634
 3478W        W19372  12.322   4.230   3.011 -0.2280  0.3559 -0.0646
 3479W        W19373   9.422   3.265  13.110  0.0044 -0.0682 -0.1476
 3480W        W19374   1.649  17.878   2.351 -0.0753 -0.0486  0.1327
 3481W        W19375   2.792   2.173  12.572 -0.4005  0.1754  0.0761
 3482W        W19376  12.584   9.202   9.850  0.0309 -0.0438 -0.0565
 3483W        W19377  17.909   7.256   4.162 -0.1084 -0.1109  0.1495
 3484W        W19378   4.203  12.768   0.806 -0.0969 -0.3591 -0.2991
 3485W        W19379  16.379   2.068   1.738  0.0502  0.0480  0.0993
 3486W        W19380  17.788   8.579   4.269  0.1124 -0.2129  0.3439
 3487W        W19381   6.787  15.839   2.090 -0.3052  0.2917 -0.0112
 3488W        W19382   8.214   7.474   9.940 -0.2651  0.2358  0.5104
 3489W        W19383   7.925   2.620  13.483 -0.0783  0.4313 -0.0541
 3490W        W19384  14.386   5.393   0.588  0.2078 -0.0845  0.1256
 3491W        W19385  18.809   0.725   1.838 -0.2402  0.0279 -0.0897
 3492W        W19386  14.016  14.027   0.671  0.1387  0.0896 -0.0128
 3493W        W19387  13.798   4.735   0.881  0.2130 -0.2025  0.3789
 3494W        W19388  10.891  18.037   2.698 -0.0530  0.2213  0.0698
 3495W        W19389  18.380   2.332   1.369  0.0332 -0.1179 -0.1036
 3496W        W19390  12.513   9.631  13.480  0.0873  0.1058  0.4691
 3497W        W19391  18.272   4.625   1.877  0.2684 -0.5254 -0.0839
 3498W        W19392  11.557  11.079   0.594 -0.0146  0.0265  0.0572
 3499W        W19393  15.232  18.300  13.355  0.1149 -0.0868  0.1040
 3500W        W19394  18.172  18.691  14.180 -0.0970  0.2203 -0.0052
 3501W        W19395  15.941   1.016  14.042 -0.3082 -0.1532  0.0843
 3502W        W19396   8.517  17.384  13.301 -0.0903 -0.0659 -0.0356
 3503W        W19397   0.919   1.444   3.443 -0.2857  0.0941 -0.2505
 3504W        W19398   1.804   5.841   3.767  0.2297 -0.0528 -0.2922
 3505W        W19399  17.208  13.365  14.746 -0.1055  0.0442  0.0256
 3506W        W19400  13.094   9.188   0.171  0.6198  0.0299 -0.0324
 3507W        W19401  16.621  17.788  13.737  0.1174  0.0347  0.2303
 3508W        W19402   0.955  17.494   2.618  0.4235 -0.2364  0.2884
 3509W        W19403   5.692   2.634   2.728 -0.0781 -0.0036 -0.0930
 3510W        W19404   9.093   9.153   2.905  0.0288  0.2280 -0.0035
 3511W        W19405   5.267   4.931  12.472  0.0220 -0.1174  0.2641
 3512W        W19406   1.817  17.789  14.362  0.0818  0.1587 -0.0169
 3513W        W19407  16.220   7.554   1.361 -0.2711 -0.1850 -0.1301
 3514W        W19408  18.220   2.628   2.696 -0.2465  0.0069  0.0917
 3515W        W19409  14.752   4.624   3.119  0.0667  0.0271 -0.0457
 3516W        W19410   3.862   4.504   3.072 -0.0242 -0.2012  0.0032
 3517W        W19411  10.588   1.945   2.879  0.0844  0.2973  0.1464
 3518W        W19412   7.693   6.763   4.638  0.1715  0.1932 -0.1415
 3519W        W19413  15.662   1.609  13.882  0.2620 -0.0500  0.3313
 3520W        W19414  13.953   4.919  14.214 -0.0266 -0.1889  0.1089
 3521W        W19415  11.127   3.650   3.598  0.1042 -0.2159 -0.1457
 3522W        W19416   5.858   0.127  14.666 -0.1835 -0.1252 -0.0298
 3523W        W19417   1.876   2.632   2.035 -0.3227  0.2107  0.1130
 3524W        W19418  18.384  14.446  14.117 -0.2362 -0.5820 -0.1363
 3525W        W19419  10.200   6.488  14.164  0.1662  0.2798  0.1304
 3526W        W19420   3.891  16.218  11.153 -0.1131 -0.0832 -0.1649
 3527W        W19421   9.918   3.869   2.203 -0.0413 -0.0860  0.1271
 3528W        W19422   5.499  16.882   5.500  0.1039 -0.1482  0.1049
 3529W        W19423  16.431   8.434   1.267  0.3598 -0.2464  0.3691
 3530W        W19424   8.693  12.290  12.400  0.3801 -0.4098 -0.2016
 3531W        W19425   2.343   1.958   3.888  0.0075 -0.1646 -0.3791
 3532W        W19426   4.874   5.213   2.274  0.3446  0.0753 -0.1632
 3533W        W19427   5.871   3.088  14.434  0.1037 -0.0000 -0.2494
 3534W        W19428   6.451  14.100  13.145  0.4913 -0.4550  0.2587
 3535W        W19429   2.354   0.681   2.367 -0.2865 -0.0234  0.2099
 3536W        W19430   5.065  13.668   4.307  0.1915  0.1864 -0.2174
 3537W        W19431   9.383  14.692   1.628 -0.1067 -0.2544 -0.2779
 3538W        W19432   8.139   3.963   0.236 -0.3157  0.1390 -0.2639
 3539W        W19433   4.418   6.556  15.009  0.1257 -0.0800  0.0704
 3540W        W19434  16.358  15.881  13.606  0.0182 -0.1194  0.1429
 3541W        W19435   1.980  18.195  12.101  0.0503  0.0040  0.0857
 3542W        W19436   2.299  16.155   0.134 -0.1067 -0.1362  0.4239
 3543W        W19437   1.992   2.360   4.591  0.2956  0.1543 -0.1714
 3544W        W19438   1.544   4.842   3.066  0.3595 -0.3430  0.0444
 3545W        W19439  15.093   0.399   0.197 -0.3774  0.0001 -0.3341
 3546W        W19440  15.907  16.555   2.641 -0.2984 -0.0389  0.0729
 3547W        W19441  12.070  13.313  14.700  0.0386  0.0084  0.3899
 3548W        W19442  14.970   4.662   3.669 -0.2078  0.1377  0.4040
 3549W        W19443   1.251  15.209   3.412  0.0898 -0.0457 -0.2402
 3550W        W19444   0.901  13.620   2.967 -0.2970 -0.0988 -0.2647
 3551W        W19445   2.371  16.138   3.966  0.0727  0.2734 -0.2233
 3552W        W19446  17.134  16.859   4.235  0.0758  0.1668  0.2856
 3553W        W19447  12.819  19.151   4.846  0.0313  0.0153 -0.1081
 3554W        W19448   1.185  17.355   3.598 -0.0409  0.2758 -0.2534
 3555W        W19449   3.033   5.428   0.854 -0.3235  0.1890 -0.0176
 3556W        W19450   2.676   0.414  13.989  0.1715  0.2198 -0.0682
 3557W        W19451  14.034  10.008  13.493 -0.0114 -0.1165  0.2791
 3558W        W19452  13.601   3.266   4.486  0.0584  0.1012  0.3027
 3559W        W19453   3.128  10.427   2.543  0.2578  0.0749  0.3944
 3560W        W19454   3.149  17.021   1.477 -0.2623 -0.0168  0.1329
 3561W        W19455   2.823   0.346   4.177  0.0548 -0.1668  0.1560
 3562W        W19456  13.683  18.038  13.944  0.3815 -0.1662 -0.2306
 3563W        W19457   7.764   2.554  14.786  0.2346 -0.0818 -0.4196
 3564W        W19458  15.740   9.752   2.271 -0.0062 -0.2119  0.2406
 3565W        W19459  13.309   4.843  11.589  0.3380 -0.1160 -0.0988
 3566W        W19460   2.710   1.325   5.347  0.5687 -0.0553  0.2104
 3567W        W19461  13.110  17.786  11.349 -0.0722 -0.0409  0.1250
 3568W        W19462   7.737   5.409   5.225  0.3478 -0.0838 -0.1215
 3569W        W19463   4.440   6.934   1.220  0.1394  0.2876 -0.0735
 3570W        W19464  15.736  13.873  12.977 -0.1314  0.1718  0.0759
 3571W        W19465   4.077   8.972  12.633  0.0449 -0.1762  0.3209
 3572W        W19466   5.656   9.672   2.516 -0.0051  0.1264 -0.4413
 3573W        W19467  13.698   0.030   2.641 -0.3143 -0.0955  0.0985
 3574W        W19468   8.018  11.224   1.260  0.1104  0.0876 -0.0710
 3575W        W19469   6.753   8.305   2.649  0.0698  0.0500  0.1145
 3576W        W19470   6.027   4.093   4.833 -0.3476 -0.1187  0.4579
 3577W        W19471   3.106   0.167  11.841 -0.2767 -0.0437 -0.3628
 3578W        W19472   9.812  17.814   3.069 -0.0598 -0.2630  0.1945
 3579W        W19473   8.595   9.257  14.964  0.0511 -0.2196 -0.0840
 3580W        W19474   8.262  15.090   0.351  0.3566 -0.2232  0.0719
 3581W        W19475   3.713  15.273   3.561  0.0643 -0.0414 -0.0421
 3582W        W19476   0.906   1.354  11.681  0.0482  0.2201  0.1993
 3583W        W19477   5.959   9.761   0.291  0.2254  0.1309  0.3975
 3584W        W19478   4.721  13.232   2.234  0.0387  0.3406  0.0777
 3585W        W19479  17.651   3.968  14.645 -0.2429  0.0816  0.0472
 3586W        W19480   8.544   4.001   2.115 -0.2296  0.1406 -0.2408
 3587W        W19481  11.464  15.690   2.163 -0.0153  0.2549  0.0287
 3588W        W19482   9.693   0.615  13.205  0.3735 -0.1407  0.4192
 3589W        W19483   8.498  17.873   0.189  0.0504  0.1598  0.1134
 3590W        W19484   3.017  17.205  13.598 -0.3765  0.1441  0.0016
 3591W        W19485  11.570   3.002  11.748  0.0808 -0.2196  0.0052
 3592W        W19486   6.723  16.763  13.453 -0.0596  0.1615 -0.1148
 3593W        W19487   0.204   5.160   4.614 -0.0743  0.0566  0.1469
 3594W        W19488   5.253   3.658   4.996  0.0534 -0.0214  0.2740
 3595W        W19489  19.007   4.741  12.531 -0.1649 -0.0656  0.1232
 3596W        W19490   9.515  10.834   2.145 -0.1837  0.1377 -0.2655
 3597W        W19491  12.643  15.890   3.534 -0.2818 -0.1337  0.0053
 3598W        W19492  17.066   3.595   3.433  0.0704 -0.0742 -0.2661
 3599W        W19493   8.496  11.216  11.478 -0.0069  0.0254 -0.1883
 3600W        W19494   9.269  12.654  10.299 -0.0409  0.0501  0.1275
 3601W        W19495  11.286  12.820   3.235 -0.3755 -0.1088  0.4481
 3602W        W19496  15.416   5.271   1.539  0.1556 -0.0185  0.0569
 3603W        W19497  15.517  12.321  12.259  0.2009  0.1101 -0.3328
 3604W        W19498  16.310  15.075  13.071 -0.1863 -0.0510 -0.2089
 3605W        W19499  10.435  13.549  12.053 -0.0394 -0.4564  0.1841
 3606W        W19500   9.350  13.218   0.241  0.1580  0.0605  0.0671
 3607W        W19501   5.552   1.943   3.295 -0.2731  0.1210 -0.0541
 3608W        W19502   7.810  11.763  15.021 -0.0892  0.0346  0.2172
 3609W        W19503   0.243   9.961   3.638  0.0237  0.0700  0.2049
 3610W        W19504  18.963   8.330   2.703 -0.1822 -0.0887  0.0174
 3611W        W19505  10.173   9.232   1.000  0.0892  0.0677  0.0018
 3612W        W19506   1.711   7.904   0.715 -0.0344  0.0561 -0.2005
 3613W        W19507  18.250   0.790  11.357 -0.0878  0.1245 -0.1175
 3614W        W19508   2.243  16.875  11.614 -0.2350  0.0984  0.1407
 3615W        W19509  11.719   1.839   2.795 -0.1738  0.0224  0.1489
 3616W        W19510   1.081   1.640  14.789  0.1518 -0.3696  0.0240
 3617W        W19511   8.734  17.690   3.074 -0.0988 -0.0275 -0.1777
 3618W        W19512  13.102  15.846   0.235 -0.1230  0.1580 -0.0812
 3619W        W19513  13.034  13.138  12.688  0.2247  0.0758  0.2363
 3620W        W19514   4.096  17.902   4.208 -0.0090 -0.1784  0.0107
 3621W        W19515  11.106   4.553  12.209  0.3473  0.1826 -0.2488
 3622W        W19516  13.531  14.621   1.687 -0.1828  0.0920 -0.0531
 3623W        W19517   0.902   8.057  14.490  0.2721  0.2021 -0.0043
 3624W        W19518  10.997  12.697   1.364  0.0735  0.1060  0.0695
 3625W        W19519   5.155   4.149  12.521 -0.1719 -0.1294 -0.2121
 3626W        W19520  11.878  11.943  10.463 -0.1013  0.1980  0.3074
 3627W        W19521  16.812   4.946   2.032  0.1007 -0.1750  0.1490
 3628W        W19522   2.680  16.599   2.813 -0.1590  0.1661 -0.2384
 3629W        W19523   5.241  19.063   0.734  0.3470  0.0236 -0.3393
 3630W        W19524   6.170  16.154   3.747  0.2100  0.2440  0.2178
 3631W        W19525  13.487   7.385   4.221  0.3311  0.0141 -0.2933
 3632W        W19526   0.601   7.798  12.501  0.1784  0.0402 -0.1590
 3633W        W19527   7.216   4.134   1.794 -0.1509 -0.3175 -0.0632
 3634W        W19528   2.156  12.770  11.024 -0.1109 -0.0579  0.3590
 3635W        W19529  18.998   9.853   4.961 -0.0040 -0.1542  0.0010
 3636W        W19530   2.353   6.721   3.924 -0.0758  0.2686  0.0175
 3637W        W19531  15.711  14.359  12.253 -0.2864  0.2667  0.0445
 3638W        W19532   8.522   9.080  12.858  0.1907  0.0531  0.2774
 3639W        W19533  15.816   4.451  12.794 -0.0266 -0.0263  0.0452
 3640W        W19534   8.629  12.660  11.016 -0.1307 -0.2114  0.0177
 3641W        W19535   2.178   8.003   2.039 -0.1712 -0.0903 -0.2254
 3642W        W19536  14.397   4.098   0.271 -0.0532  0.0490 -0.2669
 3643W        W19537   6.443   4.749  14.769 -0.2344  0.0569  0.1823
 3644W        W19538   3.899  16.765  14.805 -0.4658 -0.2892 -0.3113
 3645W        W19539   4.344   4.416  12.219 -0.0159  0.2315  0.1898
 3646W        W19540   8.308   5.532  12.130 -0.1111  0.2618 -0.0407
 3647W        W19541   0.136   6.366  14.758 -0.1782 -0.4094  0.0250
 3648W        W19542   2.647  16.442   2.258  0.1360 -0.0490  0.1280
 3649W        W19543   1.143  12.917   2.673  0.1244 -0.0125  0.0445
 3650W        W19544  15.503  19.147  10.993 -0.4679 -0.1736  0.1985
 3651W        W19545  18.155  16.410  10.366  0.0828  0.3194 -0.1461
 3652W        W19546  16.402   3.885   1.503 -0.0539  0.1438  0.3108
 3653W        W19547  18.776  11.642   4.269  0.0320  0.3596  0.0004
 3654W        W19548   2.238   0.275   3.506 -0.1255 -0.0768  0.1840
 3655W        W19549   7.631  16.998   3.294 -0.2064 -0.2110 -0.1567
 3656W        W19550  17.975  11.676   2.764 -0.0035  0.1839 -0.4586
 3657W        W19551  15.370   0.176  11.899  0.1117  0.3303  0.2732
 3658W        W19552  16.460   6.988  10.963  0.3581 -0.2719 -0.2053
 3659W        W19553   9.843   5.913  10.794 -0.1018 -0.2565 -0.3766
 3660W        W19554   4.297  18.626   2.195 -0.0554  0.2716 -0.1976
 3661W        W19555   9.301  10.103  13.743  0.3477  0.2929 -0.2410
 3662W        W19556   6.424   7.290  13.281  0.0478  0.0058 -0.1844
 3663W        W19557   9.444  15.754   2.280 -0.1394 -0.3298  0.1272
 3664W        W19558  12.367  11.721   4.193  0.2824  0.1018 -0.0615
 3665W        W19559   5.047   8.239  13.126  0.0145 -0.0905  0.1323
 3666W        W19560  12.018   8.815   2.997  0.1586 -0.0251 -0.0702
 3667W        W19561  14.931   9.352  10.153 -0.3788  0.1324 -0.2153
 3668W        W19562  13.716   8.750   0.789 -0.4230 -0.1228  0.0833
 3669W        W19563   5.605   8.183   9.908 -0.2763  0.0096  0.0886
 3670W        W19564  16.207  13.130  14.554 -0.1878  0.3267 -0.0999
 3671W        W19565  11.801  14.958   1.104 -0.1510  0.2355  0.3201
 3672W        W19566   1.619  13.898  12.203 -0.1099  0.0709  0.0536
 3673W        W19567   8.556  10.102  13.292  0.1533 -0.2212 -0.4467
 3674W        W19568  10.190  14.703  12.623  0.1115 -0.0582  0.2050
 3675W        W19569  11.160   9.383  12.138 -0.1965 -0.0076  0.0464
 3676W        W19570  17.914  15.702  13.961  0.0272  0.1411 -0.0470
 3677W        W19571  15.363   2.789   1.628  0.1938  0.0017  0.0050
 3678W        W19572   4.092   4.339  15.072  0.0284  0.1762  0.3131
 3679W        W19573  13.262   7.756   6.385 -0.1693 -0.1383  0.1273
 3680W        W19574  12.908   5.106   5.124  0.1800 -0.1387  0.0464
 3681W        W19575  17.760   9.791   1.597  0.0457  0.2168  0.0674
 3682W        W19576   8.125   2.987  13.106  0.0499 -0.0591  0.4008
 3683W        W19577   5.435   9.335  11.630  0.2208  0.1884 -0.1500
 3684W        W19578  10.726   1.747   0.524 -0.1025 -0.0902  0.0749
 3685W        W19579   3.033   1.408   2.229  0.0369 -0.0885  0.0588
 3686W        W19580   5.695   8.534   2.020 -0.0142 -0.2577 -0.1842
 3687W        W19581   9.041   3.724   2.150  0.3975 -0.2192  0.0016
 3688W        W19582   2.855  12.671   1.011 -0.0853  0.0032 -0.0061
 3689W        W19583   1.519   4.676  13.234  0.1390 -0.1120 -0.2117
 3690W        W19584   2.591  14.593  11.380  0.0724  0.0882 -0.3595
 3691W        W19585  16.187  12.557  12.756 -0.2773  0.2836  0.5440
 3692W        W19586  15.340   7.017  14.844  0.2808  0.0645  0.3290
 3693W        W19587  17.316   6.142   1.845  0.3929  0.1580  0.0331
 3694W        W19588  10.308  12.953   4.110  0.0684 -0.0634 -0.0437
 3695W        W19589  12.675   1.992  10.473 -0.1832 -0.3179  0.0407
 3696W        W19590  13.684  13.659  11.650  0.2094  0.0591  0.0711
 3697W        W19591   7.501  14.758  11.725 -0.1544 -0.0057 -0.1146
 3698W        W19592   2.181  17.723  11.157 -0.1304  0.2357 -0.2022
 3699W        W19593  10.692   2.792  12.081  0.0365  0.2063 -0.4110
 3700W        W19594  12.893  13.103  10.194 -0.1708  0.0904 -0.2608
 3701W        W19595  15.329   6.229  11.515  0.2937 -0.1729 -0.4484
 3702W        W19596   0.716  10.914   3.598 -0.0468  0.2398 -0.1702
 3703W        W19597   0.247  16.437  11.415  0.3604 -0.0777 -0.1669
 3704W        W19598  13.188   6.677  11.903 -0.0526  0.0633  0.1003
 3705W        W19599  19.052  12.775  12.060 -0.2531 -0.1436 -0.0817
 3706W        W19600   5.184   8.923  11.562  0.2388  0.2710  0.1849
 3707W        W19601   2.973   4.549  10.921 -0.0637  0.1606  0.0317
 3708W        W19602   7.522  17.274  14.288  0.0354 -0.0521 -0.3233
 3709W        W19603  13.568  16.986   2.265 -0.1592 -0.1636 -0.1434
 3710W        W19604   8.184  15.769  12.124  0.3292  0.0677  0.0614
 3711W        W19605  14.298   9.605  13.425 -0.2377 -0.2522 -0.2807
 3712W        W19606   6.037   5.266  14.181  0.0997  0.1948 -0.2575
 3713W        W19607  15.964  14.436  15.019 -0.1324 -0.0980 -0.2021
 3714W        W19608   2.611   1.886   5.287 -0.2055 -0.1469  0.1162
 3715W        W19609  17.370   7.817  10.864  0.0110 -0.1495 -0.1910
 3716W        W19610  18.851  12.791  12.993 -0.0350 -0.2116  0.0916
 3717W        W19611  16.027   5.772  10.812 -0.0847 -0.0737 -0.4022
 3718W        W19612  12.991   0.640  14.562  0.0070 -0.2293 -0.0701
 3719W        W19613  12.908   2.699   3.835 -0.2580  0.2519  0.4180
 3720W        W19614   8.210   9.716   3.600  0.0771  0.0118  0.1169
 3721W        W19615  10.403   1.103   5.338 -0.0929  0.1766 -0.0445
 3722W        W19616  14.970   3.018   4.553  0.1547 -0.0821 -0.1332
 3723W        W19617  18.972   1.655  10.149  0.0046  0.1057 -0.1778
 3724W        W19618  15.069   0.940   3.223 -0.3338 -0.2766  0.0219
 3725W        W19619  12.885   1.685  13.984 -0.0266  0.8119  0.3040
 3726W        W19620   3.309  14.620   5.247 -0.0304  0.0488  0.3403
 3727W        W19621   2.940   3.322  12.964  0.0900  0.3738 -0.1278
 3728W        W19622  14.810  17.011   5.399  0.1776  0.0651 -0.4243
 3729W        W19623   1.900  18.953  13.345  0.3115  0.1468 -0.3931
 3730W        W19624   9.458   7.806  13.915 -0.0763 -0.0497 -0.0261
 3731W        W19625  10.966   9.047  11.818 -0.2706 -0.3123 -0.4861
 3732W        W19626  11.571   5.763  15.074  0.0032  0.1601 -0.0541
 3733W        W19627  17.124  12.616   3.706  0.1288 -0.0246 -0.3215
 3734W        W19628  11.343  16.438   2.120  0.1275 -0.2244 -0.2525
 3735W        W19629  16.272  10.300   2.541 -0.0704  0.7014 -0.0481
 3736W        W19630   7.490  12.780   3.160  0.1078  0.2515 -0.1641
 3737W        W19631  12.487  11.688  14.164  0.0430 -0.1732  0.0684
 3738W        W19632  15.399  17.982  14.160 -0.2427 -0.1098  0.1315
 3739W        W19633   3.795   7.475  14.917 -0.1342  0.1480  0.0577
 3740W        W19634   6.785   0.577  14.331 -0.0339  0.1669  0.2207
 3741W        W19635  16.681  14.833   0.518  0.3716 -0.3133  0.2708
 3742W        W19636   1.327  10.992   1.523 -0.3889 -0.2286 -0.0147
 3743W        W19637  12.905  12.748   1.314  0.2939  0.0235  0.2234
 3744W        W19638   2.400   3.866   0.326  0.1159 -0.3517  0.2880
 3745W        W19639  14.586   7.165   2.270 -0.0097 -0.0636  0.0938
 3746W        W19640  12.234  12.764  10.936 -0.3397  0.1422 -0.3566
 3747W        W19641   6.500   9.814   2.911  0.3311 -0.3489 -0.0504
 3748W        W19642   3.223   9.661   3.970  0.1926  0.0185 -0.0676
 3749W        W19643  15.573   2.519   4.244  0.0754 -0.2051  0.1467
 3750W        W19644  17.679  18.470   4.218  0.0541  0.1096  0.0655
 3751W        W19645   8.230  17.153   4.200  0.3748  0.4758 -0.2918
 3752W        W19646  16.113   4.418  13.984  0.3562 -0.0312  0.1840
 3753W        W19647   9.703  14.915  11.006  0.0715  0.2782  0.2289
 3754W        W19648  18.622   7.298   0.568 -0.3090  0.1658  0.0458
 3755W        W19649   0.305  18.002  12.319 -0.0504 -0.0037  0.0870
 3756W        W19650  16.799   5.424   2.063 -0.0121 -0.0468 -0.2370
 3757W        W19651  14.450  15.787  14.096 -0.1914  0.1052 -0.1466
 3758W        W19652  13.405  17.759  11.790  0.0069 -0.3967  0.1275
 3759W        W19653   1.473  17.081  13.570 -0.0683  0.0297  0.3296
 3760W        W19654  18.726  17.062   2.631  0.0162  0.2752  0.3244
 3761W        W19655   3.119   7.369   1.713  0.1019  0.2350  0.0837
 3762W        W19656   7.511   2.097   0.117 -0.1848  0.1034  0.0231
 3763W        W19657  16.574  13.597   1.048 -0.0149 -0.2752 -0.3621
 3764W        W19658   9.493   8.402   5.161  0.3696  0.2596  0.2789
 3765W        W19659   2.383   6.818   9.702  0.1804 -0.2532 -0.1461
 3766W        W19660  14.610  15.676  11.075 -0.0341 -0.1203  0.2533
 3767W        W19661  10.587   1.548   2.438  0.1742 -0.0317 -0.2675
 3768W        W19662  12.019   6.903   3.381 -0.3341 -0.2507  0.0985
 3769W        W19663   7.591  11.323  14.090 -0.0605 -0.2124 -0.1404
 3770W        W19664  11.463   3.073   0.780 -0.1453 -0.0922 -0.1537
 3771W        W19665   7.380   1.317   1.361 -0.1477  0.1336 -0.2418
 3772W        W19666  12.046   5.801   3.157  0.1300  0.1603 -0.1878
 3773W        W19667   5.530  19.009  13.202 -0.1517 -0.3463 -0.0242
 3774W        W19668   8.838   8.314  10.755 -0.1529  0.3537 -0.1171
 3775W        W19669  18.159  16.979  13.269  0.0943  0.1077 -0.0300
 3776W        W19670   5.050   1.622   4.711 -0.1540  0.1144  0.2714
 3777W        W19671   1.422   0.390  14.360 -0.0528  0.4079  0.1637
 3778W        W19672  11.210  10.881  10.564  0.0443 -0.0696 -0.0899
 3779W        W19673   4.122  19.012   9.962  0.0818  0.1185  0.0763
 3780W        W19674   6.698   3.986   2.631 -0.0838 -0.0590 -0.0403
 3781W        W19675  15.245   6.751  12.186  0.0167 -0.2191  0.1151
 3782W        W19676   9.865   0.136   3.254  0.1412  0.0252 -0.0870
 3783W        W19677   3.841   8.704   1.470 -0.2501 -0.0354  0.1436
 3784W        W19678  17.187   8.849   0.630 -0.1598  0.2030 -0.3205
 3785W        W19679  10.087  14.295   9.926  0.1072  0.2442 -0.0438
 3786W        W19680   5.990  18.434   1.810  0.4028  0.0878 -0.2009
 3787W        W19681  19.009   2.758  12.975  0.0146 -0.2898 -0.0352
 3788W        W19682   5.984   0.842   4.822 -0.0596 -0.0210 -0.0380
 3789W        W19683  15.958   7.718  14.857  0.0741  0.1727  0.4413
 3790W        W19684  14.754  15.052  13.178 -0.1096  0.2084 -0.1622
 3791W        W19685   0.118   8.192   5.469 -0.1620 -0.0043 -0.4661
 3792W        W19686  18.961   5.300   5.250 -0.0830 -0.0188  0.2173
 3793W        W19687   7.658   4.103  13.360  0.2554  0.1341 -0.1822
 3794W        W19688   5.582  16.042   3.375  0.0547 -0.0147  0.0768
 3795W        W19689   5.949  11.417  14.145  0.1719  0.5292  0.0360
 3796W        W19690  15.483   2.038   1.144  0.2505 -0.0547 -0.0182
 3797W        W19691   6.598   6.944   1.852  0.0354  0.2239 -0.3018
 3798W        W19692  16.486  18.595   3.874 -0.0918 -0.0848 -0.0816
 3799W        W19693   9.153  13.358  14.716 -0.0864 -0.3029  0.1830
 3800W        W19694   4.428  16.595  12.191  0.0134 -0.0365  0.0332
 3801W        W19695  16.652   0.615  10.630  0.2389 -0.0329  0.0067
 3802W        W19696   5.405   8.156   4.700  0.2440 -0.0816  0.2226
 3803W        W19697  18.879   9.956  10.644  0.0624 -0.2528 -0.3608
 3804W        W19698   7.841  12.379   4.232 -0.1503 -0.2749  0.4466
 3805W        W19699  18.102   5.878  13.279 -0.2012  0.2437 -0.1367
 3806W        W19700   0.989  12.462   4.733  0.1231  0.5128 -0.0622
 3807W        W19701  12.511   7.326   1.642  0.1845 -0.2365 -0.0640
 3808W        W19702  10.996  14.414  12.353  0.0575  0.0486 -0.2397
 3809W        W19703   5.475   0.924  11.366 -0.0304  0.2238 -0.0410
 3810W        W19704   0.573  11.222  10.431 -0.1272  0.0402 -0.1511
 3811W        W19705   3.220  16.128   1.625 -0.1024  0.1305  0.0747
 3812W        W19706   8.755  12.812  12.522  0.1144 -0.0943 -0.1831
 3813W        W19707   5.812  14.442  11.037 -0.0550 -0.1339 -0.2192
 3814W        W19708  17.181  12.990   1.388  0.0169  0.0137  0.1873
 3815W        W19709   5.143   1.652   3.570  0.0506 -0.0736 -0.4276
 3816W        W19710  12.501   8.229   4.372 -0.1569  0.2564  0.1181
 3817W        W19711   7.345  11.214  12.287  0.3275  0.2958  0.2092
 3818W        W19712   1.270  18.850  12.484 -0.3111 -0.0390 -0.1089
 3819W        W19713   1.173  18.105   9.665  0.1978  0.2003  0.0282
 3820W        W19714   8.444  11.065  14.550  0.2372 -0.1417  0.0108
 3821W        W19715  14.942  16.791   4.487  0.1804  0.1413 -0.3631
 3822W        W19716   0.713  18.696  11.098  0.1407  0.2208 -0.3286
 3823W        W19717   7.313  10.675   3.015 -0.1008  0.0904  0.1039
 3824W        W19718  12.602  10.245   3.137 -0.1874 -0.1363 -0.0053
 3825W        W19719   5.560  14.918  11.484 -0.0983  0.2071  0.0293
 3826W        W19720   6.172   8.632   3.300  0.2843 -0.5179 -0.0541
 3827W        W19721   9.287   9.175  12.026  0.0180 -0.2850 -0.1029
 3828W        W19722   6.069   4.897  11.463 -0.1144  0.1806 -0.1122
 3829W        W19723   9.267   0.795   3.087  0.2395 -0.3207 -0.0506
 3830W        W19724   9.886  12.914   0.633  0.0682 -0.1379  0.5348
 3831W        W19725   2.122  14.848  10.093 -0.1705  0.3207  0.0235
 3832W        W19726  15.591  11.783   3.365  0.1472 -0.0743 -0.0988
 3833W        W19727   9.978   8.425   1.046 -0.0890 -0.1847 -0.1646
 3834W        W19728   6.475  11.594  10.820  0.0079  0.2388 -0.0704
 3835W        W19729   4.028   1.954   9.885 -0.0054 -0.1974 -0.2481
 3836W        W19730   0.100   2.877   2.092 -0.0011 -0.3145 -0.2513
 3837W        W19731  11.371   5.201   0.604 -0.0950  0.0345  0.1083
 3838W        W19732  15.865   1.491   3.387 -0.2351  0.2731  0.0606
 3839W        W19733  13.550  12.521  10.285  0.0673 -0.3244 -0.4047
 3840W        W19734  12.965  14.982   2.907  0.3583 -0.1237 -0.0265
 3841W        W19735  19.152   5.479  14.732  0.0889 -0.1198 -0.0398
 3842W        W19736   0.137   4.369   0.799  0.0707  0.1363  0.0736
 3843W        W19737   5.071   3.465  11.818 -0.1617 -0.2902  0.0620
 3844W        W19738  18.809  10.315  13.609 -0.1972 -0.0984  0.1349
 3845W        W19739  12.108  17.866  14.935  0.2709  0.2446 -0.2966
 3846W        W19740   9.662   5.358  12.255 -0.0297  0.0677  0.1031
 3847W        W19741   8.134  10.891  10.609  0.2783 -0.0702 -0.1193
 3848W        W19742  15.653  11.246  11.493  0.0007  0.2112 -0.1147
 3849W        W19743  13.636  14.624  12.309 -0.0287  0.1707  0.2418
 3850W        W19744  18.350   6.629  13.623 -0.1852  0.3573  0.3903
 3851W        W19745  14.067  14.558   0.294 -0.1042 -0.0575  0.0882
 3852W        W19746   0.107  15.967  14.720 -0.1922  0.0094 -0.1537
 3853W        W19747  11.384   6.531   1.770  0.3714  0.0214 -0.3642
 3854W        W19748   4.457  16.430   1.482 -0.0568  0.1389 -0.1172
 3855W        W19749  17.155   1.970  12.853 -0.2169 -0.0974 -0.2194
 3856W        W19750  16.081   6.911  10.619 -0.2754 -0.0173  0.0695
 3857W        W19751   6.994  12.392   4.408  0.2501  0.2352 -0.1666
 3858W        W19752  13.850   4.647  13.738 -0.3229  0.2933 -0.1848
 3859W        W19753   6.535   8.238   0.443  0.0279  0.1271  0.3317
 3860W        W19754   3.781   5.599   5.198 -0.4488  0.2560  0.2643
 3861W        W19755   3.877  17.680  13.555  0.0956 -0.4497  0.0207
 3862W        W19756   8.170   4.547  14.314 -0.0940  0.3575 -0.0969
 3863W        W19757  17.941   8.893   0.240  0.2105 -0.3542 -0.2240
 3864W        W19758   0.707   7.781  14.857  0.1847 -0.1512  0.0146
 3865W        W19759   6.395   1.523  12.846 -0.0049 -0.1567  0.0010
 3866W        W19760  17.719   1.832   0.385 -0.0408 -0.0133  0.0131
 3867W        W19761  17.991   9.052  12.956 -0.0204  0.0710  0.0037
 3868W        W19762   6.048  14.465   4.412  0.3613 -0.1070  0.0715
 3869W        W19763   9.108  16.545   0.519 -0.1450  0.1358  0.3704
 3870W        W19764  10.659  18.748  11.119  0.3206  0.1224  0.0640
 3871W        W19765   7.638   0.626  12.038 -0.1412 -0.1833 -0.1610
 3872W        W19766   8.413   9.454   0.897  0.0170  0.1724  0.1120
 3873W        W19767   9.037  17.179   0.550 -0.1578 -0.0535 -0.2926
 3874W        W19768  18.496  12.709   1.383 -0.2245 -0.0642 -0.2335
 3875W        W19769   2.140  11.162  10.959  0.0637 -0.2196  0.1173
 3876W        W19770  15.496  17.629   4.435  0.3301 -0.0517 -0.0275
 3877W        W19771  12.140   1.143  13.592  0.0509  0.1666  0.2662
 3878W        W19772   7.759   6.768  14.617  0.1518  0.2680  0.0606
 3879W        W19773  14.428   8.397   3.589 -0.2215  0.0846  0.1117
 3880W        W19774  17.010  18.115   0.034  0.0167 -0.1292 -0.0128
 3881W        W19775   2.349  11.534   4.878 -0.0904  0.0535  0.0823
 3882W        W19776  11.128   4.003  10.399 -0.1065 -0.0510 -0.2989
 3883W        W19777  18.221   3.303   4.135 -0.0109 -0.1090 -0.1552
 3884W        W19778  14.788   8.024   4.926 -0.1319  0.3479 -0.2229
 3885W        W19779   0.047   8.696   3.989 -0.4359 -0.0516 -0.0490
 3886W        W19780   8.551  11.691  12.976 -0.0995 -0.0145 -0.1927
 3887W        W19781  18.605  16.899   0.916  0.2370  0.2390  0.0406
 3888W        W19782   7.689  15.837  12.167  0.2006 -0.1609  0.0357
 3889W        W19783  10.956   3.625  11.657 -0.1080 -0.3995  0.0829
 3890W        W19784  18.478  10.990  12.918  0.3557 -0.0467 -0.3910
 3891W        W19785   8.551   9.446  13.705  0.2119 -0.0945  0.2478
 3892W        W19786   3.428   0.312  14.093 -0.0364 -0.1567 -0.1799
 3893W        W19787  12.471   3.745  14.930  0.0649  0.0043 -0.1480
 3894W        W19788   2.348   2.564  10.029  0.2712 -0.1003  0.2482
 3895W        W19789  16.310   0.567   0.661  0.2360 -0.3236  0.0216
 3896W        W19790   1.690   6.775   2.349 -0.0990 -0.0780  0.0035
 3897W        W19791  15.897   1.561  12.470  0.1038 -0.1960  0.0042
 3898W        W19792   1.293   0.572  11.206  0.1033 -0.0158 -0.0968
 3899W        W19793   1.686   2.056  14.982  0.1376  0.1032  0.1814
 3900W        W19794   9.824   6.300   1.626  0.2177  0.5263  0.5382
 3901W        W19795  14.608  10.474  13.564  0.2202 -0.0457  0.0101
 3902W        W19796  17.624   3.468   4.836 -0.0464  0.1086 -0.2618
 3903W        W19797   7.458  14.926  14.342 -0.0622  0.0175  0.1267
 3904W        W19798  15.598  14.046   2.684 -0.0816  0.2867 -0.1232
 3905W        W19799   9.840   9.990  11.780  0.2872  0.0949  0.1601
 3906W        W19800  17.610   3.507   2.062  0.0344  0.0531 -0.3123
 3907W        W19801  10.071  12.348  14.988  0.1094  0.0480 -0.1470
 3908W        W19802  14.841  12.204  14.510  0.0507 -0.1432 -0.0256
 3909W        W19803  14.511  15.923  15.039  0.1231 -0.0204 -0.3408
 3910W        W19804  18.944  11.652  10.618 -0.3490 -0.2115  0.3758
 3911W        W19805   2.234  16.092   3.496  0.0171 -0.1674  0.3301
 3912W        W19806   4.883  12.049   4.457  0.2011 -0.0860 -0.0336
 3913W        W19807   9.474   0.572   3.913 -0.0572 -0.0363 -0.0398
 3914W        W19808   9.265   4.610  14.247 -0.1222  0.1018  0.1105
 3915W        W19809  13.425   9.797   5.260 -0.1641  0.2518 -0.0156
 3916W        W19810  18.196   7.076   4.545  0.4491 -0.0924  0.0652
 3917W        W19811   5.542   6.778  13.149  0.0825  0.2772 -0.2295
 3918W        W19812  12.633   9.694   0.008  0.1843 -0.1816 -0.2521
 3919W        W19813  16.017   7.865   1.650  0.3094  0.1881  0.0474
 3920W        W19814   9.172   5.650   3.192  0.2356 -0.1702  0.0475
 3921W        W19815   2.133   2.755  12.271 -0.0679 -0.4114  0.0155
 3922W        W19816   3.786   8.969   1.963  0.0735  0.5421 -0.0824
 3923W        W19817   7.188   3.976   5.608 -0.0419 -0.1843 -0.0477
 3924W        W19818   9.407  16.401  10.987  0.0334 -0.2070 -0.0558
 3925W        W19819  16.081   1.583  14.729  0.1799  0.1311  0.0176
 3926W        W19820   1.773   3.921  13.678 -0.2247 -0.0187 -0.0599
 3927W        W19821   2.141   3.627  11.907  0.0244  0.2565  0.0204
 3928W        W19822   0.288   3.463   0.686  0.3058 -0.1878 -0.3107
 3929W        W19823  10.634  17.650  11.125 -0.1260 -0.1249  0.4285
 3930W        W19824  10.204   1.286  10.680 -0.1828  0.1406  0.0293
 3931W        W19825   7.714  13.053   5.361 -0.0641  0.0630 -0.0739
 3932W        W19826  12.410   5.065   2.043  0.2844  0.1787  0.0162
 3933W        W19827  11.428   0.934   1.594 -0.1415  0.1236  0.3599
 3934W        W19828   9.534  15.482  11.259 -0.0606 -0.1818 -0.3460
 3935W        W19829  14.675   4.143   1.227  0.0042 -0.2900 -0.2853
 3936W        W19830   4.297   0.863   1.077 -0.3052 -0.1286 -0.4103
 3937W        W19831  12.660  16.838   1.644 -0.0126  0.1456 -0.1236
 3938W        W19832   9.760   1.607   0.554  0.0747  0.1252  0.0003
 3939W        W19833   3.630   3.683  13.508  0.0459  0.0323  0.1279
 3940W        W19834   3.410  14.939  13.594 -0.2406  0.1721  0.0721
 3941W        W19835   5.811   8.454  11.808  0.2923 -0.1161 -0.2019
 3942W        W19836  11.127  11.794  11.807  0.0147  0.2485  0.0900
 3943W        W19837   5.276   1.590   5.169  0.2028  0.3831 -0.0392
 3944W        W19838   2.910   2.934  14.605 -0.1932  0.1996 -0.1468
 3945W        W19839   0.581   1.099   0.118  0.0641 -0.2523  0.0669
 3946W        W19840  10.427   5.572   3.796  0.0934 -0.0292  0.4196
 3947W        W19841   1.457  10.623   1.841 -0.2928 -0.2197 -0.2710
 3948W        W19842  11.402  13.033  11.742 -0.4824  0.1061 -0.0275
 3949W        W19843   4.033  17.626   2.012  0.0293 -0.1247 -0.2652
 3950W        W19844   4.715   7.913   2.435 -0.0755 -0.0727 -0.2822
 3951W        W19845   2.123  19.127  10.495  0.1218 -0.0962 -0.0897
 3952W        W19846  13.785   5.919  15.106  0.0222  0.0153  0.4223
 3953W        W19847  12.456   6.427   5.033 -0.0379 -0.3094  0.2169
 3954W        W19848   0.382   8.895   0.646  0.0658  0.1132 -0.1509
 3955W        W19849  17.774   7.741   4.427  0.0961  0.1388 -0.2001
 3956W        W19850   6.457   7.775  13.298  0.2765  0.1281 -0.0435
 3957W        W19851   5.335  17.301  12.586 -0.1878 -0.1896 -0.0110
 3958W        W19852  12.405  16.850  11.221  0.1160  0.0168  0.0272
 3959W        W19853  15.793   2.511   3.702 -0.3243  0.1819 -0.0008
 3960W        W19854  12.978   5.608   3.983 -0.0971  0.2363  0.1890
 3961W        W19855  14.096   3.580   5.472  0.0978 -0.1064  0.0029
 3962W        W19856  15.379   4.435   3.806 -0.1209  0.1121 -0.0599
 3963W        W19857   2.439   2.463  14.068  0.1137 -0.0213  0.0425
 3964W        W19858   2.739   8.344   0.144 -0.1406  0.1375  0.0118
 3965W        W19859  10.423   7.751  12.886 -0.3271 -0.3944 -0.2763
 3966W        W19860   2.371  10.388   5.402 -0.0603 -0.3241  0.0152
 3967W        W19861   9.955   7.783  11.312  0.4159 -0.0269 -0.1403
 3968W        W19862  15.287   6.386   5.600  0.1107  0.0861  0.1346
 3969W        W19863  17.651  11.609   2.023 -0.1935  0.0437 -0.1981
 3970W        W19864   5.694   1.527   4.205 -0.0528  0.0594  0.0474
 3971W        W19865  13.867   7.925  13.090  0.0531 -0.1430 -0.1360
 3972W        W19866  14.928   2.995   5.609 -0.0554 -0.0603 -0.1533
 3973W        W19867   4.562   8.913  11.979 -0.1783  0.1201 -0.1024
 3974W        W19868  17.510  10.421   4.403 -0.1451  0.0673 -0.2438
 3975W        W19869  16.825   0.455  14.055  0.1610  0.1166 -0.2636
 3976W        W19870  15.280  11.649  10.583  0.3589  0.2190  0.1918
 3977W        W19871  14.992   7.494   0.811 -0.1593 -0.2905 -0.3577
 3978W        W19872   7.910   0.630  12.467  0.0426  0.0082  0.0369
 3979W        W19873   9.184   0.084  11.264 -0.2533 -0.3021  0.0188
 3980W        W19874  10.636   5.721   2.123  0.0563 -0.2623 -0.1689
 3981W        W19875   3.567  10.022  14.251 -0.3000 -0.3914 -0.0359
 3982W        W19876   3.585  17.488   0.687  0.0245  0.0794  0.1109
 3983W        W19877   8.786  15.747  14.578  0.0865 -0.2358 -0.1392
 3984W        W19878  12.225  12.816  14.230 -0.1396 -0.0434  0.2461
 3985W        W19879  11.307  16.173  10.743  0.1176 -0.0521  0.0382
 3986W        W19880   4.745  16.461  10.506  0.2477  0.1789 -0.0739
 3987W        W19881   4.494   2.341   4.606  0.0006  0.0794  0.2326
 3988W        W19882   7.430   8.696   0.429  0.0815  0.0690 -0.0050
 3989W        W19883   7.722  19.076  14.837 -0.2118 -0.0288 -0.1484
 3990W        W19884   6.655   8.274  11.578  0.0256  0.1997  0.1956
 3991W        W19885  16.581   2.511   0.976 -0.1694 -0.1770  0.1004
 3992W        W19886   2.042   0.855   4.733 -0.1653  0.3978  0.1047
 3993W        W19887   7.176   5.894  13.207 -0.1830 -0.1293  0.1672
 3994W        W19888  14.377  14.705  13.376  0.2479  0.0792  0.0223
 3995W        W19889   3.171  18.860  12.940 -0.1872 -0.1547  0.4118
 3996W        W19890   7.787  10.761   2.070  0.1122 -0.1908  0.0685
 3997W        W19891  11.651  12.613  13.622  0.2359  0.1180 -0.1375
 3998W        W19892   1.405   0.609   3.605 -0.1521 -0.1181 -0.1344
 3999W        W19893  14.466  11.591  12.472  0.1608 -0.2628 -0.0167
 4000W        W19894   5.273   7.419   1.746 -0.0794  0.1840  0.0976
 4001W        W19895   6.441   4.998   2.101  0.1626 -0.1153 -0.0005
 4002W        W19896  14.003   8.091   4.746 -0.0814  0.1834 -0.0749
 4003W        W19897  15.707   8.013   2.404 -0.0250 -0.0094  0.0957
 4004W        W19898   4.057  17.853   0.583 -0.0334  0.3160 -0.1628
 4005W        W19899  17.506  12.722   0.973 -0.2335 -0.2664  0.0269
 4006W        W19900   3.992   4.130  11.016  0.0266  0.0532 -0.0113
 4007W        W19901  12.081   9.708  15.054 -0.0198  0.0527 -0.0011
 4008W        W19902  14.162   0.829   1.744  0.1456 -0.1775  0.1277
 4009W        W19903  16.229  18.179   4.063 -0.3304 -0.1579 -0.2927
 4010W        W19904  11.570  18.259   2.871 -0.0666  0.0762  0.0399
 4011W        W19905  17.534  13.329   0.006 -0.0439  0.3657 -0.1216
 4012W        W19906  12.003   7.245   1.624 -0.2097  0.2045  0.0036
 4013W        W19907  15.537  13.253   2.833  0.3006 -0.1234  0.1104
 4014W        W19908   3.408  14.340   1.329 -0.1542  0.0676  0.0102
 4015W        W19909  12.198   5.354   2.476  0.1300 -0.1131 -0.1804
 4016W        W19910   0.696   6.944   3.431  0.1410  0.2019  0.1131
 4017W        W19911  16.484  10.717  14.730  0.1937 -0.2909  0.1772
 4018W        W19912  18.539   2.009   2.244  0.2165 -0.0701 -0.3501
 4019W        W19913   2.517  16.585   4.082 -0.4706  0.5392 -0.2660
 4020W        W19914  18.595   5.967   0.351  0.0186  0.1493 -0.1255
 4021W        W19915   2.422  17.165   4.082 -0.0108 -0.0110 -0.1615
 4022W        W19916  18.103  10.205  11.786  0.0812 -0.0943  0.2750
 4023W        W19917  16.354  17.126  11.413  0.0062  0.0286  0.0947
 4024W        W19918   7.542  15.771   1.576  0.3476  0.0595  0.2640
 4025W        W19919  18.901  18.358   2.082 -0.0272  0.2960 -0.5830
 4026W        W19920   6.108   0.267  12.026  0.1106  0.0939  0.2201
 4027W        W19921   8.625  14.208  14.244  0.3674  0.3225 -0.1136
 4028W        W19922   9.066  10.739   0.069  0.0894 -0.1086 -0.1896
 4029W        W19923  16.534   4.072   5.036 -0.0710 -0.4963 -0.0110
 4030W        W19924   3.609   1.530  12.410  0.0873 -0.1377 -0.0848
 4031W        W19925   9.236  17.079  10.428  0.1647 -0.0713  0.2328
 4032W        W19926  13.785  19.048  10.247 -0.1748  0.2535 -0.1139
 4033W        W19927  13.879   1.009   2.646  0.0466 -0.2299  0.2574
 4034W        W19928   6.074  16.665   2.876  0.0910 -0.2078  0.0098
 4035W        W19929  10.701  17.999  12.637  0.0056 -0.0439  0.1052
 4036W        W19930   4.536  12.791  11.930  0.0108  0.3241  0.0279
 4037W        W19931   9.310  10.504   1.828 -0.3154 -0.1817  0.3491
 4038W        W19932   5.407   9.172   0.920 -0.2920  0.0417 -0.1314
 4039W        W19933   2.647  16.147   9.901 -0.0067 -0.0353 -0.2104
 4040W        W19934  12.710  11.753  11.162 -0.0853  0.2032  0.1224
 4041W        W19935  15.175  10.332  14.751 -0.2382  0.4861 -0.0818
 4042W        W19936   7.893  10.482  12.257 -0.0184  0.3048 -0.0048
 4043W        W19937   8.251  18.943   3.000 -0.0016  0.0537 -0.2893
 4044W        W19938  14.224   8.774  12.375 -0.0400  0.2725  0.0200
 4045W        W19939  14.293   1.105   1.199 -0.0895 -0.2218 -0.1626
 4046W        W19940   9.027   1.771   3.258 -0.1328  0.0102  0.1295
 4047W        W19941   9.233   1.138   2.701  0.2867  0.1127  0.0083
 4048W        W19942  14.777  19.145  10.095  0.1955  0.1349  0.1217
 4049W        W19943   5.353  13.549  10.696  0.0198 -0.3748 -0.0105
 4050W        W19944   8.721  14.644  14.436 -0.1324  0.2776 -0.0578
 4051W        W19945   4.908   3.310  13.588 -0.3521 -0.0848  0.1346
 4052W        W19946  16.670   6.749  11.993 -0.2101 -0.3207  0.1791
 4053W        W19947  16.581  11.321   2.482  0.0247 -0.2109 -0.1662
 4054W        W19948   6.825  13.193  14.570 -0.0850 -0.0148 -0.0108
 4055W        W19949  12.312   2.688  14.239  0.1208 -0.3417  0.1974
 4056W        W19950  10.429  10.901  14.235  0.2021 -0.1057 -0.0022
 4057W        W19951   0.733  14.236   4.039  0.1322 -0.0698 -0.1222
 4058W        W19952   4.233  11.261   5.554  0.4249 -0.1859 -0.2289
 4059W        W19953   2.192   9.094   1.667  0.1054  0.3152  0.0445
 4060W        W19954  18.751   2.546   5.612  0.0998 -0.2920 -0.1945
 4061W        W19955  17.408  14.793  12.809 -0.2299  0.0813  0.3022
 4062W        W19956  18.002   9.975  11.038 -0.1009  0.2249 -0.1948
 4063W        W19957  18.145  19.110   2.197  0.0282 -0.0025  0.1752
 4064W        W19958  12.848   1.702   1.707  0.0820 -0.0163  0.2279
 4065W        W19959   3.793  13.416   0.625 -0.2093 -0.0837 -0.3202
 4066W        W19960  14.309   8.515   9.625  0.0832  0.1732 -0.2006
 4067W        W19961   7.497  18.097  14.618  0.1453  0.4675 -0.1155
 4068W        W19962  12.046   0.208  11.833 -0.0985 -0.2359  0.1407
 4069W        W19963  14.581   8.206  13.794  0.1634  0.1553  0.0597
 4070W        W19964  15.388  16.552   3.563 -0.3023 -0.0685 -0.2138
 4071W        W19965   4.446   2.556   0.171  0.0915  0.0144  0.1714
 4072W        W19966  14.776   3.581   1.443 -0.0367  0.2218 -0.1071
 4073W        W19967  14.490  18.406  13.739 -0.3455  0.0765 -0.3500
 4074W        W19968  10.187  18.470  14.710 -0.1265 -0.0936 -0.0225
 4075W        W19969  14.052  13.412   0.655  0.3401  0.0016 -0.3291
 4076W        W19970  11.573   2.765  10.661 -0.0251 -0.0849 -0.2938
 4077W        W19971   4.860   0.599  14.241 -0.2340  0.0787 -0.0299
 4078W        W19972   8.354   5.181  13.817 -0.1672  0.0800 -0.2361
 4079W        W19973   0.816   6.819  11.478 -0.0452  0.4555  0.0777
 4080W        W19974  12.736   3.385  10.565 -0.1119  0.1959  0.1706
 4081W        W19975   3.088   3.196   4.496 -0.1578  0.1420 -0.0330
 4082W        W19976  17.499   5.054   2.701  0.1274  0.1138 -0.0032
 4083W        W19977  13.334  17.609   4.421  0.0780 -0.0956  0.2683
 4084W        W19978   9.126  11.721  10.716  0.1037 -0.0275 -0.0325
 4085W        W19979   2.924  10.712  12.752 -0.1165  0.1394  0.1852
 4086W        W19980  16.529   4.351   2.680  0.0143 -0.4703  0.2587
 4087W        W19981  11.288   3.746  12.929 -0.1542 -0.3752  0.4513
 4088W        W19982   5.615  18.653   1.420 -0.2817  0.2629  0.4809
 4089W        W19983  13.238  18.095   3.062 -0.0554  0.1505  0.0023
 4090W        W19984  14.195   7.032  14.058 -0.3256  0.1100  0.1801
 4091W        W19985  12.440  14.559   0.540  0.2395 -0.0217  0.0391
 4092W        W19986   5.869   5.990  12.890 -0.1167 -0.2109 -0.2980
 4093W        W19987   6.691   0.008  15.015 -0.1548 -0.2431 -0.1927
 4094W        W19988  10.980  11.278   4.469  0.3836  0.0188 -0.1167
 4095W        W19989   5.496  15.454  10.245 -0.0399  0.0868  0.2390
 4096W        W19990  14.386   4.954   3.951 -0.1932 -0.0258  0.1953
 4097W        W19991   9.875   0.771   0.002  0.0676 -0.0047  0.2152
 4098W        W19992   9.196   9.759  14.130  0.4439  0.2347  0.0716
 4099W        W19993  13.028   2.554  13.098  0.2599  0.0524 -0.0256
 4100W        W19994  16.089   4.943   2.440  0.1612 -0.0920 -0.0125
 4101W        W19995  16.910   3.394   4.033  0.0224  0.2909  0.1065
 4102W        W19996  14.521  14.851   5.437 -0.0971 -0.2447 -0.1650
 4103W        W19997   0.188  18.807  12.001 -0.0624  0.0809  0.1014
 4104W        W19998   9.759  19.109   1.280  0.2679 -0.0881  0.1673
 4105W        W19999  17.253  16.991   0.415  0.2723 -0.2442 -0.3150
 4106W        W20000  17.882   6.081  14.108 -0.1817 -0.1521  0.2385
 4107W        W20001  16.693  18.875   0.036 -0.1606  0.0185  0.1341
 4108W        W20002  10.881   2.971  11.261  0.1756  0.0136 -0.1636
 4109W        W20003   0.161  13.876   4.862  0.2841 -0.0594  0.0992
 4110W        W20004   4.515   9.980   2.671  0.0245 -0.1996 -0.0030
 4111W        W20005   1.221  15.895  10.649  0.2924 -0.0431 -0.1359
 4112W        W20006  14.831   7.022  14.186  0.0557 -0.2800 -0.2102
 4113W        W20007   9.442  16.967   4.045  0.2159 -0.1977 -0.1517
 4114W        W20008   8.459   2.975  12.257  0.0325 -0.4128 -0.1142
 4115W        W20009  17.568   0.291  13.983  0.1575 -0.0436  0.0444
 4116W        W20010   0.842  18.309  14.165 -0.0724 -0.1682  0.0158
 4117W        W20011   1.087  15.614  14.572  0.0440 -0.0920  0.2795
 4118W        W20012   7.314  19.015   4.124 -0.0690 -0.0048 -0.0758
 4119W        W20013   4.063   3.813   2.847  0.3092 -0.0006 -0.1219
 4120W        W20014   0.345   2.266   1.512  0.0926 -0.0287 -0.0434
 4121W        W20015  15.260  17.086   5.790  0.0037  0.0043  0.0494
 4122W        W20016  19.133   5.337   0.864 -0.4406 -0.1459 -0.1117
 4123W        W20017   7.036  14.058  12.200 -0.2348 -0.3356 -0.0816
 4124W        W20018  12.769   1.670  10.898  0.0463  0.0219 -0.0517
 4125W        W20019  16.611  18.324  13.746 -0.3651  0.3779 -0.0156
 4126W        W20020  15.895  15.706  11.019  0.2009 -0.1604  0.0012
 4127W        W20021   0.433   5.689   3.923  0.0901 -0.0962  0.0147
 4128W        W20022   3.128   1.657  10.930  0.2113 -0.1641 -0.0778
 4129W        W20023  18.006   4.002   3.207 -0.1359 -0.0834  0.3221
 4130W        W20024   0.883   3.829  12.720 -0.3419  0.0784  0.0962
 4131W        W20025   2.896   1.682  12.790 -0.1016  0.0305 -0.1279
 4132W        W20026  13.206   0.268   5.695  0.2028  0.4487 -0.0343
 4133W        W20027   7.340   9.335  11.556  0.1522  0.0823  0.2447
 4134W        W20028   4.280  11.513   3.703  0.0542 -0.0047 -0.1412
 4135W        W20029   0.162   7.531   3.760  0.3803 -0.3064 -0.1638
 4136W        W20030   5.049  14.777  11.310 -0.0483 -0.2867  0.2785
 4137W        W20031   0.150   7.230   3.283  0.1550 -0.0270  0.2441
 4138W        W20032  15.589  18.483   2.382 -0.2196  0.2393 -0.1539
 4139W        W20033  17.438  13.207  12.746  0.0740  0.0683 -0.0015
 4140W        W20034   7.528  16.787   4.889 -0.0735 -0.1542 -0.0814
 4141W        W20035   8.328  18.386  12.290 -0.3259  0.0688  0.1391
 4142W        W20036  18.110  10.990  13.527  0.2862 -0.2533  0.1435
 4143W        W20037  15.486  17.474   2.926 -0.2332  0.2729  0.0494
 4144W        W20038  11.285  18.634   2.077  0.0665 -0.1530  0.2662
 4145W        W20039  11.206   7.732  11.002 -0.1754  0.0089 -0.2516
 4146W        W20040   1.158  11.582   2.108  0.0146 -0.1059 -0.1521
 4147W        W20041   9.837  16.601  14.490  0.0567  0.0224 -0.1407
 4148W        W20042   4.958   2.297   0.073  0.2292  0.2552  0.0954
 4149W        W20043   7.315  12.421  13.314 -0.0771  0.1212 -0.0218
 4150W        W20044   7.086   8.715  11.750 -0.2738 -0.0714  0.2703
 4151W        W20045   1.100   6.748   5.211  0.0687  0.0486 -0.0426
 4152W        W20046   6.611  14.053  10.480 -0.2598 -0.1164 -0.1063
 4153W        W20047   1.974   6.188   1.499  0.0487  0.3165 -0.1123
 4154W        W20048  12.252   2.882   0.877  0.1703 -0.2699  0.1007
 4155W        W20049  17.945  17.252  10.472 -0.0112 -0.0846  0.1754
 4156W        W20050   2.771   6.823   3.648  0.5238  0.0370  0.0849
 4157W        W20051  18.832  10.314  11.353 -0.0118  0.2700 -0.0790
 4158W        W20052  12.787   7.902   0.504  0.1942  0.2584  0.0530
 4159W        W20053  16.360   3.805  13.190  0.2563  0.0851 -0.1331
 4160W        W20054   3.563   6.667   0.261  0.1939 -0.1103  0.0257
 4161W        W20055  10.022  18.960   3.530  0.1002 -0.0307  0.0808
 4162W        W20056   7.178   3.213   4.994 -0.1170  0.2211 -0.3814
 4163W        W20057   9.734  17.131   1.114  0.1581 -0.0623 -0.0411
 4164W        W20058  18.008   3.111   4.698 -0.4734 -0.3599 -0.3702
 4165W        W20059  14.778   0.144   5.021 -0.3334  0.1189  0.0379
 4166W        W20060  17.844   6.436  14.470 -0.2190 -0.1112  0.1343
 4167W        W20061   0.103  16.650   2.031  0.4194 -0.3430  0.0232
 4168W        W20062   9.630  12.647   3.746 -0.1735 -0.0925 -0.2402
 4169W        W20063  19.110   6.465  13.376  0.3185 -0.0060 -0.2825
 4170W        W20064  14.948  13.925   3.380  0.0176  0.3952  0.1556
 4171W        W20065  12.507  14.876   2.016  0.0168 -0.3547  0.0331
 4172W        W20066  13.472  10.279   2.276 -0.1181  0.0082 -0.1522
 4173W        W20067  16.874   7.891  12.899 -0.1863  0.1085  0.0098
 4174W        W20068   8.392   2.277  14.100 -0.1334  0.0402  0.3959
 4175W        W20069   3.695   1.498   0.885  0.2234 -0.2752 -0.3336
 4176W        W20070   9.234  17.959   2.239 -0.0550 -0.1900 -0.3024
 4177W        W20071   9.228  11.520  13.641 -0.1659 -0.0820 -0.1679
 4178W        W20072   6.203  14.441  11.984  0.2028 -0.1064  0.1232
 4179W        W20073   5.961  15.312  13.789  0.0201 -0.2360 -0.0443
 4180W        W20074   7.767  13.248  12.107 -0.0425  0.0163  0.0094
 4181W        W20075   4.860   1.731  13.711  0.0467 -0.0098 -0.2133
 4182W        W20076   9.546   5.626   4.642  0.3535  0.0950 -0.0814
 4183W        W20077   6.132  10.749   2.079  0.0459 -0.1132  0.1903
 4184W        W20078   3.992   0.084   3.814  0.0238 -0.5250 -0.0119
 4185W        W20079   9.528   0.029   4.616 -0.0820 -0.2465  0.0607
 4186W        W20080   7.999  11.274  11.304  0.1931  0.0315 -0.2802
 4187W        W20081  14.107   4.249  11.387  0.1921 -0.1331  0.3836
 4188W        W20082  12.442   5.421  10.762 -0.1052 -0.0338  0.1051
 4189W        W20083   2.741   2.736   5.133 -0.0787  0.1981  0.2159
 4190W        W20084   2.591   5.350   2.289 -0.3754 -0.1817 -0.0178
 4191W        W20085  15.099   3.316  11.205 -0.1843  0.0052  0.0179
 4192W        W20086   4.966   1.006   2.846  0.1487 -0.6832 -0.1479
 4193W        W20087   2.184  13.581   0.589 -0.0769 -0.0680 -0.1404
 4194W        W20088   3.037  14.301   5.679  0.2878  0.0104 -0.1265
 4195W        W20089   9.930  17.552   0.800  0.1787 -0.2855  0.1128
 4196W        W20090  16.037  17.193  14.694 -0.0925  0.1085 -0.0574
 4197W        W20091   5.773  11.115  13.734  0.0623 -0.2402 -0.0027
 4198W        W20092   2.807   6.618  11.875  0.1930 -0.2515 -0.0937
 4199W        W20093  13.797  11.752  13.763 -0.1561 -0.2984  0.1652
 4200W        W20094  14.308   8.138   0.380  0.1435 -0.2663  0.1260
 4201W        W20095  16.451  16.973   0.979 -0.1822  0.3186  0.3570
 4202W        W20096   7.387  17.907   3.231 -0.0406 -0.2296  0.1887
 4203W        W20097  15.550  17.963  15.095  0.2598  0.2188 -0.0603
 4204W        W20098  15.705  17.166   1.619 -0.1634 -0.0156 -0.1888
 4205W        W20099   6.858  17.213  13.906  0.1563  0.1730 -0.1394
 4206W        W20100   1.609  15.430   3.810 -0.1063  0.1616 -0.1613
 4207W        W20101   7.736   8.098   2.388 -0.1836  0.0846  0.3101
 4208W        W20102  13.125   5.947   4.671  0.1500 -0.2327 -0.0696
 4209W        W20103   0.347   4.779  14.211 -0.0008 -0.1796  0.1948
 4210W        W20104  17.356   0.647  13.188  0.4312  0.3522 -0.0016
 4211W        W20105  16.481   3.571   4.821  0.1660 -0.0205 -0.0318
 4212W        W20106  16.527   9.451   5.419 -0.1442  0.0019  0.0884
 4213W        W20107  12.596  18.448   4.423 -0.2436 -0.1900  0.2064
 4214W        W20108   2.999   8.669   0.893  0.2488  0.2974 -0.2168
 4215W        W20109   7.960   5.647  12.625  0.1220  0.0051 -0.1695
 4216W        W20110  18.281   9.606  11.319  0.5257  0.1457  0.2244
 4217W        W20111   6.077  10.732  10.244  0.0227  0.3741 -0.2405
 4218W        W20112  17.688  12.394  14.356  0.1897 -0.0523  0.2781
 4219W        W20113  18.591   5.964   3.032 -0.1225 -0.0995  0.1098
 4220W        W20114   0.767  15.040  10.517  0.1969  0.2010 -0.1070
 4221W        W20115  13.108  15.405  14.346  0.1175  0.0771  0.2590
 4222W        W20116   9.175   8.804   3.242 -0.0324 -0.2020 -0.1845
 4223W        W20117   0.215   9.506  11.303 -0.0907 -0.2964 -0.0830
 4224W        W20118   6.227   5.885   5.072 -0.0484  0.2239 -0.4280
 4225W        W20119  14.429  13.694   0.893  0.2265  0.1502  0.2469
 4226W        W20120   3.923   2.666   0.297 -0.2078 -0.0604 -0.1822
 4227W        W20121  16.777  12.240  10.997  0.3512  0.2743  0.1482
 4228W        W20122  11.425   8.466   1.480 -0.1628 -0.1205  0.0150
 4229W        W20123   3.786  10.230  13.200 -0.1227  0.1512 -0.1511
 4230W        W20124   8.980  14.458   0.661 -0.1001 -0.5368 -0.1356
 4231W        W20125   4.043  15.447  13.857  0.1950 -0.0830  0.0228
 4232W        W20126   1.231   5.723  13.368  0.2564 -0.2933 -0.4069
 4233W        W20127   8.777   6.411  13.896 -0.2703 -0.2354 -0.2692
 4234W        W20128  10.887   1.215   4.423 -0.3122  0.2072  0.0582
 4235W        W20129   8.719  17.439  12.479  0.1704  0.1889  0.1685
 4236W        W20130   8.483  13.853   1.393  0.4984  0.2372 -0.0209
 4237W        W20131  17.603   6.442   1.050 -0.1156  0.0520  0.0085
 4238W        W20132   7.121   8.543   2.855  0.0628  0.0260 -0.2529
 4239W        W20133   7.446  13.577  14.752 -0.0291 -0.0776  0.1110
 4240W        W20134  13.074   9.790  11.101  0.2302 -0.4599 -0.0913
 4241W        W20135  18.364  17.354  11.304 -0.4417 -0.0809  0.1697
 4242W        W20136  18.147   0.861  11.855 -0.2186  0.0568  0.3532
 4243W        W20137   0.700  10.205  12.966  0.1697  0.2108 -0.0495
 4244W        W20138  12.054  17.856   3.154  0.2076  0.0259  0.0194
 4245W        W20139   1.555   5.521   4.261 -0.1315 -0.0638  0.1676
 4246W        W20140   0.659  14.007  13.982 -0.1173  0.2130  0.1578
 4247W        W20141  13.610   7.908   0.914 -0.0239 -0.0440 -0.1443
 4248W        W20142   7.755  14.264  11.743  0.2484 -0.0362  0.1309
 4249W        W20143   3.456  18.319   2.493  0.0360 -0.2677  0.1212
 4250W        W20144  16.332   6.421   5.658 -0.0927 -0.0141 -0.0572
 4251W        W20145   9.103   8.756   4.902 -0.2126  0.1913 -0.2189
 4252W        W20146   5.412   6.131  12.214 -0.2241 -0.0909 -0.3095
 4253W        W20147   0.312   5.629   0.733 -0.0088  0.0216  0.0446
 4254W        W20148  10.175  14.374   1.531  0.1094  0.1320 -0.2062
 4255W        W20149  11.079   4.323   0.532 -0.3083 -0.1461 -0.0885
 4256W        W20150  12.718  17.797  10.913 -0.2561  0.0854 -0.0694
 4257W        W20151  14.271   6.478   0.586 -0.1200 -0.2564  0.5550
 4258W        W20152   0.157   8.261  13.927 -0.1348 -0.1742  0.2351
 4259W        W20153  10.480  14.519  10.246  0.2921  0.1590 -0.1429
 4260W        W20154  13.411   6.171   0.503 -0.1608  0.2260 -0.1566
 4261W        W20155   1.104  10.303  11.976  0.1011  0.0809 -0.0811
 4262W        W20156  18.018   5.121  14.677 -0.0321  0.1215  0.4218
 4263W        W20157   1.580   6.160   3.462 -0.1978  0.1172  0.2785
 4264W        W20158  17.521   6.272   5.721 -0.1206 -0.2282 -0.1948
 4265W        W20159   7.643   4.253   2.589 -0.2024  0.0708  0.3475
 4266W        W20160   0.919  11.861   4.470  0.1670 -0.1296  0.1506
 4267W        W20161   1.497  11.104   3.296  0.1118 -0.0063  0.0858
 4268W        W20162   4.246   3.600   5.016 -0.1109 -0.1902  0.3602
 4269W        W20163   3.019  12.406  14.823 -0.0487 -0.0317  0.3855
 4270W        W20164  16.780  12.010  11.525  0.0258 -0.2367 -0.3962
 4271W        W20165  13.262  14.869  13.641 -0.0939  0.4865 -0.3904
 4272W        W20166  12.381   8.813  14.665  0.1454 -0.1210 -0.3381
 4273W        W20167   3.703   9.449  10.184  0.2147  0.0938  0.0723
 4274W        W20168  11.597   5.074  14.801  0.5139 -0.2469  0.4682
 4275W        W20169  14.794  15.774   4.652  0.0997 -0.0321  0.2689
 4276W        W20170   2.349  16.864   4.475 -0.0452  0.0537  0.5528
 4277W        W20171   2.433   9.914   3.173 -0.2311 -0.2053  0.0084
 4278W        W20172   4.220  13.768   0.545  0.0544  0.0497  0.2233
 4279W        W20173   9.683  12.732  11.239  0.0369  0.2129  0.1841
 4280W        W20174   6.506  13.546   1.829  0.0502 -0.0497  0.0900
 4281W        W20175   9.007  18.963   0.603  0.2663 -0.2096 -0.1506
 4282W        W20176   4.775   7.383  13.443  0.0984  0.3898 -0.0167
 4283W        W20177   3.045   7.472   5.800 -0.1040  0.0918 -0.0620
 4284W        W20178  13.673  16.269   5.632  0.0523 -0.0579  0.0148
 4285W        W20179  17.118  12.078  11.935  0.1401 -0.0593  0.2591
 4286W        W20180  13.786   6.403  10.558  0.0420  0.1315 -0.0807
 4287W        W20181   3.386   2.092   4.929 -0.4471  0.1094  0.1379
 4288W        W20182  12.447   3.912   3.928  0.2435  0.2985  0.2941
 4289W        W20183   5.814   9.162   3.205 -0.1391 -0.0366 -0.0265
 4290W        W20184  10.858  11.904   4.325  0.1751  0.1280  0.1022
 4291W        W20185   8.562  15.825  14.137 -0.0804 -0.2074  0.1587
 4292W        W20186   5.961   8.809  10.973 -0.3087 -0.1739 -0.0798
 4293W        W20187   1.142   6.277   1.964  0.3554  0.0260  0.3619
 4294W        W20188   7.382   6.659   1.405 -0.2164  0.1949  0.2979
 4295W        W20189  18.220  11.386  11.342  0.0175 -0.3732 -0.0125
 4296W        W20190   8.144   3.466  13.151 -0.2116  0.1872  0.0658
 4297W        W20191  17.087  11.940  10.100 -0.2414  0.1888 -0.0828
 4298W        W20192   1.615   9.431   5.986  0.0112 -0.2355 -0.0809
 4299W        W20193  11.641   6.589   2.986 -0.0005  0.0890 -0.2232
 4300W        W20194   6.293   5.713  11.021 -0.2821 -0.2207 -0.0603
 4301W        W20195   7.422  18.579  13.466 -0.0296 -0.0275 -0.4136
 4302W        W20196   1.937  13.668  14.888  0.1729  0.3290 -0.1029
 4303W        W20197  13.247  17.976  13.709 -0.0239  0.0832  0.0156
 4304W        W20198  10.273   6.966  14.475 -0.1379  0.1904  0.0243
 4305W        W20199   1.619   4.645   1.424 -0.0030 -0.0710  0.0301
 4306W        W20200   0.717   2.085  13.349 -0.0498 -0.2923 -0.0354
 4307W        W20201  17.816  12.671   5.156 -0.1806  0.3087 -0.0172
 4308W        W20202  10.807  12.612  11.298  0.0400 -0.0387  0.0436
 4309W        W20203  12.969   2.634  13.822  0.0267 -0.5256 -0.2446
 4310W        W20204   5.288  15.992  10.349 -0.3245 -0.2792 -0.2547
 4311W        W20205  13.487   8.395  11.291  0.0029 -0.1683 -0.3398
 4312W        W20206   9.491   2.466  10.821 -0.0134  0.1868  0.3733
 4313W        W20207  16.327   7.736   0.725  0.0203 -0.0018  0.2724
 4314W        W20208  16.598   6.671  15.007 -0.0800  0.1827 -0.1444
 4315W        W20209   0.963  18.058   4.176  0.3679 -0.3273 -0.0896
 4316W        W20210  17.188   4.870   5.048  0.3263 -0.0049 -0.1341
 4317W        W20211   9.945   6.137   2.066 -0.0294  0.1714 -0.1078
 4318W        W20212   3.672   8.197   2.525 -0.2151  0.3061  0.1268
 4319W        W20213  17.297   6.091   0.872  0.2041  0.0478 -0.2806
 4320W        W20214   4.107  17.383   0.841  0.3255 -0.2140  0.1002
 4321W        W20215   8.139   6.973  14.292 -0.0957 -0.1242  0.0509
 4322W        W20216   6.771  10.819   4.654  0.1402  0.0380 -0.1413
 4323W        W20217   4.573  18.562   1.772 -0.2437  0.2940  0.0738
 4324W        W20218  10.584  14.386  12.571  0.0193  0.1008 -0.0659
 4325W        W20219   4.557   0.125   3.459  0.0560  0.1320  0.1474
 4326W        W20220  10.582   4.559   5.314 -0.2221 -0.0105  0.5338
 4327W        W20221   7.435   7.725  12.166 -0.3096  0.2135 -0.1662
 4328W        W20222   2.958  17.569   5.052 -0.1613  0.2174 -0.0353
 4329W        W20223  11.886   3.309   0.477  0.1676  0.0662 -0.2157
 4330W        W20224   3.591  13.350   1.129 -0.0182 -0.0817  0.2060
 4331W        W20225   2.360   5.442   4.834  0.2108  0.1718  0.1501
 4332W        W20226  12.902   1.107  12.278 -0.0903  0.0765  0.2516
 4333W        W20227  15.774  10.241   2.057  0.3596 -0.2337  0.2928
 4334W        W20228   8.665  13.697   2.546 -0.1351 -0.0847 -0.2090
 4335W        W20229   5.661   0.018   9.731  0.0081 -0.1163 -0.0373
 4336W        W20230   2.644   4.415  15.105  0.0759 -0.1494  0.2756
 4337W        W20231  19.089  18.105  14.197 -0.0387  0.0665  0.3118
 4338W        W20232   7.101  14.826   0.738 -0.0156 -0.2146  0.0905
 4339W        W20233  12.681   6.038  15.106  0.0559  0.1109  0.2008
 4340W        W20234   0.685  12.369  10.189  0.0634 -0.0147  0.0914
 4341W        W20235   8.879   3.038   3.400  0.0239  0.1395  0.0305
 4342W        W20236   2.069   0.622  12.069  0.1901 -0.2754  0.3651
 4343W        W20237  14.340   1.169  12.028 -0.1860 -0.0200  0.1245
 4344W        W20238   6.518   7.256   2.217 -0.2490 -0.1711 -0.1848
 4345W        W20239  14.676   8.638  11.579  0.1923 -0.2752 -0.0580
 4346W        W20240   7.998   2.915   1.365  0.1220  0.1018 -0.1103
 4347W        W20241  17.157   8.630   5.063 -0.2477  0.0984  0.2201
 4348W        W20242  14.964   0.950  13.306 -0.0661  0.0525 -0.2049
 4349W        W20243  10.554  12.047   5.243 -0.2068  0.0208  0.0672
 4350W        W20244  16.375   8.661  10.813 -0.0095 -0.1127 -0.2922
 4351W        W20245   8.353  11.993  12.667  0.2901  0.2872  0.1736
 4352W        W20246   4.322  10.178   1.907 -0.1024 -0.1216 -0.1385
 4353W        W20247  10.773   1.522   1.034 -0.0097  0.0354 -0.3011
 4354W        W20248   1.994  15.175  13.575 -0.2836 -0.0655 -0.0307
 4355W        W20249   9.870   6.846   3.602  0.0269  0.1115  0.0988
 4356W        W20250  17.081   4.417  14.071  0.0950  0.0842  0.3669
 4357W        W20251  14.913  16.266  12.504 -0.3625 -0.0091 -0.0617
 4358W        W20252   3.443  13.019   2.297 -0.1910 -0.2779  0.1753
 4359W        W20253  15.795   7.949  13.965  0.3616  0.1599 -0.0428
 4360W        W20254   6.165  13.471  10.443  0.1345 -0.1910 -0.0514
 4361W        W20255   4.227   4.235   4.366  0.0503 -0.1494  0.2881
 4362W        W20256  12.567  16.199  11.955  0.0613 -0.1210 -0.2113
 4363W        W20257   0.520   1.912  12.745  0.2059 -0.1782 -0.2403
 4364W        W20258  12.799  13.673   0.979  0.1072 -0.0783  0.0644
 4365W        W20259   8.272   0.387  12.638  0.2406  0.4008 -0.1182
 4366W        W20260   2.539  14.517   0.471 -0.0398 -0.0817 -0.2059
 4367W        W20261   1.189   9.003   3.243  0.0702  0.2778  0.2847
 4368W        W20262  10.498   8.551   2.237  0.0375 -0.3789 -0.2934
 4369W        W20263   6.692  14.109   5.370 -0.0693  0.1100  0.0355
 4370W        W20264  15.251   6.430  10.597 -0.1160  0.0604  0.0181
 4371W        W20265   3.908   3.355   2.764 -0.1143 -0.0472 -0.3574
 4372W        W20266  15.171   8.622   2.224  0.0351 -0.2519  0.2126
 4373W        W20267  14.123   9.990   0.545  0.1964 -0.0586  0.0708
 4374W        W20268   6.790   6.106  11.229 -0.2264 -0.2682 -0.1261
 4375W        W20269  15.784   2.650  10.138  0.1298  0.1222  0.2128
 4376W        W20270  11.005  15.057   3.796 -0.1638 -0.1478 -0.3755
 4377W        W20271   0.752  14.016  11.100 -0.0073  0.2919 -0.2154
 4378W        W20272   4.993  18.236  11.397  0.4166  0.0889 -0.0525
 4379W        W20273  11.871   1.947  11.120  0.2307 -0.1843  0.3004
 4380W        W20274   6.271  17.305   0.268 -0.1842  0.2240  0.1076
 4381W        W20275   4.947   8.959   2.338 -0.0273  0.4093 -0.1978
 4382W        W20276  14.570   5.459   1.113 -0.0006  0.2737  0.2199
 4383W        W20277   3.169  11.044  12.163  0.0854 -0.1819 -0.0225
 4384W        W20278   3.410   9.087   0.085 -0.1312  0.3712  0.4471
 4385W        W20279  13.099   9.501   2.033 -0.1406  0.0449  0.0229
 4386W        W20280  12.308  18.992   1.292  0.0791  0.0333 -0.1236
 4387W        W20281  15.730   9.773   4.063  0.1655  0.1161 -0.2084
 4388W        W20282   5.994  13.391  14.721 -0.0036  0.1629  0.0822
 4389W        W20283   0.298   4.921   4.134  0.1652  0.3278  0.0407
 4390W        W20284   9.479  12.507  14.702 -0.0378  0.2218 -0.2550
 4391W        W20285  11.793  17.801   2.728  0.0082  0.1427  0.0163
 4392W        W20286   9.952   4.004  13.421 -0.0270  0.1311  0.2264
 4393W        W20287  18.140   9.822  14.890  0.0846 -0.3269  0.1890
 4394W        W20288  10.696  13.004  14.625 -0.0624  0.2846 -0.1792
 4395W        W20289  15.980   6.506   0.184 -0.1501 -0.2143 -0.0623
 4396W        W20290  11.240  18.541   0.587 -0.1599 -0.2936  0.0804
 4397W        W20291   5.673   9.332   0.524  0.2421  0.0103 -0.3183
 4398W        W20292  13.870   2.818   9.874  0.0120 -0.1981  0.0824
 4399W        W20293   5.841  15.772   0.258  0.0049  0.0537 -0.0672
 4400W        W20294   3.414  17.248  11.557 -0.0524  0.2196  0.2856
 4401W        W20295   7.028  12.239  10.262  0.1571  0.1710  0.0217
 4402W        W20296  15.987   5.652  12.632  0.0400 -0.2284 -0.2626
 4403W        W20297   1.767  16.071  12.045 -0.0700 -0.0012 -0.4960
 4404W        W20298   1.630  10.345   2.773 -0.0361 -0.0196 -0.4699
 4405W        W20299   1.856   9.484   1.715  0.4541  0.2761  0.0460
 4406W        W20300  10.612  18.246  14.848 -0.1159 -0.3298  0.1093
 4407W        W20301   9.377  15.880  13.946 -0.2910  0.0599 -0.1448
 4408W        W20302  11.453  11.337   2.501 -0.0090  0.2893 -0.1899
 4409W        W20303  14.308   5.803   0.920  0.0174 -0.1489 -0.2113
 4410W        W20304  16.807   3.466  14.489  0.1356  0.0483  0.2385
 4411W        W20305   3.388   7.125  12.281 -0.3087  0.2292 -0.2247
 4412W        W20306  16.227   3.270  12.761  0.1815  0.0023 -0.1699
 4413W        W20307  12.637  15.490  10.155  0.1367 -0.0946  0.0587
 4414W        W20308   8.632  17.986  14.389 -0.2098 -0.1072 -0.1742
 4415W        W20309  12.500  10.510  12.117  0.1435  0.1597  0.1278
 4416W        W20310   9.477  15.155   3.051 -0.1598 -0.0275 -0.0459
 4417W        W20311  11.230  16.514  11.542  0.0042  0.2843  0.1270
 4418W        W20312  13.994   7.571  11.733  0.1008  0.2252 -0.2278
 4419W        W20313   6.623   9.697  12.747  0.1930 -0.3523 -0.1024
 4420W        W20314   1.990  15.355   1.319  0.1974 -0.2661  0.0468
 4421W        W20315   6.365  17.141  10.119 -0.1024  0.0267  0.0916
 4422W        W20316  15.427   8.981   4.053  0.1233  0.1770 -0.0366
 4423W        W20317  16.306   9.518   4.415 -0.3441  0.0253 -0.1391
 4424W        W20318   8.976  12.387   2.184 -0.0349 -0.5085  0.0231
 4425W        W20319   6.854   5.046   5.529 -0.1981  0.0735 -0.0955
 4426W        W20320   1.116  12.856  13.610 -0.0217  0.4072  0.0536
 4427W        W20321  17.899   4.771  12.253 -0.3120  0.3570  0.1642
 4428W        W20322  14.434   5.528   4.677  0.0115 -0.4186  0.0642
 4429W        W20323  10.677  15.514   9.458 -0.2690 -0.1473  0.0251
 4430W        W20324  19.158   0.761  13.305 -0.1152 -0.1880 -0.0074
 4431W        W20325  18.686   0.527   0.110 -0.1557  0.0317  0.2620
 4432W        W20326   9.453   8.868  12.427  0.2660  0.2013  0.2904
 4433W        W20327   7.704   8.611  13.358 -0.0064  0.1169  0.0463
 4434W        W20328  15.651  18.447   2.847  0.2008  0.0997 -0.3552
 4435W        W20329  11.858   3.087   3.141 -0.1142  0.1077  0.0437
 4436W        W20330  10.517   4.367  14.065  0.2680  0.1405  0.5270
 4437W        W20331  10.952   7.558   0.671  0.0413 -0.0071 -0.4028
 4438W        W20332   8.326  14.343  10.324  0.0056  0.0883 -0.0031
 4439W        W20333  15.099  10.160   3.349  0.1378 -0.1879  0.0447
 4440W        W20334  12.716   5.360   2.564 -0.0746 -0.0396 -0.2635
 4441W        W20335   6.775  17.278   2.694  0.1503  0.1813  0.0381
 4442W        W20336  16.858  16.837  10.663 -0.2005  0.3305 -0.0492
 4443W        W20337  13.160  12.075   4.571  0.0769  0.0314  0.0056
 4444W        W20338   7.280  15.736  13.109  0.1106  0.0054 -0.0850
 4445W        W20339  13.168   3.046   1.382  0.3029  0.1047 -0.1541
 4446W        W20340   8.530   3.539  13.498 -0.2812  0.0079  0.1649
 4447W        W20341   0.494  19.018  13.844 -0.1890  0.1178 -0.2181
 4448W        W20342   3.527   4.098   2.982 -0.0563  0.0896 -0.0098
 4449W        W20343   8.078   7.384  12.577  0.3072  0.0053  0.2132
 4450W        W20344   8.703  19.220  13.045 -0.1195  0.1163  0.1385
 4451W        W20345  11.056  10.161   5.070  0.0958 -0.0677 -0.2656
 4452W        W20346   1.070   1.656   4.451  0.2513 -0.0332 -0.0581
 4453W        W20347  13.102   9.296  11.823  0.4564  0.0243 -0.1880
 4454W        W20348   5.817  10.571   4.962 -0.1759  0.0088 -0.1494
 4455W        W20349   5.378   8.893   2.071  0.0270 -0.2452 -0.0346
 4456W        W20350   0.597  12.458  11.223  0.0791 -0.4498  0.3108
 4457W        W20351   5.026  11.809   0.755 -0.2782  0.0157 -0.2604
 4458W        W20352   2.204  19.204  11.340  0.4044 -0.3127  0.2858
 4459W        W20353  16.951  10.365   9.469  0.1034 -0.3479  0.1276
 4460W        W20354   6.099  16.662  13.575  0.2567 -0.1767 -0.0766
 4461W        W20355  11.117  18.932   1.339 -0.3747 -0.0581 -0.1546
 4462W        W20356   9.311   5.801   5.883 -0.3513 -0.1987 -0.1220
 4463W        W20357  11.784  12.947  10.639  0.0166 -0.1085  0.3094
 4464W        W20358  14.316   4.390   4.485 -0.2212  0.0855  0.0560
 4465W        W20359   5.213  17.517   0.009 -0.1144 -0.1007 -0.0249
 4466W        W20360  16.037   1.100   1.735 -0.1054 -0.3078 -0.1574
 4467W        W20361  11.648   3.213  13.460  0.0559 -0.0069 -0.2201
 4468W        W20362   4.022   3.321   1.839  0.0005  0.1331  0.1201
 4469W        W20363  15.429  12.249   1.399 -0.2496 -0.0926  0.0230
 4470W        W20364   2.710  16.468   0.365  0.1319  0.2092  0.2521
 4471W        W20365   8.335   9.570  12.602 -0.3091  0.1469 -0.2063
 4472W        W20366  17.911  12.505   2.198  0.2309 -0.2357  0.0511
 4473W        W20367   8.586   6.086  10.356 -0.3738  0.0092  0.1742
 4474W        W20368   1.698   1.982  11.311 -0.1562 -0.2059 -0.1866
 4475W        W20369   2.539   8.929  14.542  0.0751 -0.1359 -0.1971
 4476W        W20370  11.612  15.173   2.273 -0.1840  0.0594  0.1818
 4477W        W20371  10.556  15.343  10.974  0.0277 -0.1499 -0.0745
 4478W        W20372  14.169   9.179   4.441  0.1849 -0.0476 -0.1356
 4479W        W20373   2.402   3.193  13.076 -0.0192  0.1183 -0.1198
 4480W        W20374   4.851   4.557   3.458  0.2171 -0.0387 -0.1250
 4481W        W20375   8.844   0.097   1.786 -0.0119 -0.1517 -0.1342
 4482W        W20376   1.854  14.877  11.933 -0.1189 -0.0602 -0.2567
 4483W        W20377   7.056   0.959   5.441 -0.1255  0.0412  0.0075
 4484W        W20378  17.061   9.515  10.914  0.2674  0.1159 -0.0423
 4485W        W20379   7.188   5.633  12.339 -0.2441 -0.0086  0.2303
 4486W        W20380   1.966  18.155  11.152  0.0538 -0.2794 -0.0566
 4487W        W20381  17.667  12.573  12.580  0.0289  0.3587 -0.1256
 4488W        W20382  12.974  14.396  10.916  0.0915  0.1906 -0.0839
 4489W        W20383  10.207  10.620  10.664 -0.2239  0.1304 -0.3221
 4490W        W20384  15.378   6.175   1.264 -0.0331  0.1299 -0.1463
 4491W        W20385   7.419   3.096   4.557 -0.0925 -0.1279  0.2427
 4492W        W20386   9.366   2.509  12.343  0.2618  0.0491  0.1773
 4493W        W20387   0.935  14.815  10.080  0.1731 -0.3044 -0.1134
 4494W        W20388   9.650  17.714  14.336  0.1272  0.0335  0.2522
 4495W        W20389   8.606  13.175   4.662  0.2102 -0.0842  0.2245
 4496W        W20390  13.894  17.713  10.748 -0.0715 -0.2929 -0.2202
 4497W        W20391   1.211   1.202  13.922 -0.0256  0.1314 -0.2185
 4498W        W20392   9.590   9.701  14.405  0.1689  0.2120  0.0747
 4499W        W20393   2.915  11.895   5.511  0.1003 -0.0616  0.0173
 4500W        W20394   5.795  14.418  13.710 -0.3001  0.0243  0.0285
 4501W        W20395  12.009  10.361  11.283 -0.2996  0.2227 -0.3780
 4502W        W20396  13.193   4.787  13.490 -0.0157 -0.3157 -0.0250
 4503W        W20397  16.546   8.338   0.166  0.2557 -0.0257 -0.3360
 4504W        W20398  16.016  18.630   4.094  0.2412 -0.2941  0.0614
 4505W        W20399  12.722  15.484  13.613 -0.3169  0.0901  0.0966
 4506W        W20400  11.043  13.242  15.023 -0.2020  0.2731  0.1204
 4507W        W20401  16.058  17.393   3.624 -0.1008  0.2255 -0.0753
 4508W        W20402   0.902   2.245   3.678 -0.2940 -0.0189  0.1442
 4509W        W20403   5.584  17.379   4.357 -0.1097 -0.1454  0.1259
 4510W        W20404  13.983   5.898  13.169  0.0838 -0.2599  0.2172
 4511W        W20405   4.956  12.871   3.415  0.0477 -0.1407  0.0412
 4512W        W20406  15.476   5.004   0.630 -0.0438  0.3319  0.2240
 4513W        W20407   5.754  16.570   4.262 -0.1316 -0.0551 -0.0888
 4514W        W20408   0.597   1.042   1.911  0.1995  0.1408 -0.1036
 4515W        W20409  14.754  11.928  12.683  0.0671 -0.2219  0.2099
 4516W        W20410  11.133   9.693   1.823  0.1715 -0.1204  0.0227
 4517W        W20411   0.909   4.157   3.997 -0.3184 -0.1830 -0.0137
 4518W        W20412  16.758   9.128   0.864 -0.2152  0.0299  0.1767
 4519W        W20413  12.603   7.769  11.990 -0.1056 -0.2527  0.2156
 4520W        W20414  10.516  14.815   4.723 -0.0862 -0.1822  0.0207
 4521W        W20415  12.198  14.656   0.012  0.1684  0.0833 -0.2416
 4522W        W20416   0.337   2.231  13.098  0.0273 -0.0754 -0.1429
 4523W        W20417   9.149   2.553   5.647  0.0736  0.1610 -0.1045
 4524W        W20418  15.231   2.099   4.326  0.0193  0.1427 -0.1026
 4525W        W20419  13.949  19.222  10.647 -0.1673 -0.1588 -0.1254
 4526W        W20420   5.167  14.579  10.751  0.1218 -0.1531 -0.3781
 4527W        W20421   4.166  15.687   3.714  0.3053  0.0974  0.1672
 4528W        W20422   0.719  14.271   2.787 -0.1693  0.1115 -0.1790
 4529W        W20423   3.632  12.344   5.035  0.0151 -0.0618 -0.0120
 4530W        W20424  17.217  10.309   4.962  0.0939  0.0671 -0.2002
 4531W        W20425   3.470  18.696   1.802  0.0495 -0.0109 -0.0464
 4532W        W20426   3.809  17.283  10.532  0.0014 -0.2183 -0.0819
 4533W        W20427   2.311   7.527   2.240  0.0107 -0.5749 -0.0366
 4534W        W20428   7.450  11.649  13.231 -0.1675  0.0850 -0.1562
 4535W        W20429  17.866   8.659  11.598 -0.0226  0.1913 -0.0371
 4536W        W20430  10.510  10.748   0.508  0.1144  0.1093  0.3479
 4537W        W20431  18.527  13.840   0.008  0.2158 -0.0380  0.0220
 4538W        W20432  17.212   8.689  13.402 -0.1957 -0.0659  0.4341
 4539W        W20433  13.927   9.462   1.885  0.1132  0.1653 -0.2338
 4540W        W20434   5.867   5.650  10.067 -0.2803  0.1077  0.1733
 4541W        W20435   9.299   6.137   2.287  0.0933 -0.0771 -0.1265
 4542W        W20436   4.467   5.520  13.558  0.0957  0.0619  0.0308
 4543W        W20437   7.296   5.187   5.633 -0.3489 -0.0522 -0.4460
 4544W        W20438  11.821   9.993   0.730 -0.0116  0.3509  0.4183
 4545W        W20439  15.544   8.201   4.156 -0.1153 -0.1964  0.1324
 4546W        W20440  18.059   0.781   0.821  0.1315  0.2017 -0.1037
 4547W        W20441   7.641   1.009  12.805 -0.0257  0.3057 -0.1106
 4548W        W20442  15.777   4.219   3.369  0.0275 -0.4032 -0.1827
 4549W        W20443  13.727  18.949   4.256 -0.0029 -0.0078  0.1505
 4550W        W20444  11.692  17.238  13.993  0.0539  0.1116  0.1082
 4551W        W20445  16.309  12.113  14.310 -0.2935  0.4780 -0.0442
 4552W        W20446  14.311  10.968  11.619 -0.2708  0.2374 -0.0644
 4553W        W20447  13.878   7.405  14.897 -0.1344  0.2805 -0.0300
 4554W        W20448   5.307  11.195  10.734 -0.0487  0.3140 -0.0881
 4555W        W20449  16.752   5.498  10.689 -0.0433  0.1227 -0.0202
 4556W        W20450  11.536   6.504  12.900  0.1003 -0.0049  0.0959
 4557W        W20451   3.410  10.315  14.718  0.2860  0.0723 -0.1808
 4558W        W20452  11.023  12.803   2.353 -0.4177 -0.0645 -0.0177
 4559W        W20453  18.648   1.892  14.591  0.0206  0.1431 -0.0301
 4560W        W20454   6.413   8.037  14.983  0.2055 -0.0971 -0.0314
 4561W        W20455   7.547  14.979   1.449  0.1598  0.2974  0.1363
 4562W        W20456  19.059   0.616   2.278  0.1562 -0.3539  0.0481
 4563W        W20457   2.660  13.584  11.434 -0.0879  0.2170 -0.1606
 4564W        W20458  11.173  10.652   9.427  0.2133  0.0155  0.2059
 4565W        W20459   3.397   5.041  13.803 -0.2611  0.0715  0.1110
 4566W        W20460  11.270  10.114   3.626 -0.1591 -0.1100 -0.2569
 4567W        W20461   3.555  13.750  11.112 -0.0655 -0.0544  0.0519
 4568W        W20462  17.441   1.855   3.132  0.3193 -0.1161  0.0958
 4569W        W20463   2.918   8.977   1.413 -0.1894  0.3440 -0.0102
 4570W        W20464   3.346  13.480  12.704  0.0972  0.2420 -0.1071
 4571W        W20465   0.932  16.562  14.700 -0.0889 -0.0216 -0.0558
 4572W        W20466   3.175  15.988  13.945  0.1569 -0.0819  0.1573
 4573W        W20467   1.841   1.708   2.791 -0.2187 -0.2945  0.1653
 4574W        W20468   9.082   2.354   2.242  0.1146 -0.2312  0.0685
 4575W        W20469   1.994  15.726   3.890  0.5248 -0.0881 -0.0774
 4576W        W20470   8.999  14.862   2.998 -0.0627  0.0220  0.0649
 4577W        W20471  18.959   4.271   0.031  0.2083  0.0665  0.0921
 4578W        W20472  13.798   0.716  10.907 -0.3890  0.1252  0.2807
 4579W        W20473  16.829  10.486   3.829  0.2535 -0.0363  0.0799
 4580W        W20474  15.520   8.078   1.655  0.5732  0.2099 -0.1734
 4581W        W20475  12.551   3.672  11.994 -0.1147  0.1163 -0.2508
 4582W        W20476  17.621   5.527  11.616 -0.0514  0.0658 -0.1312
 4583W        W20477  11.659  16.241  13.595 -0.1989  0.1135  0.0247
 4584W        W20478   4.505   0.742   2.922 -0.2050 -0.0005 -0.2378
 4585W        W20479   3.256   8.576  11.307 -0.2360  0.0079 -0.0633
 4586W        W20480  17.825   1.884  14.441 -0.2849 -0.3710 -0.1987
 4587W        W20481  15.804   6.287   5.751 -0.1943 -0.1255  0.1646
 4588W        W20482  19.138   5.006  11.386 -0.2976 -0.2034 -0.1067
 4589W        W20483   3.783   4.148  14.716  0.3028 -0.1929  0.3645
 4590W        W20484  15.357   1.527  11.279  0.1350 -0.0173  0.2284
 4591W        W20485  15.334   9.644   0.810 -0.1661 -0.2799  0.2176
 4592W        W20486   9.914  19.224  14.351  0.0074 -0.1403  0.1482
 4593W        W20487   4.714  18.441   3.147  0.0894 -0.1907  0.0594
 4594W        W20488   6.686   9.365   0.263 -0.1561  0.1443  0.0269
 4595W        W20489   4.375  17.079   4.904  0.0727 -0.1154 -0.1834
 4596W        W20490  10.637  18.551   2.320  0.1501  0.3323 -0.0513
 4597W        W20491  13.888  18.673   1.459 -0.1490  0.0132 -0.0260
 4598W        W20492   0.588   3.110  13.253  0.3510  0.0659  0.3235
 4599W        W20493  13.175  11.444   0.999 -0.2233 -0.0919  0.0874
 4600W        W20494  10.071  11.719  12.017  0.4740 -0.0223  0.2400
 4601W        W20495   9.631   7.117   0.079  0.0606 -0.3105  0.0654
 4602W        W20496  14.904   6.452  11.989 -0.1068  0.4309 -0.2255
 4603W        W20497   8.589  16.811   0.682 -0.3382 -0.0149 -0.1735
 4604W        W20498   0.030  19.195   5.307  0.1459  0.0549 -0.0771
 4605W        W20499   1.518  17.605   3.359  0.1140  0.0420  0.2292
 4606W        W20500  10.872   9.107  12.375 -0.1995  0.2066 -0.2492
 4607W        W20501  12.028   8.661  13.802  0.0987 -0.0034 -0.1181
 4608W        W20502   2.568   7.774  11.416  0.1176 -0.0838 -0.1333
 4609W        W20503   9.707  12.898  12.607 -0.0087  0.2282  0.1895
 4610W        W20504   5.058   5.207   1.698 -0.0388 -0.0738  0.1643
 4611W        W20505  15.253  17.598   0.899 -0.1240 -0.0478 -0.0582
 4612W        W20506  14.919  16.145   0.655  0.0249 -0.1651 -0.4804
 4613W        W20507  16.274  16.933  14.080 -0.4514  0.1476  0.6041
 4614W        W20508   5.954  18.592  13.505 -0.0218  0.1724 -0.1974
 4615W        W20509   3.492  17.952   0.385  0.0099 -0.0115 -0.2536
 4616W        W20510   9.622   8.198   4.589  0.0185 -0.0267 -0.1163
 4617W        W20511  19.138  19.170  12.226 -0.1848 -0.0975 -0.3317
 4618W        W20512  16.123   1.306  11.287  0.1278 -0.2152 -0.0397
 4619W        W20513  17.223  11.223   4.181 -0.2512  0.1070  0.5626
 4620W        W20514   9.889  17.612  10.548  0.1351 -0.2745 -0.0925
 4621W        W20515   4.308   5.691  13.084 -0.1168  0.1131 -0.1965
 4622W        W20516   4.510  15.559  11.581  0.0876  0.0783 -0.0264
 4623W        W20517  15.767  14.797  14.754  0.0493 -0.0202 -0.0178
 4624W        W20518  19.162   8.577  13.247  0.0490  0.0210  0.2638
 4625W        W20519   3.713  19.021   4.123  0.2424 -0.0140  0.4975
 4626W        W20520   3.450  15.975   3.237  0.3841 -0.1370  0.1356
 4627W        W20521  17.493  11.642   3.970  0.4986  0.0666 -0.1131
 4628W        W20522   1.113   4.035  14.067  0.2464 -0.0293  0.0597
 4629W        W20523  10.227   9.760  13.899 -0.1430 -0.1034 -0.1014
 4630W        W20524   6.881  11.282  12.615  0.4231 -0.0625 -0.0804
 4631W        W20525  11.676   2.208   1.760 -0.1267  0.0771 -0.0222
 4632W        W20526  18.192   7.956   9.915 -0.3994 -0.3819  0.1069
 4633W        W20527   1.524   5.150   4.573  0.2651 -0.0624 -0.0839
 4634W        W20528  18.405   7.626  12.210  0.1266 -0.1052  0.1830
 4635W        W20529   1.657   7.978  14.368  0.0096  0.0678  0.0311
 4636W        W20530   5.160  11.646   4.379  0.0403  0.0862  0.1031
 4637W        W20531   6.861   8.481  13.776  0.0836  0.0755 -0.1164
 4638W        W20532   6.195   3.461  14.527 -0.1486 -0.1053 -0.0222
 4639W        W20533   5.490  11.512   9.247 -0.3078  0.1709  0.0541
 4640W        W20534   6.059  14.042  13.510 -0.2435 -0.2526  0.2143
 4641W        W20535   1.936  13.914   4.686 -0.1514  0.0419 -0.0411
 4642W        W20536  11.186  17.402  14.728 -0.0007  0.0525  0.2636
 4643W        W20537   5.619  11.719  12.785  0.0865 -0.0515  0.1297
 4644W        W20538  14.493  18.893  10.396 -0.0590 -0.2817 -0.1274
 4645W        W20539   3.628   9.179  12.888 -0.0290 -0.5136  0.1657
 4646W        W20540  18.139  15.689   3.088 -0.2961 -0.0255  0.0924
 4647W        W20541   7.198   0.284  11.116  0.0932 -0.1957  0.2383
 4648W        W20542  11.397  13.324   2.250 -0.2655  0.0922 -0.2450
 4649W        W20543   5.598  16.687  11.984 -0.1107  0.0093  0.0083
 4650W        W20544   9.843  13.726   4.852  0.2003  0.1825  0.1894
 4651W        W20545  15.225   8.961  12.236 -0.4675 -0.1395 -0.2665
 4652W        W20546   9.699   0.208  11.278 -0.0699 -0.0156  0.0282
 4653W        W20547  11.743  16.575   1.718  0.0281 -0.2259  0.0042
 4654W        W20548   0.512   8.623  12.056 -0.2886 -0.0637  0.0043
 4655W        W20549  10.090  17.753  14.046 -0.0628 -0.3370  0.2236
 4656W        W20550  18.404   6.733   2.685 -0.1888 -0.0142  0.0751
 4657W        W20551   8.568  14.290  14.889 -0.0266  0.1240  0.1128
 4658W        W20552  18.342   9.205  14.735  0.0275  0.1503  0.0882
 4659W        W20553   5.438  10.957   2.121  0.1936 -0.0442  0.0780
 4660W        W20554   4.184   0.196  12.074  0.1532 -0.0011  0.0406
 4661W        W20555   6.760   4.422   2.008 -0.1360 -0.3726 -0.1425
 4662W        W20556   6.090   3.196  12.058 -0.3418 -0.0093 -0.2390
 4663W        W20557  16.536   5.300  14.241  0.3276  0.0408 -0.0549
 4664W        W20558  18.711  13.578  11.770 -0.0068  0.5768  0.1816
 4665W        W20559   7.319  15.558   2.811  0.2066 -0.3561  0.1684
 4666W        W20560  12.744  18.187   3.055  0.1914 -0.1425  0.1605
 4667W        W20561   0.051  11.325  13.509  0.1475 -0.4063  0.0692
 4668W        W20562  18.352  13.671  12.824  0.1146 -0.0700  0.2330
 4669W        W20563  12.579   5.211  12.944 -0.1777 -0.0670  0.0232
 4670W        W20564   8.434  18.132  13.714 -0.3719 -0.2504  0.0225
 4671W        W20565   4.083   2.207   1.681  0.2352 -0.2882 -0.3594
 4672W        W20566  12.073   9.869  10.555 -0.2198  0.3035  0.1199
 4673W        W20567   6.128  16.988  12.993 -0.1041  0.0362 -0.1159
 4674W        W20568  11.386  16.299  14.883  0.2686 -0.1922  0.2348
 4675W        W20569   9.453  14.709   4.226 -0.0760  0.0541  0.2858
 4676W        W20570   2.801  17.693  11.955 -0.1922 -0.1374 -0.0592
 4677W        W20571  14.966  13.131  13.368  0.2701  0.1610 -0.2730
 4678W        W20572   4.581   4.719   5.815 -0.0590  0.0943 -0.0432
 4679W        W20573   8.320   1.353  13.450  0.2309 -0.2697  0.1541
 4680W        W20574   7.120   1.253   2.794  0.1694 -0.2401  0.0353
 4681W        W20575  15.048  17.689  13.020 -0.0672 -0.0951 -0.0774
 4682W        W20576  14.825  12.981   3.368 -0.5212 -0.1789 -0.0466
 4683W        W20577   0.473   9.650  10.880  0.1580 -0.2049  0.1754
 4684W        W20578  15.341  10.380   2.356 -0.1470  0.0205 -0.2040
 4685W        W20579   1.262   0.836   5.460  0.2397  0.0743  0.1362
 4686W        W20580  17.709  17.114   1.292 -0.0179 -0.0938 -0.0283
 4687W        W20581  12.667   4.117  11.743 -0.0280  0.0567  0.2164
 4688W        W20582   8.083   9.428  13.709 -0.2671 -0.1213 -0.1331
 4689W        W20583  18.111  12.030  14.075 -0.2202  0.1389  0.0397
 4690W        W20584   8.542   2.356   2.299 -0.1008 -0.1477 -0.1215
 4691W        W20585  10.230  10.431  13.271 -0.1241 -0.0642  0.1368
 4692W        W20586   9.018  18.357  10.545 -0.2012  0.0281  0.0930
 4693W        W20587  17.343  15.071   5.162  0.3656  0.1961 -0.3375
 4694W        W20588  10.070   5.868   4.063 -0.0995 -0.1031  0.0870
 4695W        W20589  16.839   7.266   1.954 -0.2127  0.2911 -0.0352
 4696W        W20590  13.392  13.195  13.890 -0.1579 -0.6359  0.0366
 4697W        W20591   8.112  17.013  13.522  0.0575 -0.1030 -0.1392
 4698W        W20592  14.959   7.588   4.053 -0.2193  0.2101  0.2587
 4699W        W20593   8.175  18.119   1.431  0.0278  0.0187 -0.1381
 4700W        W20594  11.034  14.697  14.849 -0.1954  0.1028 -0.1557
 4701W        W20595  17.747   8.922  14.363 -0.2372 -0.2433 -0.2189
 4702W        W20596  11.035   3.027   2.400  0.2888 -0.2775 -0.0073
 4703W        W20597   9.007   5.588   1.369 -0.1733 -0.4009 -0.0326
 4704W        W20598   9.483  18.185   0.220 -0.2222 -0.0528  0.1196
 4705W        W20599   7.801   3.400   1.563 -0.2010  0.0613 -0.0994
 4706W        W20600  11.316   4.081   2.606  0.0856 -0.1332 -0.2189
 4707W        W20601  12.686  15.123  14.295 -0.4082  0.0400  0.1283
 4708W        W20602   9.120   9.102  12.929  0.0595  0.0015  0.2858
 4709W        W20603  17.272  14.871  14.010  0.4233  0.3429 -0.0430
 4710W        W20604   9.436  10.217  10.343 -0.0309  0.0608 -0.1057
 4711W        W20605   1.330   4.814  14.724  0.1710  0.3721 -0.3278
 4712W        W20606   3.776  16.205  13.452  0.2694 -0.3191 -0.0902
 4713W        W20607  14.367  14.490   4.066  0.1406 -0.2860 -0.2160
 4714W        W20608   9.776   9.050   4.230  0.0179  0.2198  0.0550
 4715W        W20609  14.835   2.079   1.749 -0.0922  0.0624 -0.1785
 4716W        W20610   6.014   3.786  11.682 -0.1235  0.0512 -0.2955
 4717W        W20611  18.510   3.535   1.584  0.2711  0.1912 -0.0076
 4718W        W20612  18.224  11.208  12.423 -0.1529  0.1243 -0.3033
 4719W        W20613   1.696  11.300   2.381 -0.0217  0.0575  0.0356
 4720W        W20614  12.763  10.789  10.824 -0.1144  0.0164  0.0527
 4721W        W20615  13.469   8.664   0.387 -0.0421 -0.1468  0.0537
 4722W        W20616  14.934  14.298  14.491  0.0202 -0.4143  0.0231
 4723W        W20617  14.674   8.862   3.573 -0.2560 -0.0649  0.3507
 4724W        W20618  16.554  13.767   5.174  0.1627  0.1884  0.0810
 4725W        W20619  12.716  18.282  11.434  0.0567 -0.1985 -0.0883
 4726W        W20620  12.746   0.402   5.565 -0.1268 -0.0199  0.0350
 4727W        W20621   7.564   9.582   2.908 -0.2143  0.3980 -0.2798
 4728W        W20622   7.924   5.693  13.304 -0.1706  0.2962  0.2431
 4729W        W20623  17.138  15.604  10.350 -0.4527 -0.3596  0.0486
 4730W        W20624   8.493   6.374   9.951  0.0685  0.0599  0.3512
 4731W        W20625  14.072   1.392  10.387  0.0573  0.1820 -0.2330
 4732W        W20626   8.699  14.341  10.691  0.0193  0.4844 -0.0204
 4733W        W20627   9.041   2.601   4.618 -0.0213  0.2970  0.0865
 4734W        W20628   7.555  11.222  12.811 -0.1425  0.1127 -0.1337
 4735W        W20629   6.286   8.261   3.007 -0.2912  0.2069  0.0862
 4736W        W20630  16.842   3.750   1.179 -0.1870  0.3953 -0.0697
 4737W        W20631   4.377  15.451   4.781 -0.3615  0.1369 -0.0139
 4738W        W20632   9.527  13.604   1.059 -0.0690  0.2839  0.1655
 4739W        W20633  15.048  14.602   4.782 -0.2452  0.0689 -0.1514
 4740W        W20634   4.867  14.409  11.598  0.0650  0.2637  0.2844
 4741W        W20635   8.622   7.215  11.559 -0.1253 -0.1700 -0.3341
 4742W        W20636  16.371   1.868  12.211  0.1050 -0.1438  0.1722
 4743W        W20637  13.318  10.426   1.818  0.0362  0.2810 -0.0823
 4744W        W20638  16.111   2.857   3.088 -0.3446  0.1477 -0.4591
 4745W        W20639   2.643   8.201  13.260 -0.0128  0.4644 -0.1296
 4746W        W20640   1.733   0.043   0.382 -0.0540 -0.1079  0.0702
 4747W        W20641  15.210   0.573   2.872 -0.0674  0.2272  0.2072
 4748W        W20642   8.364   8.269   1.280 -0.0952 -0.0580 -0.1630
 4749W        W20643   7.575  12.274   2.095  0.2464 -0.3716 -0.2959
 4750W        W20644   9.742  16.593   1.182  0.1957 -0.0406  0.2114
 4751W        W20645   8.345   4.699  13.766  0.3230  0.0600 -0.2739
 4752W        W20646   1.274  12.185   2.173  0.0877 -0.1723 -0.0292
 4753W        W20647  13.016   6.938  13.608 -0.4583  0.2899  0.0039
 4754W        W20648  18.050   9.296  11.645  0.1345 -0.3115  0.2198
 4755W        W20649  13.042   2.144   3.553 -0.0431  0.0479 -0.1356
 4756W        W20650   2.845  17.996  15.109  0.0460  0.0305  0.1681
 4757W        W20651   8.170   5.233  12.912  0.0786  0.0759  0.0415
 4758W        W20652   5.373  10.459   0.502  0.2249 -0.1703  0.0234
 4759W        W20653  16.918  14.279   2.640  0.0229 -0.1728 -0.3105
 4760W        W20654  15.487   8.287  14.651  0.1756 -0.0220  0.1300
 4761W        W20655  11.369   0.489   2.925  0.1789  0.1861  0.0459
 4762W        W20656   5.382   3.343   3.554 -0.0617  0.3731 -0.0245
 4763W        W20657  13.080  12.390  10.783  0.0680  0.1532 -0.0331
 4764W        W20658   6.802   7.682   0.543  0.1598  0.0312  0.1316
 4765W        W20659   0.819   2.974  12.088  0.0650  0.0049 -0.0337
 4766W        W20660  10.886  13.685   4.651 -0.1210  0.0334 -0.0341
 4767W        W20661   1.531  12.838   9.657  0.0726  0.0267 -0.0650
 4768W        W20662  12.031  16.619  10.972  0.0039 -0.1552  0.2775
 4769W        W20663  12.540   4.965   2.867 -0.2407  0.0180 -0.3570
 4770W        W20664  16.751   4.739   1.114 -0.2267 -0.2732 -0.2830
 4771W        W20665   1.956  15.796   1.025  0.0037  0.0049  0.1745
 4772W        W20666  10.506  13.109  15.082 -0.1207  0.0406  0.1514
 4773W        W20667  15.694  18.335   3.832 -0.1230 -0.1641 -0.0653
 4774W        W20668  16.926   5.427  13.396 -0.0141  0.0953 -0.1276
 4775W        W20669  11.788  11.571  10.763 -0.0609  0.0094 -0.1043
 4776W        W20670  11.264  14.135  11.957 -0.1461 -0.0694  0.1465
 4777W        W20671   1.848   2.486  11.293  0.2054 -0.0630 -0.0012
 4778W        W20672  14.602  12.761  11.256  0.0676 -0.0299 -0.2521
 4779W        W20673  17.385   3.358   1.664 -0.0923 -0.3827 -0.2693
 4780W        W20674  10.038  13.574  11.193  0.0189 -0.0075  0.0696
 4781W        W20675  16.357  17.204   1.511 -0.1889 -0.0394  0.2521
 4782W        W20676  11.965   7.429   3.472 -0.0541 -0.0220  0.2833
 4783W        W20677  10.497   7.181   4.568  0.1425  0.1788  0.0719
 4784W        W20678  10.757  10.003  11.076 -0.0149 -0.2125  0.1777
 4785W        W20679  14.689   9.003   2.915  0.1155 -0.1962 -0.4683
 4786W        W20680   8.863   9.979  14.516  0.0158 -0.1409  0.1966
 4787W        W20681  16.472  10.176  12.652  0.0023  0.1347  0.3423
 4788W        W20682  17.751  10.443  13.483 -0.0552  0.3297  0.1452
 4789W        W20683  17.742   3.321   4.289  0.1056 -0.3734 -0.1902
 4790W        W20684  17.962  17.668  11.135  0.3100  0.2098  0.2762
 4791W        W20685  16.564  12.334   3.090  0.2764 -0.2046 -0.3103
 4792W        W20686  15.307   5.763   4.371  0.1726  0.0503 -0.1966
 4793W        W20687  17.059  11.063   1.603  0.0885  0.4345  0.2469
 4794W        W20688  13.864  11.808   9.339 -0.0289 -0.2282  0.0193
 4795W        W20689  13.883  18.283   1.748 -0.0745  0.2334 -0.0618
 4796W        W20690  15.849   8.469  13.951 -0.3085  0.1162  0.0636
 4797W        W20691  14.592   6.558  11.125 -0.0108 -0.1030 -0.2010
 4798W        W20692   5.964  18.023  12.152 -0.2158  0.2016  0.4687
 4799W        W20693  17.019  17.822  10.803 -0.1117  0.3285 -0.2606
 4800W        W20694  18.972   1.242  15.086  0.0463 -0.2017 -0.0685
 4801W        W20695   9.277   0.761   9.547  0.0395  0.1517  0.2217
 4802W        W20696   7.687  16.657  11.944 -0.0354  0.0842  0.1612
 4803W        W20697   4.340   2.108   5.154 -0.3007 -0.2235  0.3288
 4804W        W20698   3.015   7.054   2.640 -0.2400 -0.0445  0.1047
 4805W        W20699  16.334  12.602  12.295 -0.1045 -0.2486 -0.1001
 4806W        W20700   6.347  12.896  14.374  0.2496  0.0193  0.2103
 4807W        W20701  15.615  13.514   2.366 -0.2781  0.1793 -0.0600
 4808W        W20702   4.747   4.037   0.426 -0.2686 -0.2627 -0.2919
 4809W        W20703  18.627  19.187   2.417  0.0053 -0.3032  0.0562
 4810W        W20704   3.245   1.117  14.263 -0.2407 -0.0153  0.1234
 4811W        W20705  12.390  15.950   4.613  0.0204 -0.1058  0.3899
 4812W        W20706   1.265   0.422  13.558 -0.0495  0.0615 -0.2742
 4813W        W20707  10.330  16.559   3.688 -0.3814 -0.0425  0.0980
 4814W        W20708   8.190   3.175   1.778  0.0760  0.2836  0.1524
 4815W        W20709   5.749   9.255  14.039 -0.0218 -0.3079 -0.0641
 4816W        W20710   6.241  15.582   1.230 -0.0577  0.3243 -0.2023
 4817W        W20711   7.763  15.256  13.291  0.3012  0.2498  0.1338
 4818W        W20712  11.746  17.803   4.495 -0.3472  0.4748  0.2563
 4819W        W20713   3.552   2.051   0.793  0.0772  0.0125 -0.4140
 4820W        W20714   6.684   1.170   0.751 -0.1015  0.3172  0.2070
 4821W        W20715   2.541   1.908   2.499 -0.0855 -0.1737 -0.1284
 4822W        W20716  12.183  11.825   0.762 -0.0351 -0.0629  0.0503
 4823W        W20717   1.167  17.560   1.308  0.0007  0.0262 -0.0070
 4824W        W20718   6.391   9.225   4.517 -0.2492  0.2150  0.3106
 4825W        W20719  14.121   6.417   3.580  0.1024  0.0009 -0.2397
 4826W        W20720  11.561  15.321   1.382 -0.0054  0.1010  0.0532
 4827W        W20721  16.362   3.467   3.713 -0.0890 -0.0708 -0.2054
 4828W        W20722   8.517   6.467  12.567  0.1037  0.0930 -0.1972
 4829W        W20723   2.676   9.169   0.583 -0.2077  0.1293  0.2903
 4830W        W20724   9.118  15.215   0.032  0.1711 -0.1674 -0.1392
 4831W        W20725   8.133  13.192   4.857  0.0885  0.1113  0.1951
 4832W        W20726   8.662   4.300  14.641 -0.1751 -0.4921  0.2415
 4833W        W20727  12.589   6.572  13.516 -0.0120  0.2024  0.2006
 4834W        W20728  18.798  11.914  12.607  0.0167  0.0834 -0.0995
 4835W        W20729   4.132   6.170   4.089 -0.0800  0.1012  0.0403
 4836W        W20730  18.557  12.101   4.507 -0.1264 -0.4593  0.1866
 4837W        W20731  16.841  10.754   0.682  0.2908  0.0547 -0.0626
 4838W        W20732  14.394   8.326   5.026  0.1664 -0.0057 -0.0602
 4839W        W20733  10.114   9.160  13.225 -0.3493  0.2354  0.0931
 4840W        W20734   9.482   8.264  11.970  0.0111  0.2676  0.1156
 4841W        W20735  15.413   2.237   3.865  0.0139  0.2783 -0.0664
 4842W        W20736   7.166   6.674   5.173  0.0126 -0.2674  0.0972
 4843W        W20737   0.383  16.732  12.685 -0.3879  0.1867 -0.0147
 4844W        W20738   8.322  13.452  10.789  0.2865 -0.0078  0.2894
 4845W        W20739   2.606   3.919  12.095 -0.1033  0.1287 -0.1056
 4846W        W20740  13.223   1.682   4.827  0.6846  0.1416 -0.0314
 4847W        W20741   8.535   6.705  10.947 -0.4630 -0.1773 -0.0633
 4848W        W20742  17.457  16.610   2.927 -0.2017  0.0910  0.3458
 4849W        W20743  10.968   1.927  14.355  0.2071  0.1919 -0.2564
 4850W        W20744   3.034  13.049   1.998 -0.1661 -0.1644  0.0001
 4851W        W20745   3.119  11.592   1.581 -0.0404 -0.0156 -0.1783
 4852W        W20746  15.929  19.126  10.511 -0.1383 -0.0025 -0.1302
 4853W        W20747   0.214   5.099   1.959  0.1273  0.0937  0.0539
 4854W        W20748  16.917   7.499  11.521 -0.1277  0.2197  0.3697
 4855W        W20749  18.458   7.094   3.517  0.0411  0.0703 -0.1681
 4856W        W20750   7.681   2.399   2.569  0.0350  0.1810 -0.2688
 4857W        W20751  14.813  13.628  13.879 -0.3275  0.0195 -0.0317
 4858W        W20752  13.216  11.727  11.240  0.2442 -0.2691 -0.1964
 4859W        W20753   7.139  15.770  11.734 -0.0231  0.1299 -0.1297
 4860W        W20754  10.376  11.494   9.675  0.2793 -0.5090  0.0582
 4861W        W20755   9.576   8.438   2.365 -0.0839  0.0506  0.1019
 4862W        W20756  10.054   6.387   4.247 -0.1848  0.3048 -0.2199
 4863W        W20757   9.531  12.622  13.041  0.1155 -0.3268  0.1192
 4864W        W20758  14.110  19.030  12.136  0.1113  0.0798  0.2795
 4865W        W20759  13.758   3.809  14.306  0.0969 -0.1186  0.2535
 4866W        W20760  15.991   9.425  10.258  0.2777 -0.1567 -0.0814
 4867W        W20761  17.540  10.754   3.945 -0.0827 -0.1641  0.0137
 4868W        W20762  12.717   1.947   2.271  0.1285 -0.2381 -0.1102
 4869W        W20763  11.263   3.276   1.250  0.0276 -0.1625  0.0753
 4870W        W20764   2.361   8.140   1.091  0.1662  0.1652 -0.0838
 4871W        W20765   8.220  13.299   3.656 -0.0160 -0.0752  0.0731
 4872W        W20766  10.717   8.866   3.308  0.0991  0.1042  0.1337
 4873W        W20767   2.679   4.511   1.440  0.4206 -0.1620 -0.2927
 4874W        W20768  14.260   6.594  13.631  0.1953 -0.2331 -0.2988
 4875W        W20769   3.172  15.838   2.122 -0.4017 -0.1010 -0.1282
 4876W        W20770   0.222  11.604  12.052  0.0586  0.2665  0.4101
 4877W        W20771  17.820   2.055   2.808  0.0916 -0.2904 -0.0639
 4878W        W20772  15.161   9.213   1.123  0.0660 -0.0957  0.1027
 4879W        W20773   2.030  12.691   3.384 -0.0251  0.2808 -0.1156
 4880W        W20774  13.044  13.390   0.605 -0.0797  0.0775 -0.1616
 4881W        W20775   7.111  12.599   1.292  0.0362  0.0980  0.1934
 4882W        W20776  17.801  15.071   0.579  0.0556 -0.2061  0.2706
 4883W        W20777   0.885   4.975  14.909  0.1392 -0.1590  0.2188
 4884W        W20778   4.482  17.933   2.511  0.1599  0.0649  0.0951
 4885W        W20779   6.065   6.494  13.352 -0.2419 -0.1616  0.1318
 4886W        W20780  13.461   7.180  13.752  0.0654  0.3408  0.0527
 4887W        W20781  13.832  11.293   0.109  0.0348  0.4215  0.2564
 4888W        W20782   4.881   5.708   4.009  0.1913 -0.0788  0.1054
 4889W        W20783  14.334   4.090   2.557 -0.0064 -0.0269 -0.1122
 4890W        W20784  13.104  18.232   4.599 -0.2476  0.1549  0.2278
 4891W        W20785  10.835  15.250  14.847  0.0439 -0.0016  0.3266
 4892W        W20786  14.228   5.529  14.991 -0.1614  0.0189 -0.0766
 4893W        W20787   5.068  15.829   5.134  0.1631  0.1906 -0.3418
 4894W        W20788  10.227  13.234  14.640  0.2638  0.0790 -0.0207
 4895W        W20789  13.218   1.643   2.399  0.1543  0.0155 -0.1746
 4896W        W20790  16.285   0.079   5.584 -0.3266  0.0364 -0.2538
 4897W        W20791  13.048  11.311   1.546 -0.3412  0.1801  0.0297
 4898W        W20792   1.056  17.653  11.250  0.3400 -0.0530  0.2221
 4899W        W20793   9.443  16.543   1.521  0.1804 -0.2616 -0.0049
 4900W        W20794   0.446  14.972  14.745 -0.2180  0.0237 -0.1346
 4901W        W20795  15.991   7.923   1.144  0.0690 -0.0041  0.1958
 4902W        W20796   6.161   5.293   2.878 -0.0202  0.0525  0.0984
 4903W        W20797  15.833   0.988  12.141 -0.2377  0.0757 -0.2479
 4904W        W20798   1.509  14.845  14.500 -0.0472 -0.2960  0.0826
 4905W        W20799   4.714   4.945  12.869 -0.1662 -0.0648  0.1742
 4906W        W20800   4.073  13.733   4.405 -0.1206 -0.1594  0.0832
 4907W        W20801  16.398  17.682   3.998 -0.0546  0.1580  0.1205
 4908W        W20802  14.264  17.358   2.856  0.0738  0.1177  0.1798
 4909W        W20803   6.881   4.196  14.595 -0.1655 -0.0722  0.0082
 4910W        W20804   9.666   7.939  14.339 -0.1932  0.0154 -0.1525
 4911W        W20805  17.107  10.034   1.197  0.2947 -0.2050 -0.1656
 4912W        W20806  15.544  13.916   1.980  0.2207 -0.1295 -0.0370
 4913W        W20807   1.446   5.663  10.878 -0.1089 -0.2517  0.0039
 4914W        W20808   6.678   8.393   4.034 -0.1124  0.2230  0.1947
 4915W        W20809  12.495  11.674   2.835  0.0274  0.0657 -0.0532
 4916W        W20810  16.093   0.784  14.446 -0.3524  0.1667  0.2205
 4917W        W20811   8.815   2.353  13.810 -0.1462 -0.0103 -0.1086
 4918W        W20812  16.386  13.803   4.363  0.1301  0.0499  0.1104
 4919W        W20813  12.697   3.302  10.040 -0.3619  0.1860  0.0852
 4920W        W20814  16.564   0.456  13.606  0.1463 -0.1462  0.1134
 4921W        W20815  13.228   6.052   0.021  0.0935 -0.0296  0.1401
 4922W        W20816  17.620   1.122  13.310  0.1319  0.0318  0.0447
 4923W        W20817   8.920  18.728  13.841 -0.1606 -0.0135  0.1329
 4924W        W20818  14.794  10.978   0.839  0.1752  0.2447 -0.0268
 4925W        W20819   5.238  14.655  11.788  0.1139 -0.2728 -0.0366
 4926W        W20820  16.420   4.479  13.193 -0.0094 -0.0322  0.3030
 4927W        W20821   3.415   9.086   9.931 -0.1384  0.0138  0.0496
 4928W        W20822  17.520   7.285   2.767  0.3204 -0.0137  0.2556
 4929W        W20823   3.434   5.762   1.184 -0.1573  0.1713  0.0805
 4930W        W20824   7.725  17.008  13.861  0.5437  0.3074  0.0005
 4931W        W20825  14.375  18.487  12.148  0.3665 -0.1980 -0.3806
 4932W        W20826   8.044   3.596   9.705 -0.1379  0.2260  0.0230
 4933W        W20827  10.800   2.645  13.080 -0.1985  0.3627 -0.0835
 4934W        W20828   8.310  16.657   3.787  0.1704 -0.0128 -0.2060
 4935W        W20829   2.095   5.150   4.544  0.1631 -0.1697  0.0839
 4936W        W20830   9.593   3.869   0.332 -0.1285 -0.0005  0.0824
 4937W        W20831   8.402  17.077  10.221  0.1557 -0.1511  0.0151
 4938W        W20832   3.462   1.219   6.156 -0.2078  0.1356  0.1532
 4939W        W20833  18.205  17.221   4.164 -0.3752 -0.0102 -0.2109
 4940W        W20834  16.261   4.244  14.459  0.1149 -0.0969  0.0952
 4941W        W20835  16.392  14.718   0.148 -0.0051  0.2464  0.3457
 4942W        W20836   3.925   6.144  12.272  0.0304  0.2361 -0.0307
 4943W        W20837  13.646   6.000  10.326 -0.0496 -0.0622 -0.1278
 4944W        W20838  17.426  18.818  12.192 -0.0287 -0.1219  0.2320
 4945W        W20839  11.998   8.269  12.935  0.3843 -0.0172 -0.0151
 4946W        W20840   2.107   2.891   5.576 -0.1110  0.0825 -0.0887
 4947W        W20841  10.194  11.512   0.957  0.0685 -0.1619 -0.0080
 4948W        W20842   2.034  19.024   4.827 -0.0897  0.2987 -0.0412
 4949W        W20843   2.708  13.864   4.332 -0.1838  0.0540  0.0369
 4950W        W20844  14.123   7.248   4.004  0.1520 -0.0891 -0.2348
 4951W        W20845  15.626   0.178   1.321  0.0881 -0.0550 -0.0685
 4952W        W20846   1.256  17.373  10.921  0.0154  0.1315  0.1417
 4953W        W20847   0.008  14.757   4.684  0.1661 -0.1316 -0.0487
 4954W        W20848  14.101   9.945  14.781 -0.0255  0.2300  0.1993
 4955W        W20849  10.816   8.574  11.900  0.0143  0.1376  0.2197
 4956W        W20850  11.403  18.604  10.363 -0.2343  0.2277 -0.3927
 4957W        W20851  18.127  13.222  10.064 -0.1650  0.0304  0.0399
 4958W        W20852   0.235  14.108  11.028  0.3860  0.0498 -0.0353
 4959W        W20853   8.578   6.889   5.235 -0.1533 -0.1426 -0.2931
 4960W        W20854   5.878  12.045   0.556 -0.0679 -0.0988  0.3006
 4961W        W20855  18.497  14.278  13.620 -0.0332 -0.3226 -0.0302
 4962W        W20856  19.082  12.902   1.725  0.1772  0.0500 -0.0107
 4963W        W20857   3.302   4.078   6.369 -0.1263  0.0122 -0.1056
 4964W        W20858  10.811   9.303  10.525 -0.0180  0.0853 -0.1425
 4965W        W20859   4.033   7.788   4.187  0.1329 -0.2083 -0.2084
 4966W        W20860   4.140  11.595   4.525 -0.0884 -0.0535 -0.0618
 4967W        W20861   8.046   7.067  12.080  0.2241  0.0347  0.0508
 4968W        W20862   5.798   8.692   4.048 -0.2403  0.1165 -0.1819
 4969W        W20863   8.987   0.799  12.523 -0.0875  0.1595  0.2682
 4970W        W20864   4.823  18.670   3.967 -0.1654 -0.3068  0.0817
 4971W        W20865  17.630  16.395   3.355  0.2961  0.2837  0.0830
 4972W        W20866  15.865   5.195  11.285 -0.2306  0.0911 -0.3573
 4973W        W20867  15.470  18.201   5.183 -0.1148 -0.0443 -0.3141
 4974W        W20868  16.746  14.435   3.721  0.2075  0.4766  0.0879
 4975W        W20869   5.134   4.932   3.440  0.1685 -0.2365 -0.2797
 4976W        W20870  12.381  13.124   3.461 -0.0921 -0.0534  0.0491
 4977W        W20871  10.758   6.701  12.560  0.4028 -0.3204  0.1042
 4978W        W20872   3.061  16.438  11.627 -0.1357  0.0891 -0.2306
 4979W        W20873   3.893  13.505  14.714 -0.1090 -0.0762  0.0673
 4980W        W20874  13.727   3.794   0.069  0.1438 -0.0634 -0.0175
 4981W        W20875   9.856   4.905  14.845 -0.0955  0.3787  0.1807
 4982W        W20876  18.274  15.498   2.224  0.0819 -0.0738  0.1312
 4983W        W20877   5.508  11.601  11.539 -0.0540 -0.1154  0.0635
 4984W        W20878   1.110   3.639   4.306 -0.5066  0.1610 -0.1443
 4985W        W20879  11.117  11.299   2.858 -0.0789  0.0272  0.1460
 4986W        W20880   7.244   1.556  14.081  0.1928  0.1972 -0.1143
 4987W        W20881   3.161   3.863   3.991 -0.0087  0.2521 -0.0604
 4988W        W20882  18.458  16.915   3.586  0.0398 -0.2454  0.1014
 4989W        W20883   4.472   5.605  12.394  0.2543  0.0916 -0.2204
 4990W        W20884  11.498  11.203   4.983 -0.3034  0.0264 -0.1000
 4991W        W20885   6.599   2.424  10.962 -0.0674 -0.0445 -0.0616
 4992W        W20886  13.565  13.181   1.012  0.1275 -0.0640 -0.3121
 4993W        W20887  15.284   9.997   4.231  0.0332 -0.3325  0.2077
 4994W        W20888   4.637   5.020   3.458  0.2758 -0.3455 -0.0365
 4995W        W20889  11.073   2.744   1.353  0.0037  0.1789 -0.0407
 4996W        W20890   6.087  12.584   1.724 -0.0543  0.0826 -0.0332
 4997W        W20891  15.453   9.536   5.694  0.0864  0.2333  0.1021
 4998W        W20892   6.079  16.602   4.791 -0.1145 -0.1398 -0.1401
 4999W        W20893  14.573   3.580  11.758 -0.2158 -0.0067  0.1478
 5000W        W20894   7.524   3.132  12.265 -0.2737  0.3129  0.4323
 5001W        W20895  17.388  13.640   3.111  0.4743 -0.3889  0.2966
 5002W        W20896   1.020   5.368  14.616 -0.2913 -0.2783  0.1893
 5003W        W20897   5.962   8.821   0.364  0.3603  0.0256 -0.0685
 5004W        W20898  18.783   7.021   2.555  0.0619  0.0362  0.2817
 5005W        W20899  14.921  10.155   0.973 -0.0119 -0.1140 -0.1346
 5006W        W20900   4.748  15.128   1.516 -0.1786  0.0003  0.1342
 5007W        W20901  16.461  12.890   4.907  0.1541 -0.0280  0.2485
 5008W        W20902   3.116   2.301   0.937  0.1048  0.1737 -0.1448
 5009W        W20903  14.546   8.632   0.169 -0.0904  0.1720  0.1333
 5010W        W20904  15.438   0.951   0.694 -0.1940  0.1994  0.0687
 5011W        W20905  18.182  10.548  13.045  0.2111  0.1111  0.4219
 5012W        W20906  13.820  10.810  12.904  0.2352  0.1977 -0.1320
 5013W        W20907  18.269  14.917   1.591  0.0289  0.0540 -0.3247
 5014W        W20908   1.673   7.859  13.745  0.0671 -0.1012 -0.3578
 5015W        W20909   9.325   1.081  14.719 -0.2083 -0.0900  0.0758
 5016W        W20910   2.296  10.802   0.396 -0.0138 -0.1033  0.1121
 5017W        W20911   8.976   8.365  14.794 -0.0515  0.0309 -0.1891
 5018W        W20912  14.560   1.348   4.752  0.0718  0.0944 -0.0311
 5019W        W20913  12.918  10.823  11.337  0.3003 -0.0672 -0.1128
 5020W        W20914  14.509   7.680   0.725  0.5563  0.0512 -0.0408
 5021W        W20915   4.543   0.527  13.335 -0.1661 -0.1565  0.2707
 5022W        W20916  11.792   9.493   9.502 -0.0729  0.3691  0.1131
 5023W        W20917   3.261   7.746   5.425 -0.0800  0.1368 -0.1561
 5024W        W20918   2.973   0.395   3.193 -0.3653 -0.0424  0.2716
 5025W        W20919   1.634   0.040   4.905  0.2852 -0.1408 -0.0784
 5026W        W20920   5.610  10.093   0.138  0.1217  0.0169 -0.0920
 5027W        W20921   7.992  13.309  12.538 -0.2838 -0.2085  0.2708
 5028W        W20922   8.169   4.921   2.793 -0.0733  0.1225 -0.0352
 5029W        W20923   4.444  11.101   4.612 -0.0037  0.0507 -0.4304
 5030W        W20924   0.698   7.334   3.130 -0.1001 -0.2444 -0.0801
 5031W        W20925   2.107   7.009   0.455 -0.1411 -0.0427  0.2981
 5032W        W20926  12.392   4.719  14.413 -0.2383  0.0665 -0.4782
 5033W        W20927  18.446  18.796   1.227  0.0865 -0.0195  0.1773
 5034W        W20928  14.464   0.502   2.350 -0.0108 -0.0984  0.0327
 5035W        W20929   3.038   2.267   2.608  0.0565 -0.3386 -0.2011
 5036W        W20930  14.381   1.390  14.863 -0.2305 -0.0628 -0.1058
 5037W        W20931   9.946   6.608  14.665 -0.3098  0.1825 -0.1690
 5038W        W20932   5.492  13.035  14.547 -0.1969  0.2250  0.2888
 5039W        W20933  14.853   4.626  13.035 -0.3991 -0.2248  0.2652
 5040W        W20934   0.812  12.997  11.283  0.1734  0.1554 -0.3328
 5041W        W20935  16.143  16.640   2.167  0.2709  0.2522 -0.0916
 5042W        W20936   8.853  18.976  14.377 -0.1083  0.2361  0.4135
 5043W        W20937  17.346   5.589   0.917  0.1740  0.2206  0.0234
 5044W        W20938   8.178  17.076   0.431  0.4212  0.0680 -0.3208
 5045W        W20939  14.051  16.151   0.154  0.2871 -0.1159  0.0963
 5046W        W20940   9.028   7.428   1.528 -0.3523  0.0732 -0.2208
 5047W        W20941  16.451  16.349   0.688 -0.1598 -0.2310 -0.1632
 5048W        W20942  15.912   3.230   2.240  0.3298 -0.3777 -0.1633
 5049W        W20943  18.322   8.993   4.052  0.1462 -0.0396  0.1792
 5050W        W20944   3.666  17.965   2.244  0.0198 -0.0400  0.3454
 5051W        W20945  13.889  14.331  10.444  0.3411  0.0158  0.3352
 5052W        W20946   8.983   8.854  11.083  0.3770 -0.1253  0.2555
 5053W        W20947   3.736  12.641  11.916  0.0736  0.1185 -0.3230
 5054W        W20948  15.788   3.902   0.989  0.1262  0.2099 -0.3091
 5055W        W20949   3.366  18.416   4.297  0.0897  0.1277 -0.0174
 5056W        W20950   2.804   8.354   4.202  0.2939  0.1611  0.3165
 5057W        W20951   2.037  19.117   5.757  0.2004  0.0786 -0.1705
 5058W        W20952  15.187   9.463   4.108  0.0446 -0.0066  0.0469
 5059W        W20953  16.865  11.989   5.018  0.2452  0.4880  0.0187
 5060W        W20954   3.394   6.277  13.983 -0.1866  0.0389  0.0672
 5061W        W20955   2.922  16.189   0.712  0.0272  0.0042 -0.0572
 5062W        W20956   5.782  12.998  12.421 -0.1852  0.2599  0.1088
 5063W        W20957   6.428   6.321  14.177  0.1368  0.0265 -0.0180
 5064W        W20958  14.926   9.841  13.077  0.0979 -0.1253  0.1664
 5065W        W20959  10.793  11.598   2.526  0.1125  0.1578  0.2514
 5066W        W20960   3.382   2.289   2.105  0.5076  0.2189 -0.1440
 5067W        W20961  16.719   2.859   2.813 -0.2354  0.0241 -0.0968
 5068W        W20962   3.323   6.788  14.062 -0.0088  0.4637 -0.0035
 5069W        W20963  10.357  19.056   2.475  0.0681 -0.1558 -0.1275
 5070W        W20964   7.581  13.990   4.900  0.2249  0.2177 -0.1352
 5071W        W20965   2.290  12.626  10.373 -0.0744 -0.3183  0.2788
 5072W        W20966   5.586  18.427  14.517 -0.0749  0.0728  0.4552
 5073W        W20967   5.238   2.525  11.760  0.2805  0.1884  0.0088
 5074W        W20968  12.017   9.182   2.705 -0.0388 -0.0118 -0.0196
 5075W        W20969  14.759   7.593  12.116  0.0258 -0.0155  0.1599
 5076W        W20970   6.737  12.529  12.068 -0.3440 -0.1738  0.0779
 5077W        W20971  13.992   0.694   5.119 -0.1362 -0.1435 -0.0784
 5078W        W20972  13.385  10.932  11.170  0.2086  0.0195  0.0121
 5079W        W20973  16.829   1.223   3.487  0.0097  0.0236 -0.0289
 5080W        W20974   9.672   8.439  14.265  0.0671  0.2327 -0.2329
 5081W        W20975   9.479  12.372   4.114 -0.6734 -0.1850  0.1098
 5082W        W20976  18.340  11.910  10.386 -0.1046  0.0531 -0.4790
 5083W        W20977   1.261   2.358  13.167 -0.0718  0.1764  0.0668
 5084W        W20978   6.555   5.116  11.422  0.1159 -0.1987  0.3155
 5085W        W20979   9.881   9.554  13.100 -0.1108  0.0013 -0.0153
 5086W        W20980   7.870  14.198  10.385 -0.0960 -0.0555 -0.2802
 5087W        W20981  11.962  16.446  12.047  0.0316 -0.0499 -0.0174
 5088W        W20982   1.477  13.238  12.399  0.2292  0.0886  0.0238
 5089W        W20983   7.943  11.993   2.434 -0.5377  0.0950 -0.0313
 5090W        W20984   0.369  16.950   0.272 -0.2561 -0.2017  0.1342
 5091W        W20985  16.075  17.636  13.170 -0.2597 -0.1386  0.2869
 5092W        W20986   7.049  14.271   3.626  0.2221 -0.1175  0.1484
 5093W        W20987  15.609  15.880   2.218 -0.0474 -0.0699  0.2197
 5094W        W20988   5.559   0.868  12.509  0.0456  0.2872  0.0821
 5095W        W20989  10.823   1.697  13.030 -0.0339  0.0203  0.0479
 5096W        W20990  18.116   3.655   4.647 -0.1221  0.3376 -0.1740
 5097W        W20991  12.600   2.473   3.534  0.0651  0.0194  0.0822
 5098W        W20992   0.538  10.686  14.662 -0.0673  0.1856  0.1165
 5099W        W20993  15.580  16.448   2.296 -0.1320 -0.2210 -0.0630
 5100W        W20994   2.196   1.491   5.481  0.0575 -0.1065 -0.2615
 5101W        W20995   0.209   2.325   2.002  0.0344 -0.2753 -0.0778
 5102W        W20996   7.972  17.822  12.924 -0.1649  0.0237 -0.3100
 5103W        W20997  18.399  18.397  13.315 -0.0705 -0.2501  0.0482
 5104W        W20998  14.744  13.198  14.348  0.6042 -0.6700 -0.2852
 5105W        W20999   0.998   4.613  13.462 -0.0387  0.5461 -0.3995
 5106W        W21000   1.829   8.929   2.167 -0.0084  0.2439 -0.1988
 5107W        W21001  13.864   6.934   5.210 -0.1404  0.3007 -0.0347
 5108W        W21002  15.261   5.261   4.371  0.2342 -0.1082 -0.4463
 5109W        W21003  10.212   5.340   3.392  0.0857 -0.2479 -0.3392
 5110W        W21004   7.765   1.542   2.530 -0.0241  0.0576  0.0365
 5111W        W21005   7.181  10.259   3.738  0.4359 -0.1972 -0.3111
 5112W        W21006  13.662  18.982  11.922 -0.1543  0.1904  0.2320
 5113W        W21007   2.529   7.422  11.748 -0.0884 -0.1047 -0.1396
 5114W        W21008  12.977   7.799   2.572 -0.0522 -0.1845  0.0747
 5115W        W21009  10.135  15.141   0.947 -0.2903 -0.1361 -0.2006
 5116W        W21010   1.866  16.131  14.135 -0.0174  0.0033 -0.0264
 5117W        W21011  13.563   8.818  12.189  0.1243 -0.0813 -0.1079
 5118W        W21012  15.292  14.485   2.627  0.1179  0.1327  0.2659
 5119W        W21013   7.186   1.525   5.984 -0.2190 -0.2051  0.0268
 5120W        W21014  11.398   8.400   3.777  0.3034  0.0386 -0.3171
 5121W        W21015  11.269   6.915  13.677  0.0127  0.1688  0.3373
 5122W        W21016  12.687  18.651  10.566 -0.2503 -0.0460  0.1883
 5123W        W21017  18.413  12.452   4.096  0.2536 -0.1531 -0.0645
 5124W        W21018  18.433   1.893   4.589 -0.2326 -0.2828  0.2774
 5125W        W21019   2.656   0.167   1.822  0.1986 -0.0991  0.1178
 5126W        W21020   8.143   6.549   4.562 -0.1904 -0.1637 -0.2999
 5127W        W21021  11.908   9.894  13.766  0.2573 -0.0904  0.2584
 5128W        W21022  13.268  15.658  14.866  0.2599 -0.0290  0.0466
 5129W        W21023   5.254  18.368  14.090  0.2761 -0.1639 -0.0726
 5130W        W21024   3.404  14.813  14.202  0.1858 -0.1163 -0.1594
 5131W        W21025   3.618  12.402  11.422 -0.2366  0.2417 -0.0390
 5132W        W21026  11.432  16.536   3.192 -0.3807 -0.2535  0.4302
 5133W        W21027  13.618  11.343  12.349 -0.1890 -0.1774  0.1060
 5134W        W21028  17.597  19.023  11.738  0.1672  0.2164  0.1068
 5135W        W21029   0.401   8.233  11.322  0.4467  0.0816  0.0700
 5136W        W21030   7.407  17.580  14.803 -0.2706 -0.0863 -0.2019
 5137W        W21031  18.716   7.645   1.650  0.2085  0.2312  0.0493
 5138W        W21032  18.556   8.141  14.354  0.0014 -0.0929 -0.0408
 5139W        W21033   0.993   6.598   2.765 -0.0901  0.0541 -0.0408
 5140W        W21034  11.227  10.128   2.303  0.5907 -0.0491  0.0209
 5141W        W21035  12.468  14.316  10.607  0.1285  0.2657  0.0866
 5142W        W21036   0.066  13.706  12.203  0.0984  0.1838 -0.0634
 5143W        W21037   5.182  16.650  11.037 -0.0659  0.1392 -0.0863
 5144W        W21038  10.669  12.924  14.069  0.1055  0.1122  0.1245
 5145W        W21039  17.848  17.744  10.640 -0.0169  0.1217 -0.3137
 5146W        W21040  14.127   9.143   2.293 -0.0504  0.1596  0.1974
 5147W        W21041   9.664   8.221  10.309 -0.0165 -0.3760 -0.3957
 5148W        W21042  14.689  11.298  14.350 -0.0327  0.1628  0.2232
 5149W        W21043   4.507  16.694   2.644 -0.1770 -0.1388 -0.0548
 5150W        W21044  15.486   9.913  14.787  0.1288  0.1775  0.4528
 5151W        W21045   9.663   7.641   3.774  0.1691 -0.0424 -0.2593
 5152W        W21046   8.660  10.709   5.401  0.1469 -0.1352  0.2057
 5153W        W21047   1.680   3.402   0.346  0.0684  0.1281  0.0717
 5154W        W21048  11.929   9.738  11.934  0.0338  0.1848  0.0147
 5155W        W21049  11.541   4.209   2.152 -0.3917  0.4241 -0.2354
 5156W        W21050   0.024  10.014  14.055 -0.2763 -0.1122 -0.2775
 5157W        W21051  11.628   9.254  13.054 -0.0310 -0.1120  0.0272
 5158W        W21052   9.828   0.679  11.298  0.1950 -0.0589 -0.1208
 5159W        W21053  14.947  11.515  10.973 -0.1002  0.0186  0.0029
 5160W        W21054   0.834  12.455   4.249  0.0165 -0.1592  0.3136
 5161W        W21055   2.762  12.683   0.441 -0.0795 -0.2601 -0.0546
 5162W        W21056  13.111   9.948   4.208  0.1263 -0.1347  0.0357
 5163W        W21057   0.990  14.098   0.605 -0.0782  0.1185 -0.1882
 5164W        W21058  13.660  15.702   4.108  0.0578 -0.2663  0.1088
 5165W        W21059   5.024  14.640   3.755  0.0279  0.1970 -0.0775
 5166W        W21060   0.726  13.464  10.036 -0.1100 -0.0760 -0.0634
 5167W        W21061  12.180  18.517   3.682 -0.1150 -0.1725 -0.2424
 5168W        W21062   4.346   9.542  13.813  0.0076  0.1797 -0.2208
 5169W        W21063   6.589   1.603  13.748  0.3207 -0.0102 -0.1221
 5170W        W21064   8.995  17.066  14.176 -0.1033 -0.2086 -0.0244
 5171W        W21065  14.998  14.973   0.726 -0.1443  0.0273  0.0233
 5172W        W21066  11.651  11.941   1.600  0.1556 -0.0436 -0.1187
 5173W        W21067   5.541  14.882   4.439 -0.1083  0.0049  0.0133
 5174W        W21068  14.413  14.280  11.874  0.1145 -0.0677  0.0673
 5175W        W21069   6.684  13.474   1.285 -0.1598 -0.0570 -0.0241
 5176W        W21070  17.439  13.155  11.596  0.0711  0.2290 -0.3153
 5177W        W21071  16.964   9.288   1.325 -0.1058 -0.3688  0.0294
 5178W        W21072   3.152   1.990  10.533  0.0272  0.3130 -0.0649
 5179W        W21073  16.814   0.814  11.008 -0.0077  0.1686 -0.0611
 5180W        W21074   5.131  16.941  10.533 -0.0837 -0.3174  0.1714
 5181W        W21075   2.903  17.465   1.231  0.2388 -0.1329 -0.0166
 5182W        W21076   7.116  14.772  11.390  0.1981  0.3023  0.2208
 5183W        W21077   1.485  13.900  15.015  0.0193  0.1342  0.2395
 5184W        W21078  10.002   4.522  12.160 -0.1665  0.3257 -0.1680
 5185W        W21079   6.650  12.706  13.558 -0.1186  0.2595  0.2290
 5186W        W21080   6.369  12.666   1.187  0.0828  0.1417 -0.0435
 5187W        W21081  11.816   2.505  13.841  0.2963  0.1387  0.1443
 5188W        W21082   4.391  17.555   3.023  0.3364 -0.0405  0.0081
 5189W        W21083  12.566  17.016  13.504  0.0171 -0.0633 -0.1196
 5190W        W21084  11.449  11.183   4.239 -0.0050  0.2604  0.2668
 5191W        W21085  18.540   3.807  11.371  0.0311 -0.0998 -0.1204
 5192W        W21086  15.364  13.771   0.628  0.0186  0.2075  0.4139
 5193W        W21087  10.608  11.372  11.354  0.2297  0.0631 -0.3655
 5194W        W21088  14.448   5.944  14.800 -0.0741 -0.1305  0.2737
 5195W        W21089  17.882   5.484   1.891  0.2001  0.0602 -0.2696
 5196W        W21090   8.908  15.764   2.919 -0.1607  0.0548  0.0787
 5197W        W21091   6.020  18.680   0.579  0.2729 -0.0093 -0.1147
 5198W        W21092  14.488  18.272  14.373  0.1622 -0.3841  0.0079
 5199W        W21093   5.431   8.013   0.203 -0.3708  0.1494  0.0405
 5200W        W21094  15.244   7.649  10.640 -0.1526  0.4711  0.1003
 5201W        W21095   8.382   1.083  11.479 -0.1367 -0.1395 -0.0654
 5202W        W21096  12.450  15.663  14.520  0.2476  0.2458 -0.2428
 5203W        W21097   9.245  18.361   2.583 -0.1729  0.1127 -0.2461
 5204W        W21098  18.733  17.193   1.401  0.3527 -0.4144  0.0400
 5205W        W21099  15.741  11.145  12.840  0.3060 -0.5515 -0.2138
 5206W        W21100  12.857   8.833  14.980 -0.2228  0.1631  0.0618
 5207W        W21101  18.186  12.679   9.176 -0.1271 -0.2283  0.0485
 5208W        W21102  18.220   9.258   0.524  0.0058  0.3860  0.0440
 5209W        W21103  13.026   2.777   0.547  0.0172 -0.2549 -0.1878
 5210W        W21104   6.743   0.351  10.887  0.1819  0.4496 -0.0654
 5211W        W21105  12.064   7.722  12.880 -0.2532 -0.0260  0.0803
 5212W        W21106   2.120  11.630   2.180  0.2304  0.3800 -0.0786
 5213W        W21107   8.796  12.901   4.352 -0.0648  0.3094 -0.2040
 5214W        W21108  17.097  10.018   9.815  0.1972 -0.2244  0.2019
 5215W        W21109   5.430   0.654  10.785  0.0612 -0.0719  0.2600
 5216W        W21110  16.169   5.258  11.774 -0.3148  0.0840 -0.1460
 5217W        W21111   9.273   9.136  11.511 -0.2005 -0.0812  0.0618
 5218W        W21112   5.749   2.125   1.678  0.2559 -0.2935  0.0174
 5219W        W21113  16.785   8.991  10.774  0.1632 -0.1066  0.0174
 5220W        W21114   9.016   2.089   5.542  0.3259  0.0497  0.4361
 5221W        W21115   4.017  15.772   5.443 -0.2492 -0.0835  0.1187
 5222W        W21116  10.325  18.058   3.857  0.2691  0.2989 -0.4203
 5223W        W21117   7.929  10.852  11.057 -0.0327  0.0112 -0.0119
 5224W        W21118   6.030   3.955  14.320  0.1000 -0.1390 -0.1841
 5225W        W21119   9.049  14.230  11.209 -0.4053  0.2667  0.0201
 5226W        W21120  16.122   2.094  12.548 -0.0899 -0.2474 -0.0488
 5227W        W21121   5.189   3.255   0.191 -0.0498 -0.3099 -0.1267
 5228W        W21122   0.184   7.157  14.306  0.0810 -0.0649 -0.1721
 5229W        W21123  16.367   8.448  12.254  0.2689  0.0951  0.0477
 5230W        W21124  15.345   6.469   3.038 -0.0992  0.1755 -0.0569
 5231W        W21125  10.260   6.567  10.658 -0.0260 -0.0990 -0.0175
 5232W        W21126   9.449  18.725   9.797 -0.2702 -0.1880 -0.2421
 5233W        W21127   1.836   5.578  14.420 -0.0036 -0.0570  0.2958
 5234W        W21128   7.312  13.362  11.768  0.1344  0.2928  0.4119
 5235W        W21129   7.995  11.658  10.796  0.1091 -0.0593 -0.2266
 5236W        W21130   7.870   6.675   3.280  0.3605 -0.4216  0.3579
 5237W        W21131  17.516   9.349  12.779  0.2262  0.3990  0.3173
 5238W        W21132   8.727  17.182  10.655  0.0282 -0.3565  0.0199
 5239W        W21133  15.551  18.697   5.380 -0.0527  0.1432  0.1187
 5240W        W21134   2.378   9.370  13.230 -0.0426  0.2464 -0.1244
 5241W        W21135  16.471  19.112   1.971 -0.1196 -0.0058  0.0751
 5242W        W21136   3.484  12.967   4.077 -0.3300  0.1514 -0.0576
 5243W        W21137  13.623   6.209   3.908  0.0579  0.0871 -0.4568
 5244W        W21138   6.089   0.580  11.537  0.0254 -0.2551  0.0147
 5245W        W21139   9.905  13.747   2.981  0.1974 -0.0948  0.2132
 5246W        W21140  15.867   7.123   1.345  0.3658  0.1186 -0.4070
 5247W        W21141  17.956   7.267   3.594  0.2705 -0.0521 -0.2433
 5248W        W21142  19.080  17.740   0.534  0.3159  0.1897 -0.2747
 5249W        W21143   2.010   1.743  14.792 -0.0646  0.3402 -0.1437
 5250W        W21144  16.121  14.707  12.511  0.2318  0.0057  0.1658
 5251W        W21145   3.669  12.300   1.679  0.1544 -0.3033  0.0893
 5252W        W21146  14.378  18.480  13.022  0.0374 -0.2960 -0.0327
 5253W        W21147   2.195  13.287  12.807 -0.1267 -0.2858  0.0453
 5254W        W21148   5.494  12.846   0.492  0.0205  0.3780  0.3405
 5255W        W21149  15.094  13.313   3.874  0.2872  0.2024  0.1049
 5256W        W21150   9.407   6.927  14.668 -0.3499  0.5020  0.0668
 5257W        W21151   2.678   6.867   1.864  0.1292  0.0198 -0.2567
 5258W        W21152   5.515  15.014  10.984 -0.0625  0.0835  0.0200
 5259W        W21153  13.963  13.333   4.401  0.1451 -0.3808  0.0097
 5260W        W21154  18.494   7.447   0.058  0.0305  0.2151 -0.1518
 5261W        W21155  17.296  15.591  13.341  0.1221 -0.1530  0.4754
 5262W        W21156  16.801   3.973  14.556 -0.0866 -0.0050 -0.2720
 5263W        W21157   6.538   7.521   1.001 -0.0060  0.3369 -0.2979
 5264W        W21158   5.857   4.287   2.139 -0.0930 -0.0194  0.2488
 5265W        W21159   1.967  13.164   0.869 -0.1154  0.0954 -0.0795
 5266W        W21160   4.362   2.285   0.678  0.0143  0.0737  0.0455
 5267W        W21161  12.996  11.136  12.840  0.1647 -0.1115 -0.0218
 5268W        W21162   3.051   9.412  10.952 -0.1879 -0.1270  0.1657
 5269W        W21163  17.717  11.953   2.354 -0.2484  0.0207  0.2467
 5270W        W21164  18.170   4.156   2.710 -0.1986 -0.0829 -0.1725
 5271W        W21165  11.531   8.781  10.525 -0.2211 -0.0268  0.1590
 5272W        W21166  11.471  14.567  14.504 -0.2678 -0.1088  0.1953
 5273W        W21167  13.362   2.903  14.369  0.2219  0.2409 -0.1986
 5274W        W21168   0.301   6.999  12.605  0.0097 -0.1124  0.1072
 5275W        W21169  13.772   5.593  11.821  0.1573 -0.0675  0.0103
 5276W        W21170   4.948   1.632  12.375 -0.5072  0.1874  0.0986
 5277W        W21171  11.167  12.549   2.775 -0.4061 -0.0027  0.0485
 5278W        W21172  10.731  14.853   1.414 -0.3258 -0.0241  0.1397
 5279W        W21173   6.854   0.772   2.698 -0.1261 -0.0902 -0.0515
 5280W        W21174   1.159   3.243   0.501 -0.0835  0.1343 -0.1290
 5281W        W21175  17.685  16.074  14.935 -0.0021 -0.1853 -0.2789
 5282W        W21176  14.179  19.020   3.663 -0.1661  0.1499  0.0922
 5283W        W21177  17.164   4.647   4.539  0.1285  0.0746  0.5172
 5284W        W21178  18.345   0.187   9.582  0.0696  0.0714  0.3503
 5285W        W21179  14.276   9.327  11.045 -0.1509  0.2541  0.0786
 5286W        W21180   3.768  18.506   0.910 -0.0263  0.0466  0.0720
 5287W        W21181   0.204   8.307  12.902  0.0400 -0.1821 -0.3710
 5288W        W21182  19.146  17.560  14.163 -0.0670 -0.5308 -0.0280
 5289W        W21183  16.534   7.361   5.422 -0.0027 -0.0864 -0.1555
 5290W        W21184  17.355  16.691   0.018  0.1034  0.0760 -0.1464
 5291W        W21185  17.668   9.745   5.423  0.3491  0.1872  0.1263
 5292W        W21186  12.300  12.644   5.267  0.1515 -0.0604 -0.2568
 5293W        W21187  10.133   5.002  14.313 -0.2104 -0.2191  0.0388
 5294W        W21188   7.304   2.172   4.753  0.3389 -0.0545  0.0580
 5295W        W21189   3.553  12.991  14.028  0.0122  0.2728  0.3789
 5296W        W21190  11.882  15.875  12.168 -0.0750  0.1915 -0.1831
 5297W        W21191   2.639  12.880  11.325 -0.1443  0.3218 -0.1824
 5298W        W21192   9.141   3.391  14.876 -0.0005  0.2514  0.1032
 5299W        W21193  10.690  10.347   4.207  0.1851  0.1469 -0.0600
 5300W        W21194   5.335   2.207   2.950 -0.1982 -0.2534 -0.4159
 5301W        W21195   2.319  14.309   5.462  0.0433  0.0275  0.0643
 5302W        W21196   7.137  18.577   1.496 -0.1737  0.0447  0.0859
 5303W        W21197   7.250  11.898   0.524  0.0845 -0.1109 -0.2407
 5304W        W21198  14.525  10.092  13.275 -0.2301 -0.1944 -0.0553
 5305W        W21199  17.799   9.233   1.369 -0.2210 -0.1040 -0.1015
 5306W        W21200   1.838   2.147   1.853  0.2412 -0.0126  0.2185
 5307W        W21201   7.619  14.490  10.741  0.0704 -0.3947 -0.2559
 5308W        W21202  12.408  15.892   1.657  0.1267  0.1735  0.1063
 5309W        W21203   7.691   8.814  15.063  0.0730  0.0838 -0.0156
 5310W        W21204   3.321  12.170   1.973 -0.3121  0.3009  0.1014
 5311W        W21205  14.784  17.509   0.614  0.2885  0.1019  0.0254
 5312W        W21206  17.682   4.283   2.697 -0.1309 -0.1203 -0.1771
 5313W        W21207  10.713  10.882   4.650 -0.1784  0.0279  0.0903
 5314W        W21208  16.804   9.963  13.676  0.2647  0.1363  0.0922
 5315W        W21209   8.246   0.090   0.397  0.0808  0.2752 -0.2418
 5316W        W21210   6.857  16.913   1.707 -0.3153  0.0327  0.1654
 5317W        W21211  10.930   9.991  13.419 -0.0079 -0.0446  0.1211
 5318W        W21212  16.804   7.555   0.980 -0.2583  0.0323 -0.0516
 5319W        W21213  12.094  18.155   0.235  0.1515 -0.1112 -0.1679
 5320W        W21214   2.028   4.758  11.292 -0.4900 -0.0885  0.1446
 5321W        W21215  12.740   2.278   0.032 -0.4224  0.0398  0.1473
 5322W        W21216  14.024  16.514  14.382  0.2001  0.2998  0.2342
 5323W        W21217   1.657   6.019  11.255 -0.3841 -0.1653  0.2574
 5324W        W21218  14.757   4.620   4.734  0.1154  0.0766  0.0498
 5325W        W21219  10.070   0.244  10.954  0.0719  0.1745  0.2190
 5326W        W21220  10.562  18.832   1.520  0.0289 -0.0092 -0.3638
 5327W        W21221   8.257   1.409   0.686  0.3562  0.1973  0.1482
 5328W        W21222  18.362   5.003   2.995 -0.0910 -0.0141 -0.3210
 5329W        W21223  11.120   0.219   1.090 -0.0502 -0.1269 -0.1911
 5330W        W21224  11.540   3.497  14.648 -0.1031 -0.0281 -0.2942
 5331W        W21225  17.780  10.941  12.298  0.1273 -0.0488 -0.1809
 5332W        W21226   7.241   6.568  15.010 -0.4237  0.3835 -0.3457
 5333W        W21227  12.321   9.151   3.242  0.1372 -0.0892  0.0883
 5334W        W21228   2.898  16.708   4.374 -0.0685  0.2233 -0.2437
 5335W        W21229  10.032   4.475   2.018 -0.1815  0.0576 -0.3118
 5336W        W21230   4.677   4.082   4.193 -0.2242 -0.1954  0.0204
 5337W        W21231  17.983  18.649  10.017 -0.1491  0.3005 -0.1295
 5338W        W21232  18.226   6.377   4.608 -0.0568 -0.0305 -0.3426
 5339W        W21233  18.694  18.045   0.349  0.2667 -0.1584 -0.1427
 5340W        W21234  18.894   4.736   0.784 -0.3306  0.0682  0.2196
 5341W        W21235  14.276   9.787  12.526  0.1531  0.3750  0.0050
 5342W        W21236  11.034  13.256   1.443 -0.0024 -0.0966 -0.2501
 5343W        W21237   3.980  14.960  12.269  0.3869 -0.0621  0.0841
 5344W        W21238   6.831  12.853   4.244  0.1533  0.0643 -0.0605
 5345W        W21239   6.441   6.951  11.152 -0.1254 -0.3182 -0.0823
 5346W        W21240  11.620   5.598  10.769 -0.0087  0.1548  0.1221
 5347W        W21241  14.170   1.291   3.904 -0.3227 -0.1300  0.2840
 5348W        W21242   2.261   7.996   4.867 -0.2517 -0.4373  0.4572
 5349W        W21243   4.731   1.882  13.234 -0.1580 -0.1506  0.0406
 5350W        W21244  15.887  15.668  12.182  0.1597 -0.2772  0.1820
 5351W        W21245   5.533   3.799   5.992  0.1210 -0.2880 -0.1313
 5352W        W21246  17.508   0.283  11.850 -0.1977 -0.1018 -0.0352
 5353W        W21247  18.049   4.308   4.057 -0.1655  0.0085  0.2934
 5354W        W21248  10.582   4.621  12.275  0.0364 -0.0216  0.3559
 5355W        W21249  11.196   1.721  12.667  0.1215 -0.1797 -0.3675
 5356W        W21250   3.325   3.572   2.947 -0.1862  0.0529  0.1724
 5357W        W21251   1.580   0.692   1.537  0.1087  0.0767  0.2345
 5358W        W21252   7.344   6.079  11.114  0.4255 -0.2843 -0.4675
 5359W        W21253   0.226   8.322  12.343 -0.1530  0.0503 -0.0014
 5360W        W21254  15.603   9.684  11.165  0.1161  0.3441  0.2926
 5361W        W21255   1.038  17.730  14.031  0.5070  0.2962 -0.1889
 5362W        W21256  16.417  17.464  10.439 -0.3626 -0.1413  0.0334
 5363W        W21257   2.420  13.016  12.268 -0.2108 -0.2672  0.2971
 5364W        W21258   3.944   9.525   0.766  0.2736 -0.1474 -0.0554
 5365W        W21259   8.123  15.914   2.448 -0.0376  0.6150  0.0176
 5366W        W21260   1.860  16.304  13.602  0.1284  0.0031 -0.2587
 5367W        W21261   1.295  19.143  11.366  0.0971  0.1313 -0.0392
 5368W        W21262   1.076   2.265   4.698 -0.1765  0.1518 -0.1842
 5369W        W21263   8.242   9.601  14.175 -0.3602 -0.1025  0.4667
 5370W        W21264   9.473  17.568   2.468  0.0759 -0.0304  0.0586
 5371W        W21265   5.641   7.688   4.528  0.1901  0.1608 -0.2511
 5372W        W21266  12.486   8.637   3.190  0.3540 -0.1892  0.1362
 5373W        W21267   2.191   2.153  11.567 -0.1881  0.1716  0.1500
 5374W        W21268  16.478  13.218  10.261  0.1901 -0.0462  0.1811
 5375W        W21269   4.104  19.099  12.682  0.0884  0.2427 -0.3881
 5376W        W21270   0.701  12.876   3.963  0.0334 -0.2554 -0.2256
 5377W        W21271  13.169   1.422  11.496 -0.1106 -0.1802 -0.1791
 5378W        W21272   1.960   4.180  14.603 -0.0489  0.1207  0.3614
 5379W        W21273   7.616   0.358  14.795  0.1291  0.1044  0.0361
 5380W        W21274  15.579  16.869  14.871 -0.0169  0.3790 -0.0302
 5381W        W21275   5.518   4.951  12.063 -0.0832  0.0253 -0.2312
 5382W        W21276   3.345   2.295   3.521  0.1649 -0.0676 -0.0238
 5383W        W21277   0.484  11.093  11.246 -0.2947  0.2906 -0.1398
 5384W        W21278   2.445   3.320  12.190  0.1459  0.0988  0.0073
 5385W        W21279   7.669   3.152  13.940 -0.1820 -0.0284 -0.2930
 5386W        W21280   1.668  18.602   1.837  0.3100  0.1028  0.0811
 5387W        W21281  13.422   1.742  14.077  0.0815 -0.2254  0.0880
 5388W        W21282   1.437   6.822   0.674 -0.0377 -0.2221 -0.1037
 5389W        W21283   2.075  16.095   0.592 -0.2438 -0.4511  0.1860
 5390W        W21284   9.689  19.167  10.301 -0.3976  0.1762 -0.1613
 5391W        W21285   3.660  14.939   0.888  0.1134 -0.1852  0.1839
 5392W        W21286   5.219  16.015  14.628  0.0301 -0.0726 -0.0760
 5393W        W21287   3.613  14.207   5.067 -0.0074 -0.0006  0.1642
 5394W        W21288  11.253   0.743   3.839 -0.0396  0.1308  0.2296
 5395W        W21289   5.440  11.831   0.444 -0.1928 -0.1509 -0.0028
 5396W        W21290   4.907   5.066   2.969  0.0418 -0.0595  0.0384
 5397W        W21291  15.271   8.255   2.964  0.0522 -0.1197  0.1935
 5398W        W21292  13.852  17.283  12.814  0.0141 -0.0392 -0.0051
 5399W        W21293  15.184  11.078   4.467 -0.0019 -0.0429 -0.0490
 5400W        W21294  11.192   3.363   3.170 -0.0926  0.1178  0.2159
 5401W        W21295   2.506  18.649   3.661 -0.1785 -0.3759  0.1588
 5402W        W21296  18.375  18.497   3.507 -0.1421 -0.0688 -0.4269
 5403W        W21297  19.080  10.468  14.092 -0.0671 -0.0712  0.1127
 5404W        W21298  16.423   8.510  14.321 -0.2315  0.0770  0.1970
 5405W        W21299   6.470  11.059   3.252 -0.2208  0.0284 -0.0598
 5406W        W21300  12.676   6.387  12.485  0.1207 -0.2133  0.0614
 5407W        W21301  11.196  15.618  12.580  0.1486 -0.1207  0.1109
 5408W        W21302  12.092   7.374   2.207 -0.3914  0.0717 -0.0134
 5409W        W21303   8.842  17.844   0.622 -0.0610  0.2885  0.0579
 5410W        W21304   4.385  10.056   3.587 -0.1750  0.1039  0.3961
 5411W        W21305   3.561  19.111  12.108  0.3100 -0.0569  0.2217
 5412W        W21306   1.577  13.637  11.390 -0.1221  0.0812  0.1153
 5413W        W21307   9.347   4.276   4.918 -0.2209 -0.0982  0.0845
 5414W        W21308   6.956  14.482   9.968  0.0328  0.0061 -0.0219
 5415W        W21309  11.618   5.681   1.785 -0.1263  0.2982 -0.0175
 5416W        W21310  16.661  17.681   2.999  0.1469 -0.1412 -0.1238
 5417W        W21311   8.497   6.754   0.642  0.1492  0.0581  0.1488
 5418W        W21312   4.873  17.449  14.328  0.2930 -0.2406  0.0697
 5419W        W21313  12.625  16.207  14.158  0.2828 -0.1814 -0.0704
 5420W        W21314   1.132  13.224  10.261  0.0955 -0.2280 -0.1020
 5421W        W21315  17.825   5.688  12.471  0.1335  0.0829 -0.0174
 5422W        W21316  11.698  17.284   0.616 -0.1573  0.2270  0.1183
 5423W        W21317  18.092  14.321   3.397 -0.1291 -0.1328 -0.5088
 5424W        W21318  11.217   9.820  11.213 -0.2779  0.1497 -0.0621
 5425W        W21319   3.048   0.320  12.555 -0.0325  0.1068  0.0589
 5426W        W21320   2.789  17.923   3.790 -0.1754 -0.1605 -0.1059
 5427W        W21321   7.792   1.552  10.157 -0.0059 -0.1156 -0.2300
 5428W        W21322  13.342   0.920  10.742  0.1180 -0.0083  0.0316
 5429W        W21323  13.169   5.944  11.291  0.5068 -0.1589  0.1652
 5430W        W21324  13.574   7.034   1.014 -0.1940 -0.1945 -0.0709
 5431W        W21325  16.936  13.354   9.437 -0.1236  0.1116 -0.0286
 5432W        W21326   1.934  13.233   2.233  0.1526  0.0220  0.1384
 5433W        W21327  12.275  19.102  12.149 -0.0701 -0.2617 -0.1084
 5434W        W21328  16.087   5.890  15.109 -0.2651 -0.3122  0.0251
 5435W        W21329  16.329  10.300   3.337  0.0615  0.2155  0.1637
 5436W        W21330  13.557   9.197  11.787  0.0706  0.1142  0.3057
 5437W        W21331  17.290  13.270   4.956  0.4567  0.1240  0.1083
 5438W        W21332  18.838   7.062  11.799 -0.1254 -0.2033 -0.0275
 5439W        W21333   2.380  14.833   4.838 -0.1029 -0.1424 -0.0907
 5440W        W21334  18.031  16.787   3.377  0.0829 -0.2328  0.3540
 5441W        W21335   2.379  11.537   4.072  0.0311 -0.0470 -0.5676
 5442W        W21336   3.292   9.605   2.821  0.2307  0.1476 -0.2754
 5443W        W21337   2.950  13.468   2.943 -0.3053  0.0815  0.1605
 5444W        W21338   9.890  18.833  14.072  0.1750 -0.1346  0.2145
 5445W        W21339  14.028  18.147  11.736  0.0524  0.0706  0.1919
 5446W        W21340   6.687  15.972   0.833 -0.4506 -0.2021 -0.2987
 5447W        W21341   2.893  11.059   3.314  0.3858  0.3216 -0.2062
 5448W        W21342  11.987  18.784  12.426 -0.1909  0.0208  0.2384
 5449W        W21343   0.566  17.905   2.555  0.1506  0.0006 -0.1767
 5450W        W21344   6.153   7.978  12.688 -0.2010 -0.0362  0.0314
 5451W        W21345  10.161  13.330  14.090  0.0698 -0.0122 -0.1166
 5452W        W21346   1.879  12.094  13.789 -0.4879  0.0592 -0.0111
 5453W        W21347   6.030  19.195   3.426  0.0258  0.0726  0.1229
 5454W        W21348   2.140   4.397   1.419  0.0673 -0.1629 -0.1870
 5455W        W21349   7.211  12.835   4.807  0.1884 -0.0013 -0.1387
 5456W        W21350  18.491  17.129  12.155 -0.5260 -0.0701 -0.3250
 5457W        W21351  13.128   3.865  12.609 -0.2635  0.1675  0.4453
 5458W        W21352   8.252   1.452   9.851 -0.2724  0.0926  0.0011
 5459W        W21353   5.703  15.798   3.835  0.2040  0.2791 -0.2713
 5460W        W21354   0.446   8.763  12.490 -0.5607  0.2099 -0.1260
 5461W        W21355  15.462   1.810   0.641  0.0659  0.2472  0.1189
 5462W        W21356   8.609  10.918   4.273 -0.0108 -0.1533  0.0588
 5463W        W21357  18.343   0.233   3.478  0.2011  0.1975 -0.5129
 5464W        W21358   7.870  13.566  11.102  0.0301  0.0121 -0.1956
 5465W        W21359   3.504   5.867  10.889 -0.0277 -0.1936 -0.1624
 5466W        W21360   3.168   6.052   4.182 -0.0645 -0.3206 -0.2117
 5467W        W21361   5.534  13.448   4.834  0.3258  0.0513  0.0340
 5468W        W21362   4.517  12.804  13.281  0.2807  0.0367 -0.1645
 5469W        W21363   9.787  11.742  12.411  0.3567 -0.1644  0.2542
 5470W        W21364  16.033  18.308  11.369 -0.0989  0.5111 -0.0723
 5471W        W21365   3.929   2.459   0.846 -0.2264 -0.2099 -0.0461
 5472W        W21366  14.541  11.788  11.014  0.2855 -0.2036  0.2189
 5473W        W21367  16.760   0.762   1.479  0.1721 -0.0790  0.1628
 5474W        W21368  16.660   2.660  12.753 -0.0364  0.1494 -0.2306
 5475W        W21369  14.919   4.542   0.973  0.0860 -0.2950  0.2130
 5476W        W21370   2.602  15.613   3.303 -0.0322 -0.1538 -0.1755
 5477W        W21371  16.794  11.170   2.059  0.0293  0.1614  0.0481
 5478W        W21372   5.527   4.471   4.853 -0.0437  0.0098  0.0094
 5479W        W21373   3.208   2.426   9.952 -0.0426 -0.0851 -0.0380
 5480W        W21374  10.989  13.917  12.577  0.0109  0.1814 -0.0167
 5481W        W21375  13.123   2.540   4.269 -0.0169  0.3105  0.0222
 5482W        W21376  17.596   0.731  13.625  0.2472  0.4770 -0.0701
 5483W        W21377   8.832  12.183   4.511 -0.1734 -0.3386 -0.2210
 5484W        W21378  18.769   9.585   4.584  0.3537 -0.1129 -0.3847
 5485W        W21379  19.036  11.610  11.717 -0.1748 -0.0553 -0.0981
 5486W        W21380   6.787  13.410  11.080  0.1083 -0.1757 -0.1626
 5487W        W21381  11.622   0.342   3.863  0.0149 -0.1690  0.3783
 5488W        W21382   0.409   7.554   0.567  0.2033  0.1272 -0.2133
 5489W        W21383   3.200   9.760   5.613  0.1008 -0.3133 -0.0441
 5490W        W21384  12.588  12.852  12.499  0.0916  0.1138  0.1238
 5491W        W21385   4.438   9.715  14.323 -0.2927 -0.4281 -0.1129
 5492W        W21386   7.129   3.015   2.427  0.1116 -0.3321 -0.1770
 5493W        W21387  16.338   5.435  12.220 -0.1599 -0.1362 -0.0338
 5494W        W21388   6.913  10.091   2.406 -0.0695 -0.2219  0.0764
 5495W        W21389  12.345   7.885  13.682 -0.1691 -0.2274  0.0521
 5496W        W21390   8.416   3.233   0.365  0.0297 -0.1229 -0.2707
 5497W        W21391  10.402   4.476  14.569 -0.0244 -0.4080  0.0735
 5498W        W21392   6.315  18.359  12.734 -0.2554  0.0923 -0.2477
 5499W        W21393  14.940  10.812  13.420  0.1220  0.0584 -0.1318
 5500W        W21394   6.009   9.869   1.115 -0.0074  0.1114  0.2372
 5501W        W21395  17.334  11.971   0.913 -0.1063 -0.2010  0.0885
 5502W        W21396  10.445  16.959   5.160  0.3332  0.0667  0.0602
 5503W        W21397   8.158   6.203   2.495 -0.0929  0.1413 -0.0643
 5504W        W21398  16.521  16.771  12.532 -0.2467 -0.2897 -0.1649
 5505W        W21399   1.417   4.416  13.960 -0.1881  0.0302 -0.0101
 5506W        W21400  16.208  15.131   0.544  0.0150  0.1124 -0.1552
 5507W        W21401   7.664   7.479   0.201  0.0257  0.0868  0.3019
 5508W        W21402  13.399   2.710  12.164 -0.0777 -0.0680 -0.0880
 5509W        W21403   7.733   2.582  11.722  0.2166 -0.1464  0.1935
 5510W        W21404   6.487  15.487   3.461  0.0507 -0.3221 -0.5386
 5511W        W21405   7.742  14.273  13.628 -0.0097  0.0420 -0.1971
 5512W        W21406   3.292   4.606  13.133 -0.1329  0.1685 -0.2809
 5513W        W21407  16.259   2.761  11.806  0.1708 -0.2775  0.2209
 5514W        W21408   0.365   1.956   0.957 -0.0237  0.0807 -0.0505
 5515W        W21409  17.020  13.318   3.167 -0.2398 -0.0387 -0.2310
 5516W        W21410   4.238   1.977  14.340  0.1062  0.0925 -0.0527
 5517W        W21411  18.383   4.425  13.070  0.2333  0.1068 -0.5763
 5518W        W21412   0.829   4.511   4.815 -0.3640  0.1859  0.1429
 5519W        W21413   1.039  16.752  11.008 -0.0589  0.1563  0.0471
 5520W        W21414  15.006   4.278   2.350 -0.1205 -0.3914  0.0687
 5521W        W21415   5.540  13.491  13.500 -0.1972  0.1573 -0.2086
 5522W        W21416  14.178  17.844  14.496  0.1085  0.0526 -0.0346
 5523W        W21417   4.229  17.576  13.162  0.1249 -0.0256 -0.5107
 5524W        W21418   6.813   2.772   4.099 -0.0252 -0.1230  0.1735
 5525W        W21419   3.585   4.794   2.165  0.4636 -0.0702 -0.1742
 5526W        W21420   0.267   2.218  14.085  0.1224 -0.2673  0.0098
 5527W        W21421  18.331  10.248   2.013 -0.1748  0.1977  0.3376
 5528W        W21422  11.241   0.237   3.476 -0.2130 -0.2351  0.0867
 5529W        W21423  18.139   1.456   3.654 -0.0162 -0.2732 -0.2116
 5530W        W21424  14.473  18.892   3.202  0.1588 -0.2786  0.1218
 5531W        W21425  11.920   1.166  12.042  0.0844 -0.3950 -0.2098
 5532W        W21426   3.801   1.955   3.641 -0.1215 -0.2765 -0.0457
 5533W        W21427   8.711   9.466   2.107 -0.0019  0.1663  0.1188
 5534W        W21428   0.012   7.889   0.485 -0.0053 -0.2479 -0.1186
 5535W        W21429  13.832   9.566  10.478  0.2119  0.2010  0.0450
 5536W        W21430   1.904   2.483   2.541 -0.3468  0.0675  0.2770
 5537W        W21431  13.811   7.078   4.439 -0.0513 -0.0986  0.0903
 5538W        W21432  11.675   8.316  10.350  0.2225 -0.0391  0.0469
 5539W        W21433  10.605   7.924   0.639 -0.3046 -0.2082 -0.3723
 5540W        W21434  16.626  13.707  10.687  0.1757  0.0733  0.0929
 5541W        W21435   9.560   0.337   2.963  0.1956 -0.2268 -0.2413
 5542W        W21436   1.425  18.108   3.292  0.1778 -0.1892  0.0128
 5543W        W21437   0.316  13.719   0.654 -0.0596 -0.0661 -0.3752
 5544W        W21438   9.562   9.278   5.477 -0.2784 -0.1628 -0.1598
 5545W        W21439  15.241   3.815   1.352  0.1269 -0.1477  0.0281
 5546W        W21440  10.953  16.534  14.250  0.0509  0.0493  0.4528
 5547W        W21441   6.467  12.594   2.378 -0.2098 -0.2430 -0.1443
 5548W        W21442  14.915  11.397  12.667 -0.1610  0.0390 -0.0560
 5549W        W21443   4.882   2.384   4.918  0.1024  0.0876 -0.4848
 5550W        W21444  16.888  19.008   3.023 -0.0700  0.3360  0.1173
 5551W        W21445   9.064   5.731   4.154 -0.0785 -0.1813 -0.0780
 5552W        W21446   2.575   8.121  12.734  0.1085 -0.1557 -0.0312
 5553W        W21447  17.905   3.717  11.230  0.2348  0.1764  0.3653
 5554W        W21448   0.865   9.243   1.209  0.1713  0.3174 -0.2371
 5555W        W21449   5.836  12.440   4.754  0.2512 -0.2399  0.1528
 5556W        W21450  10.771   2.734  10.628  0.0919 -0.2834 -0.4618
 5557W        W21451  12.793   3.236   2.998 -0.0701  0.0128  0.1338
 5558W        W21452   3.273  13.276   3.750 -0.0574  0.2852  0.3039
 5559W        W21453  14.425   9.698   1.434  0.3217 -0.0876 -0.1892
 5560W        W21454   7.194   7.429  13.059  0.3810 -0.0321 -0.1694
 5561W        W21455   5.959  12.546  12.587  0.1765 -0.1975 -0.3979
 5562W        W21456  12.709  10.402   4.441 -0.0582  0.1076  0.1415
 5563W        W21457  15.872   9.682  13.589  0.0214 -0.1610  0.1265
 5564W        W21458   8.095  11.480  14.699 -0.3626  0.0124  0.3486
 5565W        W21459  10.861  11.007   3.248  0.0172 -0.1583  0.2138
 5566W        W21460   5.508   2.779  14.289 -0.2895  0.0669 -0.1785
 5567W        W21461  12.753   4.163   3.622  0.4894  0.0919  0.1504
 5568W        W21462   2.427  15.433  11.588  0.1064  0.0042  0.0483
 5569W        W21463   6.402   1.320  14.165 -0.0072  0.3287 -0.1869
 5570W        W21464   4.306   0.275  12.941 -0.2179  0.0468 -0.1382
 5571W        W21465  17.707  11.295   3.256 -0.1706  0.0735 -0.2840
 5572W        W21466  14.950  15.205   3.728  0.3784 -0.3202  0.2774
 5573W        W21467  16.630   8.959  11.395 -0.1601 -0.2656 -0.2989
 5574W        W21468  10.822  11.010  14.488 -0.1359  0.4647 -0.5874
 5575W        W21469  11.809   8.893  13.416  0.0339  0.1185  0.3798
 5576W        W21470  18.320  13.210  12.310  0.1695 -0.0654  0.2163
 5577W        W21471   7.400   6.277  14.568 -0.1422 -0.2825 -0.2120
 5578W        W21472  12.033   2.667  13.252 -0.0716  0.3640 -0.0991
 5579W        W21473  15.152  17.185   1.259 -0.0896  0.1363 -0.1372
 5580W        W21474  15.145   9.690   0.284 -0.1059  0.1157  0.0300
 5581W        W21475   3.748  10.427   0.242 -0.4529  0.3174  0.1178
 5582W        W21476   4.143   2.656  10.833  0.1470 -0.0601 -0.0309
 5583W        W21477  15.176   6.435   0.839 -0.1456 -0.1654 -0.2577
 5584W        W21478   9.242   6.766   0.041  0.0624  0.3020  0.0841
 5585W        W21479  13.033   6.398   5.751  0.1247  0.0617 -0.1678
 5586W        W21480  16.428  14.728   0.951  0.2155 -0.1583 -0.0531
 5587W        W21481  14.451  10.129   5.182  0.4415 -0.1710  0.3005
 5588W        W21482   8.169  15.555   4.950  0.2002 -0.3704  0.1870
 5589W        W21483   7.307  11.973  11.764  0.0253 -0.1004 -0.1635
 5590W        W21484  12.324  17.995  11.317  0.1688  0.1865  0.1431
 5591W        W21485  16.614   3.756   0.490  0.1893 -0.2827  0.1712
 5592W        W21486  14.354  13.512  14.065  0.0574  0.2609 -0.0565
 5593W        W21487   8.666  16.986   0.206  0.1455  0.0162  0.0493
 5594W        W21488  17.809  13.980  11.780  0.1709  0.3722 -0.0872
 5595W        W21489  18.395  14.622  12.061  0.0531 -0.0530 -0.0481
 5596W        W21490   4.904   2.597  10.072  0.0989 -0.3571 -0.0117
 5597W        W21491  10.073   8.707  13.631  0.1547 -0.0898  0.2579
 5598W        W21492   0.380  18.276  15.068 -0.0821 -0.2415 -0.0186
 5599W        W21493  13.824   3.958   2.385 -0.2486  0.2080 -0.0930
 5600W        W21494  17.787   4.915  12.853  0.2101 -0.2148  0.2383
 5601W        W21495   3.109  12.840   0.055 -0.0031  0.0274 -0.0760
 5602W        W21496  17.135   0.098   3.384 -0.1218 -0.1620  0.1380
 5603W        W21497  17.748  14.684  12.260 -0.0057  0.4249  0.4040
 5604W        W21498   8.940   3.732  11.995  0.0817  0.0065  0.2738
 5605W        W21499  13.249  10.051  15.018  0.1845  0.3082  0.1930
 5606W        W21500   4.761  14.086   1.279 -0.0673 -0.3198 -0.0690
 5607W        W21501   5.817  18.785   4.450  0.4687 -0.0445 -0.3349
 5608W        W21502   9.104  11.896   1.392  0.3353  0.0377 -0.1998
 5609W        W21503   3.928  15.703   4.582 -0.0561 -0.0654 -0.2368
 5610W        W21504   4.726   8.775  13.601 -0.1690 -0.5178 -0.3356
 5611W        W21505  12.738   5.885  12.459  0.0102 -0.1215 -0.0981
 5612W        W21506   6.129  11.620  13.159 -0.0894 -0.1572 -0.2554
 5613W        W21507  17.014   6.789   2.016 -0.4875 -0.0702  0.0893
 5614W        W21508  18.050  12.567  13.850  0.0693 -0.1137 -0.1273
 5615W        W21509   1.873  14.239  10.790  0.1782  0.2036  0.1847
 5616W        W21510  18.052   1.623   2.985  0.1283 -0.0953 -0.0042
 5617W        W21511  17.819   2.718  15.054 -0.0339  0.2185 -0.0712
 5618W        W21512  18.684   0.172  12.092  0.2576  0.3168  0.2890
 5619W        W21513  17.678  13.498  11.852 -0.1859 -0.1320 -0.2027
 5620W        W21514   8.872   4.058  13.093  0.0567  0.5072 -0.1554
 5621W        W21515   2.421  11.141  13.745  0.0321  0.2377 -0.1458
 5622W        W21516  10.006  13.077  11.146  0.3606  0.4438 -0.1604
 5623W        W21517   9.887  11.685  12.908 -0.0206 -0.1821  0.2374
 5624W        W21518  14.230  10.530   1.738  0.0249  0.0360  0.0926
 5625W        W21519  10.390  10.177   2.916 -0.2815 -0.2976 -0.0775
 5626W        W21520   3.198   2.853  13.617 -0.2856  0.3053 -0.0295
 5627W        W21521   4.873  14.516  12.123 -0.1268  0.1125 -0.0720
 5628W        W21522  14.410  17.462   2.364 -0.1069  0.2996  0.0305
 5629W        W21523   4.226  18.206   1.649  0.3647  0.0046  0.1322
 5630W        W21524   5.935  14.307   2.072  0.1530 -0.0056  0.2016
 5631W        W21525   2.224   3.025  11.730 -0.3523  0.0259 -0.0009
 5632W        W21526  11.200  17.119   3.130 -0.1525  0.1645  0.0523
 5633W        W21527  14.788  17.084   3.690 -0.2354  0.0465  0.2935
 5634W        W21528  13.414   1.685   4.238  0.0313  0.2327  0.2792
 5635W        W21529  10.493   1.909   0.964 -0.0671  0.0085  0.0200
 5636W        W21530   1.178  17.884  11.705  0.2141  0.1374 -0.0955
 5637W        W21531  15.012  15.628  12.409  0.3094 -0.0689 -0.1381
 5638W        W21532  17.110   0.660   1.907 -0.0469 -0.2184 -0.2718
 5639W        W21533  16.482  10.598   2.873 -0.0057 -0.0974  0.4089
 5640W        W21534  14.369  14.789  10.788  0.0996  0.0047  0.2199
 5641W        W21535   8.756  12.946   0.932 -0.1676 -0.1090  0.1712
 5642W        W21536   3.237  15.976  10.120 -0.2265 -0.4085  0.2667
 5643W        W21537  15.599   1.064  12.659  0.4606  0.2003  0.4781
 5644W        W21538  15.097   4.668   5.146  0.0646 -0.0090  0.0547
 5645W        W21539  12.299   6.078   4.520 -0.2339 -0.0333 -0.1044
 5646W        W21540  16.842  16.432   4.301 -0.3032  0.2109 -0.2653
 5647W        W21541  11.841   8.201   5.182 -0.3370 -0.0541 -0.0724
 5648W        W21542  14.059  14.646  11.817 -0.0817 -0.1315 -0.3319
 5649W        W21543  10.488  10.260   1.803  0.0828  0.1316 -0.0040
 5650W        W21544  12.175  17.536   2.786 -0.2150  0.1186  0.1335
 5651W        W21545   6.023  10.903   3.436 -0.3012  0.1245  0.0054
 5652W        W21546   9.264  14.459   3.248  0.0081  0.0555 -0.0928
 5653W        W21547  15.969   4.185  14.863  0.0670  0.1847 -0.2737
 5654W        W21548   4.107  14.324   0.519 -0.2749 -0.0355  0.5777
 5655W        W21549   8.897  10.354  11.314 -0.0984 -0.0840 -0.3516
 5656W        W21550  12.466  13.888  12.482  0.1579  0.0879 -0.0215
 5657W        W21551  14.961   8.546   2.714  0.1177  0.2092  0.3763
 5658W        W21552  10.030  15.606   4.499  0.1533  0.3010 -0.0197
 5659W        W21553  14.809   0.907  11.258 -0.2156 -0.0676  0.0232
 5660W        W21554   2.528   4.428  11.987 -0.2832  0.0925 -0.0114
 5661W        W21555   6.804  12.010  11.832 -0.1792  0.0778 -0.1055
 5662W        W21556  17.318   1.177  12.929 -0.2129  0.1353  0.2868
 5663W        W21557   1.996   9.293   3.538  0.3253  0.2638  0.0642
 5664W        W21558   3.808   7.065  14.212 -0.1497  0.3609  0.3686
 5665W        W21559  11.339   3.126  10.977 -0.1393 -0.7348  0.0904
 5666W        W21560  10.899  16.242   9.856  0.1507  0.0762  0.0182
 5667W        W21561  16.330   9.282  12.359 -0.1141  0.0588 -0.4711
 5668W        W21562   9.678  16.109  10.604 -0.0357 -0.1784 -0.2126
 5669W        W21563   3.855  14.081   3.573  0.0061 -0.1421  0.1031
 5670W        W21564   7.604   4.591   0.939  0.1002  0.0593 -0.0869
 5671W        W21565  12.705  16.069   4.012  0.0958  0.1376 -0.0679
 5672W        W21566  10.455   6.184   3.888 -0.2724  0.1242 -0.0421
 5673W        W21567   5.514   7.193  14.702  0.0255  0.2457  0.3032
 5674W        W21568   1.686   7.424  10.012 -0.0500  0.2846  0.2355
 5675W        W21569  16.433   7.906  14.446  0.3661 -0.3458 -0.2991
 5676W        W21570  15.700   3.738   0.209 -0.4707 -0.1516  0.0468
 5677W        W21571   5.546   6.499   1.689  0.3415  0.3288 -0.0171
 5678W        W21572   9.911  12.398   1.405 -0.3900 -0.3175  0.2398
 5679W        W21573  17.573   0.578  12.356 -0.1923  0.0160 -0.2926
 5680W        W21574  10.344  13.841  10.736  0.0280 -0.0272 -0.1817
 5681W        W21575  13.101  10.623  11.754  0.2817  0.0821  0.3850
 5682W        W21576  15.787  16.660  12.460 -0.0494  0.1853  0.4798
 5683W        W21577   3.033   7.488  12.115  0.1581 -0.1028  0.3226
 5684W        W21578   7.554  10.382  14.918  0.1649  0.2873  0.2135
 5685W        W21579   8.616  11.594  14.098  0.1812  0.3674  0.1156
 5686W        W21580   3.830   8.131   1.118 -0.0238  0.1754  0.0783
 5687W        W21581  15.227   5.588   4.942 -0.1121  0.1137 -0.1876
 5688W        W21582  17.793  10.803   1.811  0.3935 -0.1548 -0.0078
 5689W        W21583   7.911   9.951   2.420  0.3210 -0.0729  0.0054
 5690W        W21584   9.691  14.479   1.903 -0.1134 -0.0904  0.0516
 5691W        W21585  18.577   0.845   5.467 -0.2893  0.4400  0.2807
 5692W        W21586  12.969  11.704   9.698 -0.0874 -0.0229 -0.3217
 5693W        W21587  12.047  16.739   3.586 -0.1269 -0.0065  0.1952
 5694W        W21588   8.116  10.678   4.687  0.2698 -0.0050  0.1075
 5695W        W21589   6.856  11.160   4.162 -0.3514  0.2168  0.0119
 5696W        W21590   4.133  18.803   0.357  0.0687 -0.2411  0.1873
 5697W        W21591  14.669  18.412  11.492 -0.2362  0.0808 -0.0579
 5698W        W21592   4.815   6.658   3.804  0.0444 -0.1417 -0.1772
 5699W        W21593   3.417   0.432  14.575  0.0358 -0.4074  0.0611
 5700W        W21594  15.818  17.777  14.327  0.1587 -0.0149  0.2543
 5701W        W21595  12.548  19.193   2.978 -0.3349  0.4537 -0.0496
 5702W        W21596   5.585   8.883  14.480  0.2467  0.2130 -0.2360
 5703W        W21597  19.213   2.317  12.740 -0.0384  0.0596 -0.2474
 5704W        W21598   2.750  18.115   2.964  0.1015  0.3024  0.0632
 5705W        W21599   0.997  13.286   3.905  0.2732  0.0005 -0.1264
 5706W        W21600  11.964  15.574  14.982  0.2706 -0.0148 -0.0304
 5707W        W21601   8.116   0.795  14.613  0.2167  0.1993 -0.0527
 5708W        W21602  16.428   7.119   2.239  0.2715 -0.1063  0.1592
 5709W        W21603   1.311  10.598  12.314  0.3116 -0.0014  0.1325
 5710W        W21604  10.582  17.130  10.994 -0.1793 -0.3752 -0.1365
 5711W        W21605   3.726  12.214   2.891  0.2186  0.0922  0.1773
 5712W        W21606   2.141   7.751  11.124  0.3394  0.1458  0.1262
 5713W        W21607   3.897   9.752   2.644 -0.2314  0.0700  0.1210
 5714W        W21608  17.557   1.176   4.540  0.0591  0.1491 -0.0173
 5715W        W21609   1.685  12.687  12.908 -0.0716 -0.3180  0.2359
 5716W        W21610  15.537  13.358  13.279 -0.0145  0.0889 -0.1433
 5717W        W21611  13.410   2.563  10.067  0.1374  0.0343  0.0079
 5718W        W21612   5.573   2.861  11.921 -0.1612  0.1253 -0.2833
 5719W        W21613   3.224   3.854  13.808  0.2115  0.0956 -0.0642
 5720W        W21614   2.047  15.975   3.015 -0.1706  0.2150 -0.5035
 5721W        W21615   0.932  10.574  10.203 -0.0956  0.0697  0.2098
 5722W        W21616  12.903  17.920  13.329  0.0129  0.1197 -0.0525
 5723W        W21617   7.221   8.389  13.103  0.2005  0.2231  0.3155
 5724W        W21618   5.501  12.243  12.741 -0.0932 -0.5058  0.0069
 5725W        W21619  10.835   5.831   4.065 -0.0767 -0.0175  0.0446
 5726W        W21620  11.841   8.519  12.166  0.1650  0.2030 -0.0228
 5727W        W21621   3.639  13.828   1.780  0.0229  0.2422 -0.2446
 5728W        W21622   0.684  14.107   4.868 -0.0825  0.0539  0.4461
 5729W        W21623   6.008   4.785  15.043  0.2461  0.1502  0.0641
 5730W        W21624   9.164  13.014   4.742  0.1491 -0.1522 -0.0994
 5731W        W21625  16.936   6.331   1.587 -0.2533  0.1809 -0.2138
 5732W        W21626  17.610  19.131  12.699  0.1483 -0.0986  0.2833
 5733W        W21627  11.857  10.076  14.888 -0.0834 -0.3217  0.0724
 5734W        W21628  14.091   1.499   4.520  0.0702  0.0657  0.0537
 5735W        W21629   2.541  17.129  12.288 -0.0472  0.0658 -0.1844
 5736W        W21630  15.919   8.955  10.918 -0.2855 -0.4740 -0.2256
 5737W        W21631  14.057   3.235  11.452 -0.3442 -0.1530 -0.2169
 5738W        W21632  12.444  17.495   2.212  0.1104 -0.0591 -0.1688
 5739W        W21633  12.449  17.839   0.211 -0.0366  0.1843 -0.0286
 5740W        W21634  10.741  13.917  13.410  0.1271  0.1192 -0.2871
 5741W        W21635   5.371  13.799   2.620  0.2141 -0.1438 -0.1777
 5742W        W21636   4.360  14.372  12.901 -0.3150  0.3664 -0.4808
 5743W        W21637  17.354  14.230   4.960  0.2618 -0.0269 -0.1457
 5744W        W21638   5.205   1.890   4.240 -0.2671  0.1901 -0.0893
 5745W        W21639  14.199  14.022   1.177  0.0953 -0.0325 -0.0157
 5746W        W21640   2.695   1.041  14.289 -0.0031 -0.1390 -0.0954
 5747W        W21641   4.913   2.059  11.917 -0.2516  0.2434  0.1354
 5748W        W21642  10.928   1.875   9.566 -0.3651  0.0406 -0.1558
 5749W        W21643   5.365  18.465   0.497 -0.1006  0.0409 -0.0753
 5750W        W21644  18.779  16.975  10.701  0.0559  0.2319 -0.1887
 5751W        W21645   4.097  11.517  11.539  0.0783  0.2923 -0.0608
 5752W        W21646  11.575   1.124   2.462 -0.0205 -0.2920  0.2376
 5753W        W21647   2.416  11.120  11.488 -0.0005 -0.0352  0.1723
 5754W        W21648  11.264   8.224  15.025 -0.2248 -0.0941 -0.0378
 5755W        W21649  13.670   2.643  11.736 -0.3582  0.1445  0.0108
 5756W        W21650   3.230  17.253   3.395  0.0064  0.3377  0.4024
 5757W        W21651  10.736   0.334  12.753 -0.1932  0.1357 -0.4156
 5758W        W21652  14.418  10.455  11.776 -0.0596  0.0902 -0.2444
 5759W        W21653   8.108   6.625   2.175  0.2926  0.0939 -0.3776
 5760W        W21654  13.988   0.276  13.210 -0.2138 -0.1071 -0.1093
 5761W        W21655  10.579  13.034   1.413 -0.1887  0.2831 -0.2224
 5762W        W21656  18.016  16.271   2.972 -0.2125 -0.0750 -0.1041
 5763W        W21657   8.127   6.687   2.862 -0.0532 -0.2017  0.1987
 5764W        W21658   0.812  18.985   1.966 -0.1944  0.0954  0.1681
 5765W        W21659  13.523   4.217  12.969  0.0635 -0.0658  0.2090
 5766W        W21660  16.666   6.120  13.027  0.1023 -0.1786  0.1430
 5767W        W21661   5.840   0.372  11.010  0.2077  0.1468 -0.0720
 5768W        W21662  16.229   0.728  12.154  0.2662 -0.1952 -0.2599
 5769W        W21663  10.453  18.805  12.831  0.2255  0.1286  0.1600
 5770W        W21664   8.206  17.898  12.362 -0.0498 -0.2404 -0.0322
 5771W        W21665   9.678  16.900  11.079  0.1776 -0.2561  0.0908
 5772W        W21666   3.563   1.208  11.710 -0.3385  0.1132 -0.1762
 5773W        W21667   0.865   9.934   3.975  0.2155  0.0299  0.1432
 5774W        W21668   7.600  18.140  13.236 -0.2010 -0.2619 -0.0232
 5775W        W21669  17.833   2.554  10.530 -0.0295  0.0598 -0.1346
 5776W        W21670  16.862  10.469  12.437 -0.1076  0.1442 -0.0616
 5777W        W21671   4.189   3.664   2.404  0.0429 -0.3633 -0.0382
 5778W        W21672   2.003   8.630   1.262 -0.3132  0.3440 -0.1526
 5779W        W21673  12.876   6.921   3.863 -0.2334  0.2508 -0.6023
 5780W        W21674  11.203  15.657   9.651 -0.1643  0.0656 -0.1031
 5781W        W21675   5.640   7.827  12.618 -0.1019 -0.2286  0.1555
 5782W        W21676  15.731   9.700   2.811 -0.0919  0.3899  0.1806
 5783W        W21677   3.383   5.162   4.509 -0.0577  0.1282  0.1024
 5784W        W21678  13.284   6.045   2.432  0.1511  0.3222 -0.3603
 5785W        W21679   4.978  16.511   1.222 -0.2777  0.0790  0.0886
 5786W        W21680  18.876  13.423   4.015  0.2742  0.0809 -0.1337
 5787W        W21681  15.548  15.979  14.938 -0.1600 -0.2370 -0.0485
 5788W        W21682   6.263  14.094  11.453 -0.4523  0.0067 -0.1790
 5789W        W21683   9.929   2.617  13.073 -0.2054 -0.1866  0.1210
 5790W        W21684  11.392   2.790   0.217 -0.2164  0.2196  0.3542
 5791W        W21685   9.958  12.298  11.330  0.0296 -0.0112 -0.0842
 5792W        W21686   3.501  17.538   2.976  0.2500  0.1333 -0.1028
 5793W        W21687  10.450  10.271   0.691 -0.1924 -0.0254  0.0989
 5794W        W21688   8.314  16.658   0.227 -0.0683 -0.3950  0.0315
 5795W        W21689  14.398  10.177   2.400 -0.1588  0.0776  0.2530
 5796W        W21690   8.286  16.443  14.845 -0.1177 -0.6172 -0.1562
 5797W        W21691  16.906   0.853  13.780  0.0877 -0.2279 -0.3497
 5798W        W21692  10.621  14.328   1.849  0.3452 -0.0090  0.0905
 5799W        W21693   4.219  19.163  14.162  0.1894 -0.1563  0.2436
 5800W        W21694  13.916  16.932   9.812 -0.2032 -0.0732 -0.0572
 5801W        W21695   5.079   3.677  12.767 -0.2301  0.0368  0.5339
 5802W        W21696  14.132  13.123  12.716 -0.2622 -0.0315  0.2052
 5803W        W21697   7.198  16.381  11.729  0.2744  0.2054  0.0391
 5804W        W21698  16.294  15.132   4.786 -0.0819  0.1736 -0.2789
 5805W        W21699   9.537   5.940   5.446  0.1380 -0.1019  0.0682
 5806W        W21700   2.357  11.337   0.493 -0.0601  0.3433 -0.2378
 5807W        W21701   2.851   6.708   4.724 -0.2510 -0.0377 -0.0161
 5808W        W21702   8.029   1.941   0.896  0.0065  0.0367 -0.1902
 5809W        W21703   6.410  15.313  14.041  0.3953  0.0350  0.1007
 5810W        W21704   7.321  10.027  13.918 -0.3826  0.1625 -0.0811
 5811W        W21705  16.503  10.741   4.864  0.1168  0.0420  0.2389
 5812W        W21706   3.876  11.893  12.912  0.3050  0.0540 -0.1760
 5813W        W21707   6.272   8.343  11.896  0.1979  0.2441  0.2931
 5814W        W21708   5.764  18.188  12.620  0.4876  0.1267 -0.0447
 5815W        W21709   4.840   2.947   4.249  0.2880 -0.1478 -0.1451
 5816W        W21710   7.991  17.441  12.353  0.0689 -0.2374  0.0271
 5817W        W21711  11.814  14.776   9.824 -0.0116 -0.1973 -0.0426
 5818W        W21712  18.162  18.572   2.141 -0.2035  0.1131 -0.2787
 5819W        W21713   9.121   6.026  12.060  0.1571  0.1968  0.0689
 5820W        W21714  10.202  14.904   2.399  0.2108  0.0587  0.1044
 5821W        W21715  18.426  10.988   5.802 -0.2169 -0.0687  0.0618
 5822W        W21716  18.454  10.941   4.462 -0.3329  0.2370  0.1242
 5823W        W21717   7.629   5.950  12.405 -0.1362 -0.4361 -0.2545
 5824W        W21718  15.271  12.904  10.953  0.1664 -0.2600 -0.0579
 5825W        W21719   8.706   3.291   2.771 -0.2051 -0.0125  0.2633
 5826W        W21720   4.147   5.763  11.982  0.0943  0.1581 -0.0182
 5827W        W21721   9.346   3.696   4.869 -0.0923 -0.1205  0.2718
 5828W        W21722  14.187   1.580   0.206 -0.2104  0.2197 -0.1356
 5829W        W21723   0.876  17.701  10.593 -0.3667 -0.0270 -0.1764
 5830W        W21724   9.500   9.381  14.894 -0.2287 -0.1673 -0.0393
 5831W        W21725  15.244   7.299  14.326 -0.3024  0.2097  0.1527
 5832W        W21726   7.098   5.337  10.589  0.0308 -0.3446 -0.0657
 5833W        W21727   8.800   5.989  11.645 -0.0281 -0.0424  0.1690
 5834W        W21728   5.771  14.380  13.131  0.0356 -0.0590  0.3196
 5835W        W21729  11.109   8.799   1.746 -0.3492 -0.1359 -0.1369
 5836W        W21730   3.589   6.075   3.723 -0.0974  0.1918  0.2863
 5837W        W21731  11.248  14.021   9.994 -0.3592  0.0456  0.1838
 5838W        W21732   0.324  17.230  14.475  0.0159  0.0600  0.0925
 5839W        W21733   5.927   6.120  14.093 -0.2009 -0.2148  0.2024
 5840W        W21734  18.913   8.707   1.083  0.7022  0.0988 -0.0633
 5841W        W21735   6.730  10.657  11.556 -0.1944  0.1932  0.0844
 5842W        W21736  11.611  11.878   3.439 -0.3461  0.1031  0.1977
 5843W        W21737   8.219  13.386  13.056  0.0432  0.0851 -0.1478
 5844W        W21738   3.542   0.818   3.317  0.1439 -0.1316  0.3409
 5845W        W21739   5.129  11.839  12.755 -0.2566  0.0399 -0.0562
 5846W        W21740   5.332  12.186  10.322 -0.0990 -0.1177  0.1036
 5847W        W21741   2.637  15.458  14.531 -0.0076 -0.1890  0.0451
 5848W        W21742   6.433   1.285   1.200  0.3137 -0.2712  0.0025
 5849W        W21743   0.628   1.647  11.397  0.2198  0.0144 -0.0875
 5850W        W21744  12.288   6.907   2.400 -0.2160 -0.1571  0.0225
 5851W        W21745   6.861   9.671  11.859  0.0167 -0.0943 -0.0901
 5852W        W21746   7.745   5.523   3.420 -0.3949 -0.1699  0.2297
 5853W        W21747   4.456   6.106   2.188  0.5141  0.0924  0.0044
 5854W        W21748  17.680   1.842   2.133 -0.1240 -0.0370 -0.0244
 5855W        W21749  15.855   0.126  14.134  0.3328 -0.2173 -0.0114
 5856W        W21750  16.810   5.634  13.839  0.1454 -0.0984 -0.0153
 5857W        W21751   1.186  15.864  13.012 -0.0756  0.3792  0.1585
 5858W        W21752   9.293   3.245   3.633  0.0247 -0.3675 -0.0354
 5859W        W21753   8.348   7.241  13.848  0.0514 -0.0187 -0.2135
 5860W        W21754  18.683  16.445   4.163 -0.1770 -0.2026 -0.0651
 5861W        W21755  16.019  13.550  14.695 -0.0730 -0.4263 -0.0334
 5862W        W21756   5.719   0.035  14.185  0.1132  0.1073 -0.1773
 5863W        W21757  18.148   0.357  13.866 -0.0593 -0.2296 -0.0476
 5864W        W21758   5.863   6.631   3.389  0.0237 -0.0666  0.0847
 5865W        W21759  18.114   4.157  12.644  0.3492 -0.1095  0.0043
 5866W        W21760  18.088  13.206  11.832  0.2025  0.0043  0.2750
 5867W        W21761  18.940   4.836   1.289  0.0900 -0.0020  0.0275
 5868W        W21762  19.212  17.197  12.344  0.1654  0.1367 -0.0858
 5869W        W21763   1.878  18.921   2.128  0.0721  0.0721 -0.3186
 5870W        W21764  17.135  12.464  10.732  0.0109 -0.0680  0.0794
 5871W        W21765   2.175  10.258  14.541 -0.1842 -0.1778  0.3416
 5872W        W21766  12.501   0.603   4.041 -0.0608 -0.1832 -0.0195
 5873W        W21767   9.671  11.748  11.480  0.1052 -0.2547  0.2627
 5874W        W21768  14.004  12.437  11.476 -0.0051 -0.1905  0.0857
 5875W        W21769   3.991   2.734   3.965 -0.1204 -0.5236 -0.3052
 5876W        W21770  18.085  18.905  10.441  0.3377 -0.0727 -0.4201
 5877W        W21771  12.827  10.419   1.877  0.1123 -0.0999  0.0558
 5878W        W21772  12.683  12.973  14.504  0.3690  0.2966 -0.1787
 5879W        W21773   0.007  18.987   0.805 -0.1055  0.1032  0.0876
 5880W        W21774   7.433  16.467  10.057 -0.0011  0.1306  0.2689
 5881W        W21775   4.285   3.192  10.955 -0.1294  0.0844 -0.0532
 5882W        W21776   9.088   4.761  13.118 -0.1558  0.2526 -0.0545
 5883W        W21777   9.573   4.107   1.279  0.0845  0.2948 -0.0394
 5884W        W21778   4.431   7.354   1.483 -0.0142 -0.1602 -0.1548
 5885W        W21779   8.864   4.848   1.412  0.0155  0.0385 -0.2251
 5886W        W21780  10.461   7.876  13.420 -0.1331  0.1012 -0.2010
 5887W        W21781  11.433  12.837   0.046  0.4282  0.1543  0.0394
 5888W        W21782   5.382  11.167   4.395 -0.0241 -0.0110  0.3581
 5889W        W21783  12.220   0.221   0.957 -0.0880 -0.1797 -0.2405
 5890W        W21784   3.320  14.052   2.125 -0.1119  0.0627  0.1106
 5891W        W21785  15.322  14.095  14.178  0.2200 -0.0271  0.0142
 5892W        W21786  15.570  14.114   3.608 -0.0307 -0.2055  0.2248
 5893W        W21787  16.771   8.481  12.673 -0.0493  0.3434 -0.1483
 5894W        W21788   9.220  13.683   9.181  0.2040  0.1888  0.2766
 5895W        W21789   0.405  15.028  11.329  0.0039 -0.1042  0.0517
 5896W        W21790  14.134  15.527  12.093  0.0962  0.0814 -0.0471
 5897W        W21791  11.565  18.202   0.814 -0.1051 -0.0748 -0.1891
 5898W        W21792  10.752  10.592   5.066  0.2127 -0.3869 -0.0568
 5899W        W21793   4.917   4.929   5.336 -0.3952  0.2743  0.0809
 5900W        W21794  14.080  10.137   1.422  0.2372  0.3116  0.1747
 5901W        W21795  18.931  15.755  11.607 -0.1439  0.1632  0.3112
 5902W        W21796  11.945   7.060  10.513  0.0675 -0.0432 -0.0822
 5903W        W21797  18.724   0.069   1.042  0.1051 -0.0588  0.2880
 5904W        W21798  12.797   2.183  10.988  0.1187  0.1260  0.0832
 5905W        W21799  11.897  18.938  11.553 -0.4792  0.1487  0.0474
 5906W        W21800  16.093  10.750   1.015 -0.2629 -0.1703 -0.0891
 5907W        W21801   7.405  17.131  11.519  0.1639 -0.4070  0.2906
 5908W        W21802   2.812   0.565   0.981 -0.2752 -0.0225 -0.1545
 5909W        W21803  12.390   9.852  12.977 -0.0741  0.4834  0.3622
 5910W        W21804  12.481  11.468   3.771 -0.0651 -0.1778 -0.0709
 5911W        W21805   7.998   4.137   4.327 -0.0132  0.0448  0.2814
 5912W        W21806   9.235  13.980   9.899  0.4700 -0.0420 -0.1259
 5913W        W21807   5.241  13.854   1.333 -0.0861  0.3284 -0.0861
 5914W        W21808   3.608  14.423  12.652 -0.1495  0.0502 -0.0444
 5915W        W21809   8.865   4.720  14.519 -0.0374  0.0804 -0.1722
 5916W        W21810  17.827  17.487  12.584 -0.1662  0.1057 -0.4330
 5917W        W21811   8.772   5.828   0.333  0.0759 -0.1695 -0.0912
 5918W        W21812  12.365  14.699  12.871  0.0291  0.1939  0.1549
 5919W        W21813  16.416  18.500   0.203  0.2412  0.0153 -0.3520
 5920W        W21814   8.173  15.281   9.368 -0.2540 -0.1091 -0.1999
 5921W        W21815  11.820   1.229   4.086  0.1327 -0.1066 -0.2533
 5922W        W21816   4.966  11.274   2.470  0.1540 -0.2794 -0.2780
 5923W        W21817  10.331   1.487   4.408 -0.2167  0.1051  0.1252
 5924W        W21818  12.842   6.338   4.669  0.1590 -0.0510 -0.0342
 5925W        W21819   2.080  16.960  12.593 -0.0971  0.0278  0.0134
 5926W        W21820  10.878  14.159  10.264 -0.0567  0.3664  0.3167
 5927W        W21821   8.533   1.797   4.153 -0.2518  0.0081 -0.1042
 5928W        W21822  13.122  12.171   5.100  0.0276  0.1245 -0.1433
 5929W        W21823   1.200   8.608   0.459  0.4026  0.3595 -0.4268
 5930W        W21824   3.151  15.149   3.394  0.2319  0.3821  0.3115
 5931W        W21825  18.551   1.361  11.699 -0.0470 -0.1648 -0.1699
 5932W        W21826   9.071  18.277   0.657 -0.1625 -0.2703 -0.0604
 5933W        W21827   0.202   7.484  12.417 -0.2225 -0.0893 -0.0118
 5934W        W21828  17.717  14.511   0.635 -0.2039 -0.0557 -0.1568
 5935W        W21829  11.904   9.357   4.237 -0.1959  0.1836  0.1223
 5936W        W21830  16.150   1.466   0.092  0.1589 -0.2330  0.0432
 5937W        W21831   0.982   8.491   1.945 -0.1765  0.1962  0.0887
 5938W        W21832   7.984   2.106   4.011 -0.0105 -0.2749  0.3426
 5939W        W21833   1.534   1.732   4.058 -0.0562 -0.2970  0.0991
 5940W        W21834   4.561   9.290  13.328  0.1393 -0.3348  0.0141
 5941W        W21835   0.562  18.700   0.040  0.2641 -0.1000 -0.0805
 5942W        W21836   1.869   0.712   3.697 -0.0339 -0.2888  0.0455
 5943W        W21837  14.584  13.896  12.320 -0.1724 -0.0452  0.1336
 5944W        W21838   0.157  18.712   2.952  0.0373  0.1888 -0.0929
 5945W        W21839   1.439   5.162  12.223 -0.3007 -0.1743  0.0224
 5946W        W21840   0.150   9.817   1.907  0.1541  0.2529 -0.0340
 5947W        W21841  17.375  17.963   0.403  0.1282  0.1419  0.1432
 5948W        W21842   6.237  10.040  13.130 -0.2805 -0.2501  0.2171
 5949W        W21843  18.069   2.153  12.019  0.2032  0.1970 -0.0535
 5950W        W21844   1.343   3.227  12.145 -0.3445 -0.4079 -0.2787
 5951W        W21845  11.962  10.868   1.910 -0.3728  0.1504  0.0852
 5952W        W21846  18.045  14.596   2.414  0.0789  0.0089  0.1090
 5953W        W21847   1.230  11.184  12.933  0.1356  0.2044  0.2656
 5954W        W21848  13.956  18.010   3.143 -0.0947 -0.3626  0.0105
 5955W        W21849  12.272   4.937  10.745  0.0369 -0.0827 -0.1242
 5956W        W21850   0.573  13.298  10.489  0.1450  0.3187 -0.1293
 5957W        W21851  13.660   5.951  12.193  0.0980 -0.0513  0.3178
 5958W        W21852  10.774   2.596   4.129 -0.0994 -0.2190  0.0970
 5959W        W21853  16.144   0.977   2.753 -0.0373  0.1740 -0.1035
 5960W        W21854   3.941  17.498  11.920  0.2846 -0.1371 -0.1147
 5961W        W21855  10.160   7.656  10.827  0.2717 -0.0684  0.4271
 5962W        W21856   3.558   6.779   4.296 -0.0263  0.0497 -0.0234
 5963W        W21857  14.386   6.645  14.845  0.4019 -0.1547 -0.0242
 5964W        W21858  18.584  15.818   0.252 -0.1257 -0.2464 -0.4817
 5965W        W21859  13.504  17.055   4.667 -0.2007  0.0707 -0.1054
 5966W        W21860  10.203  15.043  14.243 -0.0404  0.0963 -0.1739
 5967W        W21861  17.132   4.432   5.858  0.3776 -0.0295  0.2492
 5968W        W21862  15.898   9.047  14.899 -0.5344 -0.2726  0.0328
 5969W        W21863  18.885  17.181   2.121 -0.3443  0.1737  0.0359
 5970W        W21864  14.773  18.050   2.944  0.1715  0.1279  0.0092
 5971W        W21865  10.234  10.538   9.814 -0.1195 -0.0145 -0.1473
 5972W        W21866   9.354   3.804  13.120 -0.0270 -0.3944  0.0284
 5973W        W21867   0.306   5.398  15.063 -0.3795  0.0653 -0.2257
 5974W        W21868  13.459  14.840   4.874 -0.2636  0.2752  0.1012
 5975W        W21869  17.871   4.479  13.032  0.1243  0.0117 -0.1645
 5976W        W21870   1.343  11.622   2.561 -0.1686  0.1588  0.2519
 5977W        W21871  12.244  15.387  13.481 -0.2337  0.1607  0.2592
 5978W        W21872  16.796   0.227  12.578  0.2485  0.1700 -0.2604
 5979W        W21873   4.520   3.716  13.710 -0.2018  0.2967 -0.0919
 5980W        W21874  12.329   0.101   1.719 -0.4168  0.1199 -0.4194
 5981W        W21875   8.000   7.449   5.513  0.2405 -0.3076 -0.2818
 5982W        W21876  14.734  16.787  14.943 -0.1530  0.1959  0.0685
 5983W        W21877   0.359  12.021  10.286  0.3063  0.1333 -0.0761
 5984W        W21878   3.204  17.586  15.009 -0.2429  0.2125 -0.1716
 5985W        W21879  12.667  14.514   3.648  0.5922 -0.2039  0.2034
 5986W        W21880  15.552   8.689  11.256 -0.1667  0.1513 -0.2882
 5987W        W21881   2.171   5.513  13.443  0.1035 -0.0040 -0.2194
 5988W        W21882   3.352   8.153   4.512  0.0623  0.0820  0.1685
 5989W        W21883   2.365   0.158  12.567  0.2669  0.0250  0.0808
 5990W        W21884   1.830  16.763  13.262 -0.1821 -0.4501  0.1873
 5991W        W21885  12.603  12.081  13.715  0.1242 -0.1796  0.1878
 5992W        W21886   7.198   0.759  11.197  0.0305 -0.0025 -0.0717
 5993W        W21887   8.296  16.308   3.102  0.0850  0.1329  0.0634
 5994W        W21888   8.665  18.074  10.783 -0.1286  0.4136 -0.3419
 5995W        W21889   2.687   1.056   2.919 -0.1464 -0.0874  0.0132
 5996W        W21890  16.973  16.116   2.596 -0.2375  0.3471  0.2085
 5997W        W21891   1.114  11.432   1.633  0.0092 -0.3679  0.0363
 5998W        W21892  18.875  10.646   0.988  0.0549 -0.1022 -0.1987
 5999W        W21893  14.818  13.487  12.518  0.2131 -0.0139 -0.0501
 6000W        W21894  14.448  15.759  10.195 -0.2875 -0.2297  0.0966
 6001W        W21895  11.527  13.727   0.371  0.0725 -0.1346  0.2380
 6002W        W21896   8.875  10.543  11.850 -0.2085  0.2129 -0.0079
 6003W        W21897  19.163  10.330  11.785  0.1099 -0.2757 -0.1953
 6004W        W21898  13.835   0.472   0.553  0.1291  0.3041 -0.1718
 6005W        W21899   0.315  15.733  14.346  0.2474 -0.0808 -0.3640
 6006W        W21900   8.924  14.447   2.709 -0.1636  0.0794 -0.2117
 6007W        W21901  17.620  10.048   4.746  0.9029  0.4099 -0.0065
 6008W        W21902  17.218   5.224  11.685 -0.0704 -0.3169 -0.2003
 6009W        W21903  17.490  11.600  10.776 -0.0117  0.1363 -0.0727
 6010W        W21904   0.522  15.240   2.402 -0.2706 -0.2943  0.1165
 6011W        W21905  18.547   7.332   4.870  0.3637 -0.0419  0.0671
 6012W        W21906  11.491   4.730   0.757  0.1547  0.2016 -0.1547
 6013W        W21907  16.981  11.009   0.244  0.0484  0.0377 -0.3361
 6014W        W21908  16.099   6.567   1.285  0.0616 -0.0747  0.0283
 6015W        W21909   3.918   7.390   5.061 -0.1030  0.1585 -0.0397
 6016W        W21910   3.264  17.825   2.657  0.0901  0.0741 -0.1134
 6017W        W21911  17.832   5.914   6.157 -0.1407  0.1501 -0.0086
 6018W        W21912   0.288  14.097  13.693  0.0284  0.1744 -0.1755
 6019W        W21913  16.722   6.606   4.007  0.0182 -0.1582  0.2247
 6020W        W21914   3.940  17.448   0.267  0.0541 -0.3422  0.1136
 6021W        W21915  17.434  17.955  12.638  0.1961  0.4207 -0.2020
 6022W        W21916   5.910   5.208   0.803  0.5441  0.2974  0.5168
 6023W        W21917   2.859   3.930  13.010 -0.0103  0.0594 -0.0836
 6024W        W21918   1.180   3.136  11.133  0.0620 -0.1778 -0.1911
 6025W        W21919  14.262  11.704  10.554 -0.2846  0.1111  0.1198
 6026W        W21920  14.025   4.325  12.194 -0.3093 -0.1645 -0.1233
 6027W        W21921  11.492  15.794   4.444  0.0295 -0.0108  0.1661
 6028W        W21922   3.402   9.792  10.316 -0.4363 -0.0235 -0.2907
 6029W        W21923  11.688  12.575   2.786 -0.0839 -0.0159  0.1116
 6030W        W21924   5.435  10.243   2.790 -0.0670  0.0753 -0.1203
 6031W        W21925   4.062   2.373  12.023  0.2968 -0.0544  0.2058
 6032W        W21926   2.936  12.963   3.958  0.0794 -0.4658  0.2047
 6033W        W21927   2.461   3.073  11.192 -0.2755  0.0168  0.2861
 6034W        W21928   5.434   3.846   1.366  0.0346 -0.2449 -0.0238
 6035W        W21929   7.255   1.959  13.089  0.1144  0.2475 -0.1515
 6036W        W21930   8.825  12.069   1.748  0.2160  0.1075 -0.3946
 6037W        W21931  10.033  16.318  14.104 -0.0841  0.1694  0.2497
 6038W        W21932  15.649  19.202   2.258 -0.2665  0.2300  0.3992
 6039W        W21933  13.088   7.458  13.487 -0.0658  0.0886  0.0410
 6040W        W21934   1.455   2.168  12.174 -0.0313  0.0635  0.0955
 6041W        W21935   7.046  12.318  12.729 -0.1365 -0.2128 -0.0683
 6042W        W21936   3.160  17.728   4.479  0.0136  0.1579 -0.1533
 6043W        W21937  13.897   5.558  10.233  0.0604 -0.0403 -0.3109
 6044W        W21938   7.052  10.600   2.344  0.0398 -0.2180 -0.0498
 6045W        W21939   4.635   8.773   1.916 -0.1642 -0.0604 -0.1265
 6046W        W21940  17.517   0.553   1.113  0.2323  0.2985  0.0922
 6047W        W21941   6.364  12.196  11.704 -0.4268 -0.0270 -0.0983
 6048W        W21942   9.866  12.452   5.780 -0.2456  0.2394  0.0421
 6049W        W21943  14.156   4.921   5.452 -0.0258 -0.3437  0.2466
 6050W        W21944  18.229   2.831   0.179  0.1218 -0.1514  0.0367
 6051W        W21945  11.760  11.215   2.885  0.0254  0.3330  0.5272
 6052W        W21946  10.656   8.838   4.527  0.0881 -0.0401  0.1053
 6053W        W21947  14.803   3.235  15.042 -0.2776  0.2519 -0.0074
 6054W        W21948  14.025   1.883  11.574 -0.0703  0.0943  0.0899
 6055W        W21949  12.851  18.403  12.569  0.0697  0.1003  0.3440
 6056W        W21950   1.385   9.469  14.041  0.2770 -0.1273 -0.1130
 6057W        W21951  13.504   0.396   3.751  0.0813  0.2337 -0.1972
 6058W        W21952   9.114  18.158  11.894  0.0630 -0.2352  0.2534
 6059W        W21953   1.252   3.903   2.005  0.1799  0.3491  0.5200
 6060W        W21954  10.102  18.094  10.481  0.1617  0.1091  0.0403
 6061W        W21955  18.344  14.172   1.020  0.3097 -0.0754 -0.1135
 6062W        W21956  10.051   3.743  11.410 -0.2620 -0.1048 -0.3000
 6063W        W21957   1.621   1.458   3.634  0.1675 -0.0261  0.1734
 6064W        W21958   6.468   2.594   3.087  0.0545  0.2434 -0.1438
 6065W        W21959  17.179  12.415  13.985  0.0751  0.2679 -0.0531
 6066W        W21960  16.242  15.357  12.209  0.1219  0.3436  0.1371
 6067W        W21961  17.630  17.263  13.999  0.2338  0.2739 -0.1377
 6068W        W21962  18.992   1.077  13.670 -0.0383  0.1059  0.3249
 6069W        W21963   3.429  13.792   0.776  0.0145  0.3670 -0.1516
 6070W        W21964   8.627  15.993   4.480 -0.1570 -0.3923 -0.0850
 6071W        W21965  15.809  16.181  12.242 -0.2346 -0.3886  0.1315
 6072W        W21966   8.860  15.288   2.252 -0.2979  0.0272 -0.1030
 6073W        W21967  15.767   6.077   2.846  0.2022  0.2243  0.0740
 6074W        W21968  13.282  18.314   9.338 -0.1602 -0.1826  0.3621
 6075W        W21969  15.879  17.547   2.475  0.0150  0.3102  0.4328
 6076W        W21970  18.646  15.141  14.930  0.2798 -0.1641 -0.1308
 6077W        W21971   6.685   6.543   9.902  0.0663  0.0385 -0.1094
 6078W        W21972   9.029   2.150   2.716 -0.1496 -0.0864  0.4334
 6079W        W21973  17.170   0.114  14.229  0.2428  0.1704  0.2897
 6080W        W21974   5.832  17.445  10.074 -0.0793  0.1487  0.1579
 6081W        W21975   9.166   7.437  12.797 -0.3146  0.3563 -0.2338
 6082W        W21976  14.208   1.624   1.340  0.0346  0.0910 -0.0336
 6083W        W21977   0.359   2.885   5.497 -0.2588  0.2152 -0.1813
 6084W        W21978  18.760  14.864  11.225 -0.2299  0.1413 -0.2144
 6085W        W21979   0.784   5.622  13.537  0.0958 -0.1062  0.0349
 6086W        W21980  16.001  18.106  12.988 -0.0216  0.1441 -0.1588
 6087W        W21981   2.754   3.838  10.533 -0.2858 -0.1084  0.0144
 6088W        W21982   8.268  17.206   0.989  0.1306 -0.2208  0.2294
 6089W        W21983   8.200   7.791  14.589  0.0014 -0.0775 -0.3228
 6090W        W21984  18.821   8.235   3.639  0.1143  0.0523  0.1073
 6091W        W21985  14.533  11.628   9.934 -0.0368  0.1319  0.5059
 6092W        W21986   3.242  12.986  10.629  0.0632  0.0608  0.2542
 6093W        W21987   8.626  14.088   2.955 -0.2158 -0.0400  0.0872
 6094W        W21988  19.051  17.748  12.419 -0.0336  0.0531 -0.2909
 6095W        W21989  16.484  16.057   0.176 -0.0781 -0.1095 -0.0849
 6096W        W21990  18.784  12.337   1.185  0.3113 -0.1536 -0.0615
 6097W        W21991  15.399   8.440   4.612  0.0810  0.3238 -0.1926
 6098W        W21992   8.019  16.633   2.156  0.0184  0.0008  0.0134
 6099W        W21993  17.535  17.168  12.321  0.1415  0.1944 -0.1461
 6100W        W21994  11.804   6.248  14.852  0.0211  0.0567 -0.0316
 6101W        W21995  14.313  18.743   2.548 -0.1015  0.1382  0.1277
 6102W        W21996  12.846   8.528   4.178 -0.0351  0.1038  0.3402
 6103W        W21997  12.048  11.298  14.092 -0.1436  0.0697 -0.3002
 6104W        W21998   3.901  18.712   3.602  0.2686  0.0457 -0.0941
 6105W        W21999   8.579  10.716  14.202 -0.0670  0.0858 -0.0282
 6106W        W22000   2.073  13.713  10.871  0.1637 -0.0085 -0.2240
 6107W        W22001  11.901   8.404  10.796  0.3525 -0.2972  0.1502
 6108W        W22002   7.098  16.932   2.878 -0.2140  0.0960  0.0923
 6109W        W22003   7.721  11.010  10.273  0.0957 -0.3744  0.0926
 6110W        W22004   9.807  12.177   0.933 -0.2538  0.0491 -0.1025
 6111W        W22005  17.273  13.651  12.361  0.0185 -0.3226 -0.0381
 6112W        W22006  12.251  17.899   1.495  0.2603 -0.0506  0.1643
 6113W        W22007   5.479   7.943   3.164 -0.2452  0.1012  0.1084
 6114W        W22008   8.038  12.456  11.930 -0.0478  0.2941 -0.4574
 6115W        W22009   8.360   8.641   1.662  0.1430 -0.1025  0.0367
 6116W        W22010  14.437  18.790  14.113 -0.1470 -0.0817  0.1853
 6117W        W22011   7.313  14.147   0.956 -0.3517  0.0454  0.1182
 6118W        W22012   4.274   0.956  11.438 -0.2345 -0.1002  0.1199
 6119W        W22013  10.218   8.258   2.640 -0.1536 -0.2626 -0.1866
 6120W        W22014   1.125  14.778  11.952 -0.0038 -0.0836 -0.0985
 6121W        W22015   5.864   0.595   2.323 -0.0014  0.0412 -0.3147
 6122W        W22016   0.669   2.846  12.583  0.0883  0.2634  0.1176
 6123W        W22017   6.193  18.901  12.485  0.1704 -0.0752 -0.1573
 6124W        W22018   6.859   1.115  11.359  0.2313  0.0150 -0.1127
 6125W        W22019   3.604  18.032  11.951  0.0388  0.0518 -0.0846
 6126W        W22020  10.637   3.236  14.238  0.0650  0.0470  0.0664
 6127W        W22021  18.434  15.528  11.639 -0.0229 -0.0875  0.0494
 6128W        W22022   5.141   1.604   3.078 -0.1815 -0.3958  0.0150
 6129W        W22023   6.731  12.858  14.054  0.1278  0.3696  0.0049
 6130W        W22024  12.810  15.296  10.589  0.2607  0.1053 -0.0943
 6131W        W22025  14.676   3.940  14.641 -0.1546 -0.0804 -0.2067
 6132W        W22026   8.197  15.314  11.027 -0.1500 -0.2589  0.1440
 6133W        W22027   5.582   2.413  12.192 -0.2583 -0.2116  0.0975
 6134W        W22028   8.137  13.402   2.820  0.1623 -0.0162 -0.3912
 6135W        W22029   8.606   3.180  13.163  0.1769 -0.1104  0.1598
 6136W        W22030  14.956  14.035   0.536  0.4726  0.0169 -0.1492
 6137W        W22031  18.382   6.861  11.902 -0.2750 -0.2251  0.3196
 6138W        W22032  10.737  12.670   5.714 -0.0885 -0.1782  0.3138
 6139W        W22033  16.943  12.899   2.484 -0.1883 -0.0717  0.0758
 6140W        W22034  19.033  10.949   3.152  0.0006 -0.0498  0.0479
 6141W        W22035  10.710   3.876  12.908 -0.2994  0.1728 -0.2463
 6142W        W22036   9.928  11.464  10.632  0.0166 -0.1257  0.1646
 6143W        W22037   5.652   7.385   0.679  0.1194  0.0852 -0.0094
 6144W        W22038  14.035  10.363   3.213  0.1282  0.0188  0.0947
 6145W        W22039   5.628  11.974  14.698 -0.1466  0.4810  0.2149
 6146W        W22040  15.819  10.927  11.918 -0.1021  0.1790  0.0017
 6147W        W22041  17.154  15.263   0.300  0.1673  0.1364  0.1979
 6148W        W22042  16.136   9.540  11.924 -0.1553 -0.2359  0.1957
 6149W        W22043   7.148  12.731  14.891  0.0322 -0.0629 -0.0470
 6150W        W22044   2.810   3.453   4.166  0.1603 -0.3167 -0.1530
 6151W        W22045   1.548   2.743  12.253 -0.2308  0.0742 -0.2669
 6152W        W22046  17.193  16.725   3.373 -0.0510 -0.2360 -0.1379
 6153W        W22047   2.610  15.805  11.272  0.2419 -0.2025 -0.0511
 6154W        W22048   7.274  13.839   9.731  0.0229 -0.3183  0.0786
 6155W        W22049  14.752   8.233  13.297  0.0270 -0.1926 -0.2290
 6156W        W22050   4.943   8.921  11.100 -0.1690  0.0189  0.0848
 6157W        W22051  10.456  10.595   3.371  0.0251  0.1961  0.1346
 6158W        W22052  12.344  15.468   4.547 -0.4390  0.1247  0.1284
 6159W        W22053   1.707   4.085  12.038  0.2076  0.0829  0.2600
 6160W        W22054   3.151   2.493  11.681 -0.0717  0.5171  0.0562
 6161W        W22055   9.529  15.180   0.281 -0.2795 -0.1815 -0.6304
 6162W        W22056   3.722  12.564  10.866 -0.3708 -0.2244 -0.4194
 6163W        W22057   0.938  10.238   1.411  0.2415  0.2497 -0.0679
 6164W        W22058  12.849   9.861   3.154  0.0830 -0.4006  0.3224
 6165W        W22059  11.740   3.655  10.495 -0.2065 -0.0793 -0.1368
 6166W        W22060  10.305   5.688  14.641 -0.3417 -0.3016 -0.0426
 6167W        W22061   5.413  10.682  12.071  0.4335  0.1628 -0.2390
 6168W        W22062   8.694  15.101  10.187  0.0351  0.1707  0.0327
 6169W        W22063   7.688  12.704   5.003  0.2822 -0.0208  0.2110
 6170W        W22064  15.426  10.854   2.172  0.2558 -0.1380  0.4769
 6171W        W22065  12.175   4.083   1.317  0.0058 -0.1124 -0.1707
 6172W        W22066  17.501  19.053   5.178  0.2590 -0.1450  0.2669
 6173W        W22067  13.778   5.416  12.389  0.1558  0.0576 -0.3012
 6174W        W22068   0.985   4.974  12.962  0.3399  0.0671 -0.3485
 6175W        W22069   5.275  16.120  11.066 -0.3507  0.0562  0.3238
 6176W        W22070  13.188   0.875  14.078  0.2686  0.1106 -0.1249
 6177W        W22071   5.039  16.899   0.897 -0.1261  0.0277 -0.2004
 6178W        W22072  12.009  14.870   3.112  0.3342 -0.0496 -0.0002
 6179W        W22073   0.622  15.680   0.795  0.1193 -0.0806 -0.1138
 6180W        W22074  17.412  12.417   2.298  0.0417 -0.1256  0.0560
 6181W        W22075  11.791   9.031   1.928 -0.3305  0.1231  0.0907
 6182W        W22076   0.802  15.290  13.556 -0.3004 -0.0370  0.2495
 6183W        W22077  10.027  17.404  11.768 -0.1796 -0.1605  0.1784
 6184W        W22078   0.839  13.931   4.436 -0.0328  0.2094  0.4007
 6185W        W22079  12.473  18.559  13.973 -0.0844 -0.3161  0.0119
 6186W        W22080   2.877  17.073   9.320  0.2663  0.0297 -0.0741
 6187W        W22081   9.329  16.042   4.328 -0.0087 -0.1008 -0.2631
 6188W        W22082   8.539   4.985   0.045  0.0133  0.1326 -0.0386
 6189W        W22083  17.493   3.558  10.878 -0.0501 -0.1372  0.0443
 6190W        W22084   4.529  10.527   0.979 -0.1731  0.0016 -0.1297
 6191W        W22085  10.508  13.856   1.461 -0.0700  0.1105 -0.0780
 6192W        W22086  17.338   2.672   3.228  0.2933  0.0125  0.1678
 6193W        W22087  11.180   7.486   5.493 -0.2042 -0.1857  0.1269
 6194W        W22088  18.972   5.005   4.124 -0.1472 -0.2202  0.3796
 6195W        W22089   7.504   8.320   1.557  0.0933 -0.3826  0.1508
 6196W        W22090  17.997  16.685  14.496 -0.0677  0.0690 -0.0211
 6197W        W22091   4.197   4.865   5.524  0.0363  0.0276  0.2865
 6198W        W22092   7.769  10.080   0.688  0.2791  0.3984 -0.0313
 6199W        W22093  10.473  17.562   3.428  0.2175 -0.0717  0.0174
 6200W        W22094  18.847  13.102  11.625 -0.1599  0.3180 -0.4060
 6201W        W22095   1.096  17.025  15.057 -0.2238  0.2249  0.1779
 6202W        W22096  16.012  14.127  13.642  0.3060  0.0433 -0.0549
 6203W        W22097  18.287   5.560   4.467 -0.0358  0.1196 -0.0850
 6204W        W22098  10.329   0.562  12.628 -0.0709  0.0547  0.1300
 6205W        W22099  11.921   6.375   4.458  0.0791  0.2648  0.0304
 6206W        W22100   3.619   2.322  12.769  0.1191 -0.4044 -0.4384
 6207W        W22101  18.239  12.253  15.070 -0.2877 -0.1408  0.1580
 6208W        W22102   5.656   5.215   6.370  0.0486 -0.0107 -0.2600
 6209W        W22103  13.120   3.411   4.013  0.2552 -0.2386  0.2917
 6210W        W22104  13.849  17.493   1.438 -0.0674 -0.0645 -0.0690
 6211W        W22105   0.249   6.399   4.574  0.3123  0.0327 -0.2687
 6212W        W22106  13.004  10.284  12.967  0.0248 -0.0472 -0.0711
 6213W        W22107  12.864  12.018  14.155  0.1320  0.5845  0.1174
 6214W        W22108   1.209  15.087   0.157  0.1814 -0.0023  0.0559
 6215W        W22109  12.417  17.761  14.058  0.0163 -0.0525 -0.1015
 6216W        W22110  13.911   5.101   3.788  0.0711 -0.2557  0.6087
 6217W        W22111  17.951  15.457  11.468  0.1492 -0.1510 -0.1990
 6218W        W22112  12.863   5.328  12.542 -0.1428  0.0149  0.0600
 6219W        W22113  13.959  17.177  10.701  0.1540  0.6833 -0.0023
 6220W        W22114   8.438   3.507  12.242 -0.1765  0.0095 -0.3083
 6221W        W22115  13.191  15.347  13.854  0.2662  0.3469 -0.1353
 6222W        W22116   5.997  12.109   1.027 -0.1183 -0.2822  0.0316
 6223W        W22117  15.421   0.914   3.850  0.2202 -0.1289 -0.1397
 6224W        W22118   9.293  19.127  11.760  0.2663 -0.0532 -0.0415
 6225W        W22119   7.390  15.439  14.077  0.1063  0.0691  0.0226
 6226W        W22120  15.952   2.274   3.167 -0.2694  0.0633 -0.1148
 6227W        W22121   2.040   1.648  14.249  0.1182  0.1759  0.0232
 6228W        W22122   9.739  10.523   5.810 -0.0781  0.3987 -0.3580
 6229W        W22123   1.641  17.925   5.117 -0.0673  0.1272 -0.2649
 6230W        W22124  17.348  15.640  15.090  0.0797  0.1595  0.0764
 6231W        W22125   0.819  12.413  12.918 -0.2807 -0.1312 -0.0638
 6232W        W22126  10.794   6.785   3.615  0.0228 -0.2882  0.4783
 6233W        W22127   9.626  17.787  12.025 -0.1293  0.1182 -0.2023
 6234W        W22128   9.837  14.285  10.948 -0.2706 -0.0261  0.0977
 6235W        W22129   9.656   7.100   0.783 -0.0700 -0.0241 -0.0963
 6236W        W22130  16.386  18.780  11.373 -0.1784  0.2452  0.2953
 6237W        W22131  17.000   2.999   0.441  0.2351  0.5511  0.3678
 6238W        W22132  10.168   5.992  12.275 -0.2146 -0.0082 -0.1755
 6239W        W22133   2.999   2.638   3.679 -0.3713  0.2535 -0.1429
 6240W        W22134   1.317   4.508   5.743  0.0970  0.1287 -0.0064
 6241W        W22135  16.170   6.830  12.357 -0.1178 -0.0605  0.1652
 6242W        W22136   4.092  18.107  11.867 -0.0236  0.0815  0.1096
 6243W        W22137  12.220   5.949   2.463 -0.1621  0.1933 -0.2202
 6244W        W22138  10.104   5.670  10.378 -0.1566  0.2363  0.2852
 6245W        W22139  12.458   9.716  11.900 -0.3512 -0.2852 -0.3622
 6246W        W22140   0.146  10.946  14.267 -0.0112 -0.0638  0.1554
 6247W        W22141   9.156  15.994  11.209  0.3303  0.1665  0.2145
 6248W        W22142  13.308  10.529  13.968  0.3829 -0.3412 -0.2095
 6249W        W22143   8.417  16.049   1.566 -0.3076  0.2791 -0.4857
 6250W        W22144  12.014  15.593   3.122 -0.2163 -0.2179  0.1047
 6251W        W22145  16.472  10.793   1.849  0.0120  0.2259  0.1133
 6252W        W22146  14.056   4.554   4.867  0.3181 -0.1341  0.4054
 6253W        W22147  18.029   7.854  11.644 -0.1839 -0.0858 -0.1468
 6254W        W22148   6.072   1.498  13.254  0.5649  0.3604 -0.6613
 6255W        W22149  13.101  13.154  12.181 -0.0647  0.1267 -0.3800
 6256W        W22150  15.957   7.042  11.113  0.2408 -0.2549  0.1473
 6257W        W22151  17.491  13.506   4.454  0.0132 -0.3280 -0.6171
 6258W        W22152   2.582   3.128   1.807 -0.0124  0.0588 -0.0991
 6259W        W22153   9.366  14.994  13.950  0.0482  0.1859  0.2850
 6260W        W22154  10.736   6.382  10.799 -0.0504  0.3245 -0.0876
 6261W        W22155  18.653  13.689   2.799  0.3716  0.0181 -0.2506
 6262W        W22156  13.955   7.457   3.420  0.3019  0.1363  0.2631
 6263W        W22157   0.373   1.792   1.731  0.0521 -0.0611  0.1153
 6264W        W22158  16.521  14.609   1.432 -0.2227 -0.1566  0.1415
 6265W        W22159   2.229  11.878  14.135 -0.2405  0.0603 -0.0960
 6266W        W22160   1.613   2.340   3.522  0.1868 -0.1798  0.0343
 6267W        W22161  15.776  18.743  12.707 -0.2861 -0.1239  0.0006
 6268W        W22162   0.886   7.148  13.046  0.0433 -0.1270 -0.0587
 6269W        W22163  13.998  11.318  11.457  0.1997 -0.2706  0.2344
 6270W        W22164   2.091  15.583   3.389  0.0058  0.1047 -0.0495
 6271W        W22165   8.213  12.915   2.959  0.1690 -0.2221 -0.2387
 6272W        W22166   6.380   6.080   4.622 -0.1632  0.2004 -0.0242
 6273W        W22167  11.160   2.265   4.090 -0.2126 -0.2596  0.0819
 6274W        W22168   5.814   4.560  11.176  0.0932  0.1788 -0.3587
 6275W        W22169   1.767  10.843   0.390  0.2085 -0.1353  0.0608
 6276W        W22170  16.499  16.994   2.024 -0.4026  0.1787  0.1011
 6277W        W22171   9.642   1.055   3.166  0.3660 -0.0174 -0.0584
 6278W        W22172  19.068   4.874   3.652  0.0434 -0.1206  0.1521
 6279W        W22173  11.864  18.230   3.486 -0.0968  0.0180  0.1031
 6280W        W22174   2.915  19.088  13.405  0.0876  0.0080 -0.0075
 6281W        W22175   4.068  16.845   3.252 -0.0376 -0.1636 -0.1956
 6282W        W22176   2.510  16.964   0.618  0.1135 -0.1012 -0.0353
 6283W        W22177  13.225  10.662  10.687  0.0158  0.0475  0.2687
 6284W        W22178  11.126   6.086   3.543  0.0296  0.1955 -0.0243
 6285W        W22179  18.543  14.267   0.295  0.1873  0.0852 -0.0780
 6286W        W22180  15.933   7.464   1.962  0.0905 -0.2988 -0.1720
 6287W        W22181   2.296  16.825   1.301 -0.0272 -0.1897  0.1259
 6288W        W22182   6.730  18.755  11.959 -0.0689  0.2692  0.1319
 6289W        W22183   5.813   7.956   2.182 -0.0818 -0.0215 -0.1503
 6290W        W22184  18.072  10.656   0.251 -0.0500 -0.0430 -0.2449
 6291W        W22185  16.189   6.790  11.864 -0.1431 -0.1984 -0.6591
 6292W        W22186  18.220   3.563   3.373  0.4950 -0.4558 -0.1459
 6293W        W22187   0.745  13.727   2.335 -0.1105  0.0596  0.1008
 6294W        W22188  10.423   6.214   3.036 -0.2251  0.0352  0.1918
 6295W        W22189   4.345   2.861   3.637  0.0355  0.1034  0.0770
 6296W        W22190  14.957  18.822   3.394 -0.0575  0.2582 -0.0406
 6297W        W22191   8.019   5.016  14.197 -0.2375  0.2470  0.0302
 6298W        W22192  14.387  13.667   1.848 -0.0134 -0.1086 -0.1969
 6299W        W22193  14.015   9.454   3.165 -0.2023 -0.0589  0.0051
 6300W        W22194  17.286   5.416  12.180  0.1329  0.2125  0.1053
 6301W        W22195   2.003  12.206   3.065  0.0586 -0.4260 -0.0467
 6302W        W22196   9.364   3.096   3.109  0.0247  0.0713 -0.3388
 6303W        W22197   7.209   2.173  10.866 -0.0635  0.2405 -0.0470
 6304W        W22198  16.875  17.251  12.957 -0.2113 -0.0026  0.2806
 6305W        W22199   2.771   4.338  14.646 -0.1075  0.1628  0.0336
 6306W        W22200  11.993  18.691  12.980  0.0525 -0.1476  0.2424
 6307W        W22201  15.479   9.386  12.580 -0.5810  0.1648  0.1467
 6308W        W22202   5.642  12.898  13.589 -0.0021 -0.1822 -0.1863
 6309W        W22203  18.645   7.314   2.052  0.0868 -0.0986 -0.2457
 6310W        W22204   4.543   8.789  11.474  0.0692  0.0736  0.0485
 6311W        W22205   4.896   9.944   1.220 -0.0834 -0.1989 -0.0442
 6312W        W22206   7.094   0.484  12.107 -0.0717 -0.0089 -0.0629
 6313W        W22207  16.784   9.309  14.866  0.0844  0.0143 -0.1057
 6314W        W22208   8.905   2.514   0.945  0.0277 -0.1606 -0.1532
 6315W        W22209   9.016  15.711   2.439 -0.0476  0.0917 -0.0652
 6316W        W22210  18.008  14.842  12.909  0.1655  0.0726 -0.0394
 6317W        W22211  11.259  10.262   2.788  0.0571  0.1854  0.1838
 6318W        W22212   5.174   8.451   2.237  0.2064 -0.0726  0.1348
 6319W        W22213   7.042   9.018   0.304  0.1447 -0.2328 -0.4083
 6320W        W22214   4.020   1.325  13.622 -0.1805 -0.0262 -0.0636
 6321W        W22215  16.941   4.145   1.558 -0.1545  0.3331  0.2072
 6322W        W22216   7.708  18.009  14.052 -0.4180 -0.3391  0.0599
 6323W        W22217  10.038  11.899  14.737  0.0003 -0.0877 -0.1015
 6324W        W22218   5.353  12.917  12.040  0.0608  0.0296 -0.1664
 6325W        W22219  10.283  15.353   2.750  0.1579 -0.2421  0.1046
 6326W        W22220   5.426   1.691   2.089 -0.0268 -0.1573  0.0611
 6327W        W22221  13.853  11.267   3.574  0.3731  0.0911 -0.2543
 6328W        W22222  19.018  13.396  10.277  0.3754 -0.0524  0.4281
 6329W        W22223   1.855  10.464  10.569 -0.2004 -0.2590  0.4950
 6330W        W22224   6.639  11.268  13.487 -0.5257 -0.1835  0.4824
 6331W        W22225  10.198  13.945   5.075  0.0278  0.0754  0.1378
 6332W        W22226   6.188   4.274  10.917 -0.2603 -0.0404  0.0806
 6333W        W22227   5.017  10.668  13.496  0.0311  0.1982  0.0367
 6334W        W22228  13.851   8.731   3.153  0.0609 -0.0942  0.0532
 6335W        W22229  12.394   5.485   3.289  0.0837 -0.1120 -0.2248
 6336W        W22230  14.182   7.281   4.717 -0.0139 -0.3132 -0.0124
 6337W        W22231   3.545  17.599   4.211 -0.0557  0.1987  0.0692
 6338W        W22232   2.168  10.550   2.930  0.2974 -0.0672  0.0265
 6339W        W22233   7.313  18.293  12.274 -0.1662  0.1157 -0.0374
 6340W        W22234   1.185   2.190   3.279 -0.0563 -0.3748 -0.5382
 6341W        W22235   2.199  18.572  11.206  0.2577 -0.0465  0.0251
 6342W        W22236  14.068  11.694  13.351 -0.0789 -0.4850 -0.0119
 6343W        W22237   6.755  18.685   2.793  0.0720 -0.0764 -0.0582
 6344W        W22238  14.180   7.156   2.974 -0.0216 -0.1559 -0.1149
 6345W        W22239  15.535  12.720  14.554  0.0536  0.2768 -0.0110
 6346W        W22240   4.734  14.357   3.459 -0.3821 -0.1173  0.0619
 6347W        W22241  16.289   6.377  13.636  0.1811 -0.0390 -0.0513
 6348W        W22242  14.510   2.002   1.283 -0.0493 -0.1100 -0.0112
 6349W        W22243  10.380   2.405   4.360  0.2440  0.3707 -0.1082
 6350W        W22244  11.522   0.619  14.419  0.4098  0.0110  0.2180
 6351W        W22245  12.192   7.069   4.747  0.1893 -0.3290 -0.0705
 6352W        W22246  12.738   2.749  12.599 -0.2499 -0.1248  0.0766
 6353W        W22247   6.934   0.805   4.986 -0.2198 -0.1453 -0.0457
 6354W        W22248   6.265  18.237   0.625 -0.0276 -0.0690  0.2564
 6355W        W22249  13.926   5.218   4.785 -0.1792 -0.0099 -0.1371
 6356W        W22250  12.613   9.617   5.435  0.1365 -0.1350 -0.3386
 6357W        W22251  14.787  11.173   3.136 -0.1193 -0.2525 -0.1496
 6358W        W22252  17.195   2.221  14.815 -0.1056  0.0760 -0.1224
 6359W        W22253   7.218  11.883   0.043  0.2073 -0.1068 -0.0084
 6360W        W22254  13.351  13.478   2.679  0.0446 -0.1820 -0.1512
 6361W        W22255  17.895   7.919   3.000  0.0929 -0.0754 -0.1284
 6362W        W22256   1.092   7.127   1.652  0.0504 -0.4894  0.0114
 6363W        W22257  12.759  10.643  13.261  0.2816 -0.0670 -0.1602
 6364W        W22258  10.977   3.454   0.737  0.0347  0.4387  0.0451
 6365W        W22259   6.052   2.121  12.159  0.2643 -0.1978 -0.1269
 6366W        W22260  16.062  12.233   4.605  0.2358  0.2593  0.2100
 6367W        W22261  12.271   4.348  14.056 -0.0194  0.0589 -0.2080
 6368W        W22262  15.478  17.988   3.074 -0.0965  0.0707  0.0859
 6369W        W22263  10.106   5.852   3.583 -0.0131  0.2049  0.0468
 6370W        W22264  15.432   6.664  12.626  0.3926 -0.0614  0.1415
 6371W        W22265   2.150  16.391   2.262  0.2909  0.0660  0.1262
 6372W        W22266   7.689   7.897   1.907 -0.0185 -0.0893 -0.0994
 6373W        W22267  13.774  10.790  12.321 -0.1501  0.0718  0.3655
 6374W        W22268   3.298  17.074  14.880 -0.0783  0.3511 -0.3013
 6375W        W22269   0.931   8.561   2.417  0.0799  0.2058 -0.1883
 6376W        W22270  14.586   4.364   2.100 -0.0959 -0.0165  0.0367
 6377W        W22271  16.287   0.536  11.053 -0.0983 -0.4428 -0.0775
 6378W        W22272  15.835   7.041  13.403  0.0607 -0.3432 -0.1365
 6379W        W22273   7.439  14.261   9.963  0.1944 -0.0990 -0.0190
 6380W        W22274   5.536   3.133  14.871 -0.3736  0.1775  0.1506
 6381W        W22275   6.054  14.174   1.601  0.5677  0.3801 -0.2393
 6382W        W22276   6.825  12.921  12.603  0.2517 -0.1526  0.0452
 6383W        W22277  12.712  16.063  12.912  0.2255  0.4015  0.3447
 6384W        W22278   0.375  12.211   0.560  0.0865  0.2266 -0.1371
 6385W        W22279   2.780  15.970  10.364 -0.1621  0.0603  0.2410
 6386W        W22280   7.267   6.247  12.208 -0.1145  0.1243  0.3394
 6387W        W22281  18.530  16.900  13.593 -0.0602  0.1741  0.1796
 6388W        W22282   7.124   8.237   1.843 -0.2112 -0.2559  0.1375
 6389W        W22283   9.600   3.955  13.779  0.2866  0.0174  0.3107
 6390W        W22284  14.232   3.197   2.838 -0.2394  0.2615  0.1460
 6391W        W22285   7.051   1.601   3.285 -0.0123  0.0089  0.3552
 6392W        W22286  17.326   3.858  11.315 -0.0105 -0.0258  0.1623
 6393W        W22287   5.305   8.376   0.675 -0.0156  0.1085  0.0980
 6394W        W22288  18.743  15.717  12.451  0.1006  0.1316  0.0008
 6395W        W22289   9.917  15.910   4.130  0.0317  0.0092  0.2774
 6396W        W22290  13.618   7.588   0.236  0.0213  0.3538 -0.0899
 6397W        W22291  13.366  19.037   4.755 -0.1832  0.2525  0.2019
 6398W        W22292  15.944   4.925  12.081 -0.2523  0.0802 -0.2893
 6399W        W22293  12.581  12.422   1.955 -0.0082 -0.0964  0.2147
 6400W        W22294  14.547  17.565  10.123  0.0415  0.4721  0.1234
 6401W        W22295  10.939   7.743  14.361 -0.0232 -0.1727 -0.3462
 6402W        W22296   7.011  11.834   1.968  0.0156  0.2026  0.4548
 6403W        W22297  14.934  10.395  11.691 -0.1794 -0.2283 -0.0064
 6404W        W22298  12.877   8.997   2.260  0.0684  0.0069  0.1747
 6405W        W22299  18.582  10.594   5.533  0.0842  0.1925 -0.1678
 6406W        W22300  12.518   1.491  13.102  0.0032 -0.0935  0.1229
 6407W        W22301   1.523   2.612  13.935  0.0900 -0.0307 -0.2511
 6408W        W22302   8.578  18.075  10.327 -0.1284 -0.1899 -0.0828
 6409W        W22303   1.407  14.003   4.649 -0.1842  0.1974  0.1736
 6410W        W22304  15.028   6.896   0.638 -0.2963 -0.1108 -0.1737
 6411W        W22305  15.900   7.574   4.675 -0.1906  0.7552 -0.2335
 6412W        W22306  19.045   3.615  12.013 -0.0930 -0.3383  0.1029
 6413W        W22307   7.308   2.932   4.055 -0.0427 -0.2454 -0.0529
 6414W        W22308  17.433  11.978   0.416  0.2034  0.1783  0.3092
 6415W        W22309   7.415   9.827  12.546 -0.2544 -0.0934  0.0712
 6416W        W22310  12.113   2.756  10.665 -0.0201 -0.4350  0.0002
 6417W        W22311  17.628  15.200  13.570 -0.2067  0.1211  0.1283
 6418W        W22312  10.504   2.149   3.288 -0.1569 -0.1444 -0.0528
 6419W        W22313  10.266   2.059   1.752  0.0530 -0.0849  0.0389
 6420W        W22314  14.173   4.865  11.366 -0.0676 -0.1806 -0.1579
 6421W        W22315   4.565  16.577  11.508 -0.4002 -0.0689  0.0564
 6422W        W22316  19.070  18.471   0.811  0.2239  0.2621  0.2251
 6423W        W22317  10.805  16.360   3.493  0.1351 -0.1070 -0.0364
 6424W        W22318   4.214   0.551  12.518  0.1068  0.1338 -0.0459
 6425W        W22319  10.442  11.734  10.566 -0.1092  0.0118 -0.0255
 6426W        W22320   3.951   1.877  13.519 -0.0896  0.1213 -0.0335
 6427W        W22321  10.710   7.061   2.409 -0.0375 -0.4040  0.0149
 6428W        W22322   8.651   2.782  11.017  0.6669 -0.0470  0.4276
 6429W        W22323  16.490  10.975  11.665 -0.0760  0.0990  0.1413
 6430W        W22324  15.098   1.912   3.306  0.1069 -0.2528  0.0842
 6431W        W22325   9.465   0.612   4.436  0.0570 -0.4778  0.0661
 6432W        W22326   0.226  10.746   3.486  0.2021  0.1105  0.1157
 6433W        W22327  16.834  10.813  13.995  0.2884  0.0121 -0.0480
 6434W        W22328  17.121  12.408   0.130 -0.1679 -0.1077 -0.2556
 6435W        W22329   4.530  14.974   1.075  0.2977 -0.0961  0.1816
 6436W        W22330   0.664  12.862   0.464 -0.3005 -0.2377 -0.0540
 6437W        W22331  17.017  18.347   4.951  0.0430 -0.0149 -0.0513
 6438W        W22332  16.161  13.336   1.011  0.1640  0.1687 -0.1014
 6439W        W22333   8.743   0.120   0.517 -0.1149  0.2160  0.1554
 6440W        W22334  13.043  18.456   2.125 -0.2214  0.2190  0.2804
 6441W        W22335  16.002  17.780  10.117 -0.0909  0.3087  0.2329
 6442W        W22336  17.778  11.372  13.218 -0.0315  0.0713  0.0748
 6443W        W22337   8.442   1.148  14.634 -0.0070 -0.1708  0.0527
 6444W        W22338   3.040   1.152  10.698 -0.1572  0.1243  0.1969
 6445W        W22339   1.263   6.988  14.144  0.3062 -0.0618 -0.0424
 6446W        W22340   9.578  16.462   0.364  0.2837  0.2040  0.0101
 6447W        W22341  17.588  16.897   1.754  0.1678 -0.3636  0.0451
 6448W        W22342   2.593   1.146   1.396 -0.0777 -0.1497 -0.2629
 6449W        W22343   9.701  18.095   2.683 -0.0304 -0.3205  0.1528
 6450W        W22344  14.067   7.320   0.338  0.1400  0.1027 -0.0098
 6451W        W22345  14.428   5.293  11.181  0.2077  0.0683  0.0672
 6452W        W22346  18.224  18.075   1.014 -0.0888 -0.2575 -0.1556
 6453W        W22347  18.130   1.007   2.292 -0.1608  0.2169  0.0134
 6454W        W22348  15.672   3.579   5.128  0.1118 -0.0594 -0.1768
 6455W        W22349   7.878   9.161   1.330  0.0198 -0.1150  0.0377
 6456W        W22350  18.639  15.255  13.414  0.0780  0.0565  0.6316
 6457W        W22351   0.555  14.659  14.332 -0.1288 -0.1820  0.0805
 6458W        W22352  18.408   1.307  13.097 -0.0566 -0.0607  0.3090
 6459W        W22353   3.856  18.331   4.444  0.0114 -0.2836 -0.2633
 6460W        W22354  18.136   9.649   1.319  0.0861 -0.2604  0.1251
 6461W        W22355  17.853   7.577  15.103 -0.3024 -0.1803 -0.2225
 6462W        W22356   9.320   2.317   5.219 -0.2743  0.1821  0.1981
 6463W        W22357   2.129   0.774  14.771  0.1917 -0.0271 -0.3838
 6464W        W22358   7.804  12.074   1.304  0.0381 -0.3733  0.4480
 6465W        W22359   5.011  10.918  12.359 -0.1491 -0.2826  0.2238
 6466W        W22360   0.150  10.266  11.285  0.0965  0.0183  0.1948
 6467W        W22361  14.413  15.436   0.013 -0.1607 -0.1194 -0.3749
 6468W        W22362  10.904   2.762  14.076 -0.0809  0.1797  0.0146
 6469W        W22363   5.940  14.895   3.934 -0.0452 -0.2664 -0.3072
 6470W        W22364  16.560   7.914   1.606 -0.0602  0.2397  0.2069
 6471W        W22365   1.477  16.464  10.835  0.2951 -0.1569 -0.1669
 6472W        W22366   0.652   4.777   2.240  0.1593  0.5545 -0.2179
 6473W        W22367  10.782  15.592  14.027 -0.1441 -0.2185 -0.5557
 6474W        W22368  17.257   2.009   1.114 -0.0916  0.3598 -0.2568
 6475W        W22369   8.677  13.294  13.906  0.1337 -0.2206 -0.0750
 6476W        W22370   2.554  15.043   0.654  0.2594  0.2113  0.0301
 6477W        W22371  19.129  15.992  13.616 -0.3368  0.3312  0.1544
 6478W        W22372   3.226   2.333  12.285 -0.1331  0.1826  0.0502
 6479W        W22373  13.791  16.576  10.212  0.5536 -0.2335  0.4685
 6480W        W22374  13.618   1.025  11.251 -0.3124 -0.0609  0.1794
 6481W        W22375  13.689  12.147  12.517  0.5194 -0.2011 -0.0133
 6482W        W22376  10.362  19.048  10.792  0.0114 -0.1231  0.1992
 6483W        W22377  16.924   2.173   1.494 -0.4679  0.2112 -0.0334
 6484W        W22378   1.299   0.093   5.282  0.0495 -0.1965  0.3087
 6485W        W22379  18.941   1.441   3.138  0.0863 -0.2948 -0.0824
 6486W        W22380  16.007  17.534   0.137  0.2767 -0.0829  0.0322
 6487W        W22381  12.425  14.144  14.845 -0.2751  0.0016  0.3036
 6488W        W22382   3.255   6.555  11.489 -0.1636 -0.2986  0.0361
 6489W        W22383  13.673  12.093   3.120  0.0975 -0.2614 -0.0587
 6490W        W22384  12.321  12.788   0.739  0.0417 -0.1078  0.0129
 6491W        W22385  12.785   5.536   4.875  0.3773  0.0610  0.0539
 6492W        W22386  13.405   9.988   3.806 -0.2843  0.0495  0.2031
 6493W        W22387  16.512   4.103  10.650  0.0778  0.1345 -0.1425
 6494W        W22388  13.518  15.280   0.988 -0.3275  0.1426  0.0353
 6495W        W22389  17.569  15.843   1.797  0.1366 -0.1113 -0.2722
 6496W        W22390  13.936  13.413   2.883 -0.0345  0.0857  0.0165
 6497W        W22391   9.498   5.487   1.501  0.1760  0.1979 -0.1357
 6498W        W22392   7.414  13.166  12.485  0.2215  0.2281  0.1203
 6499W        W22393  16.754   9.469  11.362 -0.0836  0.2816  0.0464
 6500W        W22394   1.017   7.658   4.146  0.3211 -0.0209  0.2626
 6501W        W22395   6.144  13.246   3.679 -0.2166 -0.1225  0.1117
 6502W        W22396   4.892   2.421  13.149  0.0359 -0.0955  0.1224
 6503W        W22397   9.224  12.646   0.405  0.1443 -0.0824 -0.2356
 6504W        W22398   3.795   3.905  10.028  0.0481  0.1838 -0.3671
 6505W        W22399   8.378  15.439  12.392  0.1323  0.0321 -0.0843
 6506W        W22400  18.360  15.428  12.658 -0.0546 -0.0496 -0.0329
 6507W        W22401  18.822   5.058   6.017  0.5061 -0.2448 -0.1422
 6508W        W22402  14.292   6.791   4.813 -0.3209 -0.3237  0.2211
 6509W        W22403  16.965   2.421  14.292  0.0842 -0.0817  0.1743
 6510W        W22404   3.817  15.835  12.859 -0.1661  0.2351  0.1392
 6511W        W22405  16.678   0.447   4.586  0.0166  0.0425  0.0357
 6512W        W22406   6.022  19.219   4.395 -0.1460 -0.0322  0.3072
 6513W        W22407   3.266   3.216  14.978  0.1080 -0.1986 -0.3846
 6514W        W22408  12.144   7.373  11.940 -0.0335  0.0641  0.0772
 6515W        W22409  17.999   9.786  10.288  0.0184  0.2809 -0.4616
 6516W        W22410   5.557  11.098   3.237 -0.3234 -0.0682 -0.2299
 6517W        W22411  13.610   6.203   4.667  0.2293 -0.3127  0.0072
 6518W        W22412  14.538  13.764  15.089 -0.0729  0.1171 -0.2405
 6519W        W22413   8.985  17.285   3.222  0.2774  0.1443  0.0973
 6520W        W22414   0.849   5.680   0.845  0.1190  0.1316 -0.0315
 6521W        W22415   6.519  13.655  10.127  0.0332 -0.2122 -0.0001
 6522W        W22416   0.905  16.101   2.161 -0.2778  0.0451 -0.0894
 6523W        W22417   6.919  16.829   2.427 -0.0853  0.3424  0.4107
 6524W        W22418   5.194  10.006  12.543 -0.2839  0.1260 -0.1747
 6525W        W22419  10.716  17.699  14.840 -0.3452  0.1097 -0.3413
 6526W        W22420   7.796   6.408  11.511  0.1486 -0.1302 -0.1294
 6527W        W22421  11.758   9.740   1.128 -0.0017  0.3191 -0.1719
 6528W        W22422   6.288   0.351  14.885 -0.4704  0.1218 -0.2906
 6529W        W22423  12.796   4.791   0.662 -0.0841 -0.3837  0.3569
 6530W        W22424   1.979   6.025  11.777  0.0443 -0.0405 -0.0401
 6531W        W22425   7.882   7.808  13.766  0.0561 -0.0852 -0.3039
 6532W        W22426  16.460   0.666  12.821 -0.0164 -0.2514  0.3992
 6533W        W22427   4.584  17.335  11.184 -0.0196 -0.2381 -0.0214
 6534W        W22428   3.340  16.377  12.094  0.0516 -0.1110 -0.0479
 6535W        W22429   4.409   3.442  10.500 -0.3389  0.1644  0.1126
 6536W        W22430  14.161   8.242  11.624  0.2042 -0.2055  0.1496
 6537W        W22431   2.077  19.202   1.048 -0.0056 -0.4627  0.0548
 6538W        W22432  19.189   8.108   4.503 -0.0597  0.2681  0.0363
 6539W        W22433  11.368   4.851  11.632  0.2342 -0.1906  0.0027
 6540W        W22434   3.083   5.814  14.111 -0.1882  0.3194  0.0358
 6541W        W22435   5.144   2.613  12.780 -0.0810  0.0509 -0.0161
 6542W        W22436   6.717   4.366  15.023 -0.1297 -0.0078 -0.3597
 6543W        W22437  14.086   5.386  11.530  0.1371  0.0597  0.3305
 6544W        W22438   9.984  13.940   1.473 -0.0940  0.0604  0.3453
 6545W        W22439   8.967   6.631   4.021 -0.2541  0.0185 -0.2711
 6546W        W22440   6.992  17.471  12.741 -0.0069  0.0752  0.4130
 6547W        W22441   0.278   0.255   3.794 -0.0292 -0.4730  0.0593
 6548W        W22442  14.337  18.749   1.334  0.0531 -0.0967  0.3317
 6549W        W22443  14.064  15.941   4.313 -0.2468 -0.2442 -0.2813
 6550W        W22444   3.224  13.196   4.515  0.2763  0.0344 -0.1043
 6551W        W22445   0.743   5.416  13.996 -0.2001  0.3039 -0.1653
 6552W        W22446  11.771   5.706  10.299 -0.0940  0.3556 -0.3391
 6553W        W22447  13.147  17.185  10.692 -0.2446  0.3635  0.2010
 6554W        W22448  14.781   4.658   5.681 -0.0362  0.2548 -0.1923
 6555W        W22449  14.444   8.304  12.200 -0.1657  0.2449 -0.0710
 6556W        W22450  16.292   3.461  12.243  0.0438 -0.0216  0.0146
 6557W        W22451  10.765  11.865   0.710  0.1775 -0.0298  0.1647
 6558W        W22452  12.949   4.287  12.935  0.2904 -0.0807  0.0971
 6559W        W22453   9.809   7.911  15.059 -0.2874  0.1316 -0.0294
 6560W        W22454   3.944   8.072   2.914  0.1353 -0.1219 -0.0674
 6561W        W22455   0.143   8.330   4.998 -0.1015 -0.2123  0.1098
 6562W        W22456  13.311  15.598   5.379  0.3178  0.2563  0.2162
 6563W        W22457  13.386  16.786   1.406  0.0578  0.1870  0.1857
 6564W        W22458  17.575   8.856  11.102  0.3386 -0.0056 -0.0701
 6565W        W22459  14.474   5.127  11.693 -0.1972  0.0579  0.4126
 6566W        W22460  15.533   3.825   5.537 -0.0501 -0.6582 -0.3293
 6567W        W22461   9.459   1.552  14.513 -0.1212 -0.0161 -0.0954
 6568W        W22462  11.207  11.929   1.958 -0.3269  0.0057 -0.1130
 6569W        W22463  18.266   8.669  14.791  0.0073 -0.1072  0.1255
 6570W        W22464  16.130  10.603   4.392  0.3105 -0.0762  0.0758
 6571W        W22465   6.208   2.553   0.322 -0.4253  0.1106  0.1586
 6572W        W22466  13.904  13.165  13.989 -0.1331 -0.0818  0.1236
 6573W        W22467   6.710   9.982  13.223  0.1183  0.0519 -0.0254
 6574W        W22468  10.753  13.602   2.652 -0.0739 -0.0838  0.3163
 6575W        W22469   5.343   6.234   0.954  0.1006  0.0596 -0.2388
 6576W        W22470  13.946   1.400   1.028 -0.0217  0.3207 -0.2156
 6577W        W22471   5.101  15.511  12.460 -0.2067  0.2519  0.2629
 6578W        W22472  18.626  17.889  12.728 -0.0169  0.1890  0.0312
 6579W        W22473   2.226   3.407   3.927 -0.2711  0.1113  0.1325
 6580W        W22474   1.834  12.263   4.196  0.1835 -0.1094  0.0646
 6581W        W22475   3.821  18.812   2.682 -0.1063  0.1001  0.0267
 6582W        W22476  14.480   9.022   0.957 -0.0197 -0.2055 -0.1126
 6583W        W22477  16.643   0.344   2.527  0.0633 -0.1039 -0.2859
 6584W        W22478  10.548   2.966   3.215 -0.1578  0.3324  0.1301
 6585W        W22479  11.719   4.105   0.857 -0.4078  0.4153 -0.3247
 6586W        W22480   7.323   3.844  12.085  0.0062  0.0782  0.2964
 6587W        W22481  12.479  13.247  11.454 -0.1675  0.0352 -0.2562
 6588W        W22482  15.898  16.201   1.928 -0.0351 -0.1757 -0.0058
 6589W        W22483  17.349  10.800   3.420  0.1472 -0.1367 -0.0876
 6590W        W22484   4.496   9.271   2.096  0.3454 -0.0061 -0.0211
 6591W        W22485  17.249  14.151   3.315 -0.0381  0.1410 -0.2802
 6592W        W22486  18.573   0.691   3.476  0.4252  0.0904  0.0431
 6593W        W22487  15.457  15.684  11.301 -0.0254  0.4418 -0.3355
 6594W        W22488   6.582   9.719   2.396 -0.5146  0.3656 -0.0862
 6595W        W22489  10.419   5.438   0.806  0.1168  0.0514 -0.0399
 6596W        W22490  13.848   7.970  10.886 -0.2483 -0.1811 -0.0115
 6597W        W22491   3.138   5.741  13.336  0.0806 -0.4045  0.1873
 6598W        W22492   7.744  12.679  12.359  0.0655  0.1181  0.3739
 6599W        W22493   3.088   6.211  11.843 -0.0379  0.4794  0.3401
 6600W        W22494   1.722  11.855  11.661 -0.1391 -0.1828 -0.4647
 6601W        W22495  13.949  17.644  13.216  0.1503 -0.0186 -0.1571
 6602W        W22496   7.364   7.032  11.021 -0.1057  0.1275  0.0578
 6603W        W22497  15.080   7.584  11.554  0.2186  0.1925  0.0545
 6604W        W22498   4.407  17.537   0.457 -0.1077 -0.1987 -0.0192
 6605W        W22499  17.985   5.257   2.491  0.0268  0.0353  0.0183
 6606W        W22500  12.312  15.263  13.969  0.4608  0.0380 -0.1322
 6607W        W22501   0.065   6.443   8.528 -0.2281  0.0646 -0.3038
 6608W        W22502   0.724   7.193   0.412 -0.1630  0.1974  0.0337
 6609W        W22503  10.839   5.193   1.976 -0.3667 -0.0669 -0.1778
 6610W        W22504   3.559  14.990  12.826 -0.0122  0.1197 -0.2331
 6611W        W22505   3.722  13.634  14.167  0.0669 -0.5086  0.0977
 6612W        W22506  10.244   6.648   2.960  0.0751 -0.1407 -0.4278
 6613W        W22507  11.709   2.390  12.461 -0.2119  0.1917 -0.3073
 6614W        W22508  17.418  12.890   2.377  0.1701  0.0422  0.2906
 6615W        W22509   7.931  11.913  11.188 -0.0782 -0.2091  0.2543
 6616W        W22510  14.903  10.910  10.993  0.1248  0.0105 -0.1071
 6617W        W22511   8.994   1.127  13.533  0.2661 -0.0646 -0.0155
 6618W        W22512   0.797   6.261   1.564 -0.0839 -0.1153  0.0212
 6619W        W22513  18.524  11.074   0.932 -0.1805  0.0300 -0.0544
 6620W        W22514  13.423   0.749   1.485  0.0933  0.4693 -0.4031
 6621W        W22515   6.535  11.880   1.247 -0.1175 -0.2149  0.0508
 6622W        W22516   0.324   6.363   5.858  0.1542  0.2899 -0.0383
 6623W        W22517   7.443   0.526   4.806  0.2029 -0.1823 -0.0134
 6624W        W22518  11.473  12.181  13.646 -0.1200 -0.0060  0.0026
 6625W        W22519   5.232  10.576   1.703 -0.0326 -0.2351 -0.2637
 6626W        W22520   8.028  18.647   4.612  0.0478  0.0218 -0.1488
 6627W        W22521   2.517  15.265  14.130 -0.0832  0.1024 -0.2753
 6628W        W22522   8.911   0.831  14.868 -0.1011 -0.0843 -0.1539
 6629W        W22523  11.598  18.329   4.654 -0.0439 -0.0267 -0.1095
 6630W        W22524  13.392   4.177   0.168 -0.1827 -0.1174  0.2425
 6631W        W22525  15.465  15.901  14.101 -0.1158 -0.0761  0.0631
 6632W        W22526   4.930   8.240  13.605  0.2143 -0.0568  0.1851
 6633W        W22527   0.445   6.715   0.865 -0.5963 -0.3718 -0.2858
 6634W        W22528  17.210  11.306  14.306  0.1692  0.1026 -0.1936
 6635W        W22529  15.891  11.177  11.080  0.1453 -0.1086 -0.0735
 6636W        W22530  18.576   5.967  10.003  0.1622  0.1018  0.0183
 6637W        W22531  18.214  18.857  12.576 -0.0987  0.0563 -0.1550
 6638W        W22532   7.485   5.619  14.141  0.2756  0.1150 -0.3737
 6639W        W22533  13.173  15.012  11.488  0.1325 -0.0594  0.2527
 6640W        W22534   1.389  14.146  11.104 -0.2772  0.1701 -0.1267
 6641W        W22535   0.911  10.228  11.185  0.1686 -0.0047  0.0914
 6642W        W22536  12.030   5.097  14.353 -0.0777  0.1083  0.0377
 6643W        W22537   3.477   5.355  13.484 -0.0317  0.1022  0.1345
 6644W        W22538  19.066   9.861  11.577  0.0875  0.0701  0.1386
 6645W        W22539  10.903  17.860  11.495 -0.1444 -0.0238 -0.0496
 6646W        W22540   6.750  12.242   4.011 -0.2239  0.0388 -0.4740
 6647W        W22541   5.003  12.839   2.436 -0.4303  0.0697 -0.1728
 6648W        W22542   5.124  14.165  12.431  0.1871 -0.1217 -0.4946
 6649W        W22543  14.961   8.948   3.977 -0.1348  0.0302  0.4306
 6650W        W22544   3.449   2.805  12.659  0.2588  0.0496 -0.1000
 6651W        W22545   9.848  19.050  10.731  0.1959 -0.0055 -0.2379
 6652W        W22546  16.432  18.390  11.720 -0.1112 -0.0621  0.2399
 6653W        W22547  14.207   2.252   0.751 -0.0044 -0.2294  0.1205
 6654W        W22548   4.161   4.059  12.575 -0.0500 -0.0289 -0.0468
 6655W        W22549  13.175   2.982  14.827 -0.0028 -0.1792 -0.3212
 6656W        W22550   2.954   0.897   3.383 -0.0098 -0.0018  0.2685
 6657W        W22551   6.279   8.478   2.501  0.2552 -0.1052  0.0958
 6658W        W22552   8.706  17.538   3.618  0.0514  0.0641  0.0886
 6659W        W22553  10.537  14.047   0.301  0.0172 -0.2622  0.2441
 6660W        W22554  10.176  16.993  12.002  0.0289  0.1262 -0.1884
 6661W        W22555   8.535  14.151   2.373  0.0113 -0.1270 -0.0210
 6662W        W22556  13.982   0.580   3.921 -0.0101  0.1627 -0.3675
 6663W        W22557   3.736  10.149   1.065 -0.1209  0.1197 -0.2613
 6664W        W22558   0.575   0.086   1.652  0.2019  0.1343  0.2309
 6665W        W22559   0.800   3.260   4.110 -0.0335 -0.2039  0.0573
 6666W        W22560  15.464   4.552   2.426 -0.4634  0.1221  0.4013
 6667W        W22561   6.393   1.934   2.696 -0.0152 -0.4640  0.0019
 6668W        W22562   8.315  10.417   3.313 -0.1466 -0.1129  0.2224
 6669W        W22563   8.523   0.510   1.889  0.2253 -0.0176 -0.2003
 6670W        W22564  17.824   9.025   3.967  0.1005  0.0434  0.0082
 6671W        W22565   4.937   3.852   4.557 -0.2638 -0.0977  0.0204
 6672W        W22566  13.800   0.714  13.241 -0.0035  0.4413 -0.1417
 6673W        W22567   5.859   4.127   1.158  0.0774  0.2770 -0.0589
 6674W        W22568   1.134   7.708  11.567  0.0152 -0.0474  0.3791
 6675W        W22569   6.457   9.762   0.307 -0.0050  0.2074  0.3147
 6676W        W22570  10.184   0.830   1.103  0.0924  0.2367 -0.0119
 6677W        W22571  13.610  11.352  11.076  0.2110  0.4205 -0.0322
 6678W        W22572  10.171   0.953  11.055  0.3139 -0.0175  0.2916
 6679W        W22573   1.972   8.321  11.770 -0.0630 -0.3244  0.1391
 6680W        W22574   9.856  10.966   3.530 -0.0120 -0.0571 -0.0308
 6681W        W22575  12.468   2.884  11.601 -0.3486  0.1012  0.0354
 6682W        W22576   1.979  13.494   4.963 -0.1390  0.3439  0.3493
 6683W        W22577   8.532  18.720   2.033  0.1605 -0.0232 -0.0043
 6684W        W22578   6.167  15.984   0.705 -0.2506 -0.0039  0.1404
 6685W        W22579  16.560  10.303   2.040  0.2307 -0.1994 -0.2584
 6686W        W22580  16.122  12.254   2.546 -0.4602 -0.0693 -0.0793
 6687W        W22581   9.524   1.842   1.172  0.2252  0.1905  0.0177
 6688W        W22582   1.743   2.960   5.153 -0.4819 -0.0715 -0.2447
 6689W        W22583  13.401   7.206  14.675  0.3066 -0.1727  0.3283
 6690W        W22584   4.220   2.914   4.434  0.0286  0.0187  0.1728
 6691W        W22585   5.750   3.504   1.141 -0.0768  0.1854 -0.1084
 6692W        W22586   8.608   1.868  11.443  0.1869  0.3495  0.1818
 6693W        W22587  18.387  17.471  11.801  0.2102 -0.1657 -0.0488
 6694W        W22588   4.955   2.940  13.208 -0.2198  0.1084  0.0425
 6695W        W22589   1.071   7.961  12.853 -0.2399  0.2503  0.0159
 6696W        W22590   8.373   7.744  11.320 -0.1697 -0.1213  0.1969
 6697W        W22591  17.349   8.074   3.874 -0.1485 -0.0273  0.2185
 6698W        W22592   4.789  15.444   1.029  0.1653 -0.1517  0.2340
 6699W        W22593  13.440  13.471  14.717  0.2725  0.4900 -0.3582
 6700W        W22594  16.117   9.444  13.248  0.4335  0.0038 -0.2861
 6701W        W22595   5.375  10.984   3.907  0.0933 -0.2456  0.1388
 6702W        W22596  13.827  17.585   4.509 -0.2217 -0.0448  0.0541
 6703W        W22597   6.909   5.525  11.885  0.0585  0.0188  0.0810
 6704W        W22598  14.700  11.978  11.982  0.0197  0.0283  0.0798
 6705W        W22599   6.210   1.415   2.663  0.0952  0.3442 -0.0445
 6706W        W22600   3.439   4.231  10.041 -0.0195  0.4794  0.2695
 6707W        W22601  15.997  10.215   1.081  0.2482  0.2626  0.0283
 6708W        W22602   3.276  18.734   2.231  0.2329  0.0749  0.0145
 6709W        W22603  16.031  18.217  12.488  0.0031  0.1986  0.2968
 6710W        W22604   1.915   6.062   4.755  0.1074  0.1408 -0.2275
 6711W        W22605   3.773   1.901   4.170 -0.0798 -0.1734  0.0340
 6712W        W22606   3.709   0.286   0.657 -0.0080 -0.0857 -0.1207
 6713W        W22607  10.700  11.969   1.522 -0.1704  0.2212  0.2504
 6714W        W22608  15.229   2.085   2.211  0.1216 -0.2878 -0.1370
 6715W        W22609  12.970  18.199   2.609 -0.0149  0.0665  0.3506
 6716W        W22610  12.366  12.748   1.267 -0.0554  0.1994 -0.2025
 6717W        W22611   5.826   4.118   4.387 -0.1839  0.3076  0.0557
 6718W        W22612   0.174  13.911  14.773  0.5123 -0.2195 -0.1571
 6719W        W22613   6.281   1.261   3.156  0.1995 -0.2728  0.0400
 6720W        W22614  12.377   1.728   1.624  0.1469  0.0271 -0.2057
 6721W        W22615   8.236   7.213  12.991  0.1692 -0.1583 -0.0056
 6722W        W22616  18.157   0.137  10.639  0.1788 -0.3726  0.0173
 6723W        W22617   9.598  18.210   1.376  0.1349  0.0176  0.0825
 6724W        W22618   8.195  15.507  14.686 -0.1173 -0.0252 -0.1562
 6725W        W22619   5.927  15.958  12.122 -0.2142  0.1139 -0.3493
 6726W        W22620  14.705   2.650   3.511  0.1508 -0.3899  0.0511
 6727W        W22621  16.317  13.492  14.273 -0.1054 -0.0120 -0.0625
 6728W        W22622   6.916  10.349   0.093  0.0248  0.0090  0.1511
 6729W        W22623  12.550  16.431   9.212  0.1459  0.0413  0.1113
 6730W        W22624  11.003   7.426   1.451  0.0735 -0.2069  0.0918
 6731W        W22625  15.171  16.638   1.887 -0.0916 -0.0214 -0.4227
 6732W        W22626  11.217   2.918   4.947  0.1586 -0.0087  0.0216
 6733W        W22627   6.664   9.206  14.114 -0.3976  0.0821  0.3588
 6734W        W22628   5.845   9.700   4.004 -0.2067 -0.0230  0.0050
 6735W        W22629   5.618   0.087   2.586 -0.0560 -0.1046 -0.1038
 6736W        W22630   0.493  18.226  10.869 -0.3253 -0.0338  0.2471
 6737W        W22631   6.094   6.102   3.199 -0.0718  0.1608 -0.2295
 6738W        W22632   6.152   4.712   0.389  0.3446 -0.0839  0.1859
 6739W        W22633   5.583  16.592   0.256 -0.1287 -0.1269 -0.3249
 6740W        W22634   8.178  16.539   1.629  0.2481 -0.2362  0.0742
 6741W        W22635   0.136   2.032   3.260 -0.2685  0.1940 -0.0514
 6742W        W22636  17.225  11.677  11.579  0.1494 -0.1332 -0.3967
 6743W        W22637   7.719  16.187  11.837  0.1605 -0.1747 -0.2269
 6744W        W22638   4.568  17.529  10.695 -0.0534  0.1230 -0.1568
 6745W        W22639   9.499   2.097   2.239 -0.2015  0.0034 -0.2610
 6746W        W22640  19.221  14.520  12.201 -0.0378 -0.2574 -0.2726
 6747W        W22641   8.878  16.713   1.490 -0.0939  0.2297  0.3992
 6748W        W22642  10.189  14.682   1.928 -0.1455 -0.0102 -0.0654
 6749W        W22643  16.538   5.807  10.984  0.3660 -0.0011 -0.1161
 6750W        W22644  14.169   7.833   6.180 -0.0524 -0.2956  0.2126
 6751W        W22645  16.332   4.033  12.281  0.0253 -0.0906  0.3696
 6752W        W22646  10.728  17.043   4.392  0.1453  0.1460  0.0319
 6753W        W22647   7.170  11.909   4.732  0.0875 -0.3240  0.0069
 6754W        W22648  17.091   7.398   4.740 -0.1168  0.0580 -0.0766
 6755W        W22649   7.307  14.584   1.157  0.0045  0.2715  0.2834
 6756W        W22650   4.298   0.867  11.985  0.3366  0.1638 -0.0237
 6757W        W22651   6.115  10.556   2.691 -0.1892 -0.1138 -0.0385
 6758W        W22652  15.655  11.467   2.958  0.1834  0.2490 -0.0355
 6759W        W22653   5.998   4.743   2.277 -0.1194 -0.0516  0.4384
 6760W        W22654  15.415  10.878   1.554  0.2404 -0.2156  0.2634
 6761W        W22655   8.573  17.058   3.762 -0.2267 -0.1004  0.2267
 6762W        W22656   7.156  11.286  13.120 -0.0312 -0.1719  0.2207
 6763W        W22657  19.203   8.610  14.925 -0.0712  0.1246  0.0952
 6764W        W22658   7.266  16.682  13.332  0.1103 -0.1776 -0.0763
 6765W        W22659  10.519  13.988   2.449 -0.1030 -0.0536 -0.1304
 6766W        W22660  11.614  17.001  10.908  0.0677  0.3740  0.0996
 6767W        W22661  16.023   9.879  14.796  0.1023 -0.1961  0.1657
 6768W        W22662   1.989  14.729  14.602  0.1664 -0.2574  0.0438
 6769W        W22663   0.239   2.374  13.588  0.0380  0.0681  0.1495
 6770W        W22664   5.899   3.882   0.142 -0.2880  0.0306 -0.0879
 6771W        W22665  11.772  14.782  12.377  0.1645  0.0065  0.0358
 6772W        W22666  18.521   4.879   5.062 -0.1719  0.0666 -0.2138
 6773W        W22667  15.828  13.230   3.727 -0.2284 -0.1626 -0.4102
 6774W        W22668   2.048   1.065  11.394 -0.1665  0.1206  0.0471
 6775W        W22669   2.389   7.458  12.237 -0.0157 -0.2341 -0.0832
 6776W        W22670  14.167  18.186  10.754  0.0036  0.0640  0.1609
 6777W        W22671  18.853  18.072   1.620 -0.0975 -0.3659 -0.1217
 6778W        W22672   9.119  18.790   3.007  0.2381 -0.1200  0.2450
 6779W        W22673  13.048   9.524  14.915  0.2254 -0.0529  0.3347
 6780W        W22674  17.621  13.822   4.895  0.0677  0.1878  0.1460
 6781W        W22675  12.958   4.337   4.217 -0.3358 -0.1164 -0.0643
 6782W        W22676   8.918   6.956   5.760 -0.0835 -0.0942  0.0489
 6783W        W22677  15.535   7.249   0.514  0.0374  0.1326  0.0864
 6784W        W22678   8.906  17.665  14.838 -0.1628  0.0156 -0.0119
 6785W        W22679   9.349  16.796  11.416 -0.0294  0.4067 -0.0537
 6786W        W22680   4.224  15.501  12.356  0.2316 -0.0229  0.0357
 6787W        W22681   8.079   0.291  15.079 -0.0234 -0.1548  0.3125
 6788W        W22682   9.887   6.069   3.150 -0.2858  0.2927  0.1700
 6789W        W22683  16.751  12.079  13.918  0.2037 -0.0243 -0.4813
 6790W        W22684  11.329   2.270   1.158 -0.1259  0.2909 -0.1679
 6791W        W22685   1.330   9.405   2.571 -0.0099  0.0207  0.3149
 6792W        W22686   9.847  18.163   0.968 -0.0536  0.2797 -0.1355
 6793W        W22687  15.665  15.086   3.399 -0.0349 -0.1004 -0.0003
 6794W        W22688   1.825  11.367   0.370 -0.1730 -0.0200  0.0992
 6795W        W22689  14.678  10.601   1.126 -0.1472 -0.0658 -0.0046
 6796W        W22690   4.966  18.859   4.468  0.0355  0.2880  0.2852
 6797W        W22691  13.785   2.216   1.597  0.0584  0.2733  0.0771
 6798W        W22692  11.740   4.589  10.750  0.1226  0.1906 -0.2685
 6799W        W22693  17.715   9.348   0.414 -0.0026  0.1892  0.3964
 6800W        W22694  12.674  14.583  14.163  0.0553 -0.1637  0.1699
 6801W        W22695  17.887   7.929   2.439  0.0386  0.3365  0.0353
 6802W        W22696   0.245  17.498   1.810 -0.1845 -0.1684  0.0481
 6803W        W22697  16.498  13.176  12.584  0.1976  0.0601  0.1455
 6804W        W22698   3.822   9.418   1.683  0.4581  0.0305  0.2748
 6805W        W22699  18.094  12.596   1.624 -0.1166  0.0119 -0.3211
 6806W        W22700   8.085  10.720   4.212 -0.2729  0.0485 -0.0247
 6807W        W22701   9.333  14.674  11.367  0.1381  0.2930 -0.2854
 6808W        W22702  13.634  16.967  12.457  0.3644 -0.0199  0.3196
 6809W        W22703   5.844  18.165   5.498  0.2835  0.1319  0.3190
 6810W        W22704   4.095  18.652   3.118  0.2511  0.2396  0.2153
 6811W        W22705  11.139  18.721  13.743 -0.1086  0.1985 -0.0323
 6812W        W22706   9.931  12.960  13.287  0.0012  0.0778  0.1931
 6813W        W22707   9.515   8.300   3.269  0.2122 -0.1313  0.3654
 6814W        W22708  14.896   0.064  12.771 -0.3013  0.0105  0.4149
 6815W        W22709   0.272   2.605  12.200 -0.1678  0.2039 -0.4075
 6816W        W22710  11.958  12.484   3.955  0.1991 -0.5064 -0.2305
 6817W        W22711   7.518   7.643   2.813 -0.1517  0.1266  0.1001
 6818W        W22712   0.418   1.904  14.445  0.1748  0.0144  0.1331
 6819W        W22713  10.622  16.842  11.792 -0.0100 -0.3545  0.0807
 6820W        W22714  13.496  19.042   1.479 -0.1471 -0.4498 -0.4151
 6821W        W22715   8.289   9.933  13.758  0.6947  0.0823  0.0031
 6822W        W22716   2.188  15.594  13.032 -0.1523 -0.1042 -0.1163
 6823W        W22717   0.681  11.974   0.919 -0.0190  0.4487  0.2227
 6824W        W22718   5.100   4.628  14.427  0.2630 -0.0193 -0.0823
 6825W        W22719   7.485   2.574   4.397 -0.4041 -0.3515 -0.0886
 6826W        W22720   0.810  10.103  13.474 -0.1632  0.0898 -0.0691
 6827W        W22721   9.273   0.790   1.382 -0.3070  0.3086  0.1962
 6828W        W22722  12.291  10.466   5.777  0.0669 -0.1422  0.3293
 6829W        W22723   5.487  17.014  13.754  0.3375 -0.1408  0.2211
 6830W        W22724   7.041   6.589  13.468  0.1899 -0.0842 -0.2027
 6831W        W22725   4.738  10.645   4.422 -0.0694  0.0352 -0.0931
 6832W        W22726  13.549  18.599   8.872  0.0284 -0.0663  0.0436
 6833W        W22727   8.996   8.340  12.398 -0.1162  0.1865 -0.0442
 6834W        W22728  15.087   3.461  14.676  0.3137 -0.0306 -0.3381
 6835W        W22729  10.528   1.181  13.798 -0.2782  0.4117  0.4025
 6836W        W22730   2.021   4.577  11.887 -0.0844  0.3110 -0.2115
 6837W        W22731   5.147   0.849   1.700 -0.2158  0.1589 -0.0306
 6838W        W22732   3.819   5.633   3.773 -0.3678  0.1109  0.1691
 6839W        W22733   7.705   0.548   3.016 -0.0775  0.3358 -0.0954
 6840W        W22734  14.318  15.620  14.566 -0.1254 -0.0258 -0.3198
 6841W        W22735   1.699   1.993   2.394  0.1427 -0.1564  0.2772
 6842W        W22736   6.029   3.037  10.616  0.0837 -0.1490  0.0460
 6843W        W22737   6.355  16.559  13.119  0.2698 -0.0027 -0.1989
 6844W        W22738  15.292   4.859  13.846 -0.0218  0.0443 -0.0345
 6845W        W22739   3.575   4.599   2.688  0.0601  0.2793 -0.0320
 6846W        W22740   3.821   0.633   1.244  0.0821  0.2596 -0.1086
 6847W        W22741   3.554   1.679   0.394 -0.0534 -0.0206  0.0971
 6848W        W22742   9.779   4.119   5.044 -0.3451  0.0054 -0.2529
 6849W        W22743   9.936  12.438   2.358 -0.3765 -0.2346  0.0431
 6850W        W22744   9.432   0.283  14.272  0.0361  0.0119 -0.2943
 6851W        W22745  17.276   2.424   0.237 -0.2786  0.3606 -0.0744
 6852W        W22746   2.713   0.035  10.794  0.3172  0.0039 -0.2299
 6853W        W22747  18.817   9.357  13.515  0.2421  0.1749 -0.0799
 6854W        W22748   5.474   8.119  10.955 -0.0974 -0.2486  0.0478
 6855W        W22749  15.742  12.257  13.343 -0.0874  0.0486  0.4302
 6856W        W22750  13.681  14.693  14.453  0.1827 -0.0776 -0.5175
 6857W        W22751  12.455  13.760  14.172 -0.2709  0.2185  0.0441
 6858W        W22752   9.554   4.230   1.857 -0.0258 -0.0022  0.3028
 6859W        W22753  15.465  12.569  11.303 -0.0164  0.4961  0.2086
 6860W        W22754   7.781   9.103  13.420  0.1083 -0.0022  0.1505
 6861W        W22755  18.085   3.296  13.532 -0.1223  0.0978  0.0799
 6862W        W22756   5.364  11.643   1.696  0.4182 -0.1679 -0.2616
 6863W        W22757  18.631   8.765   1.459 -0.0229 -0.2071 -0.5125
 6864W        W22758   9.372  13.762  14.402  0.0345 -0.1917 -0.1004
 6865W        W22759  19.004  14.087  13.412  0.0695  0.1900 -0.0445
 6866W        W22760   7.045   2.756  13.015 -0.0931 -0.0941 -0.0866
 6867W        W22761  11.146  10.592   0.850 -0.1904 -0.0865  0.2417
 6868W        W22762  11.597   7.045  13.109 -0.2496  0.1564  0.2748
 6869W        W22763   1.465   1.009   4.718 -0.1531  0.2720  0.1395
 6870W        W22764   4.180  14.660  14.388 -0.3296 -0.1673 -0.1547
 6871W        W22765   3.325   9.374   3.264  0.0168  0.0248 -0.1808
 6872W        W22766  17.317  18.757  11.275  0.1654  0.0024  0.0577
 6873W        W22767  13.534   5.602   2.460 -0.0962  0.0330  0.0392
 6874W        W22768   9.709   7.879  10.746  0.2370  0.2786 -0.2441
 6875W        W22769   1.729   8.883   3.569 -0.3148  0.1453  0.2053
 6876W        W22770   4.373   5.504   0.929 -0.2385  0.0624 -0.1608
 6877W        W22771   9.910  13.777  12.729 -0.1259 -0.3644  0.2766
 6878W        W22772  17.177  13.601   4.063 -0.0411  0.1481 -0.3060
 6879W        W22773   5.517   8.242   1.489 -0.0778  0.0803 -0.1245
 6880W        W22774  11.315   2.873  12.203  0.0732  0.0147 -0.3034
 6881W        W22775   2.508   3.379  14.367 -0.4456 -0.0891 -0.2622
 6882W        W22776   4.455   1.473  13.996  0.0553  0.0583  0.0400
 6883W        W22777  14.835  18.105   2.115  0.0328  0.2562 -0.1091
 6884W        W22778  18.777   6.620  11.242  0.0368  0.0834 -0.0350
 6885W        W22779   1.197  15.268  12.122  0.2134 -0.0082 -0.1935
 6886W        W22780   3.146   7.022   4.444  0.0818  0.0653 -0.1288
 6887W        W22781  14.684  17.649  11.070 -0.1665 -0.0201  0.1391
 6888W        W22782  11.423   9.066  14.495  0.0363  0.1659  0.2638
 6889W        W22783   3.231   3.836   0.595  0.3301  0.2325  0.2733
 6890W        W22784   9.694  10.271   4.139 -0.2162  0.0945  0.1661
 6891W        W22785  15.098   9.402  13.921  0.2519 -0.1395 -0.3404
 6892W        W22786   2.029  13.152  14.950  0.2123 -0.0590  0.1418
 6893W        W22787   9.256   6.796   0.863 -0.0073  0.1004  0.1811
 6894W        W22788   0.877  12.510  14.026 -0.1794  0.0507  0.1851
 6895W        W22789   8.132  13.631  14.850  0.3126 -0.1552 -0.0695
 6896W        W22790  12.049  11.715   3.755  0.1740 -0.3183  0.1472
 6897W        W22791   4.513   8.995   2.593 -0.0355 -0.3479  0.1407
 6898W        W22792  11.156   2.431  10.585  0.1439  0.0237  0.0280
 6899W        W22793   2.281   9.861  14.250  0.0008  0.1533 -0.3264
 6900W        W22794   3.230   7.218   0.192  0.0779 -0.0523  0.1467
 6901W        W22795   7.461   0.655   2.611 -0.0607  0.1898 -0.1533
 6902W        W22796  13.062   7.145   3.501  0.0901 -0.3273  0.2481
 6903W        W22797  15.054   7.967  11.112  0.0249 -0.0335  0.1509
 6904W        W22798  17.828   5.528  12.979 -0.1598 -0.1634  0.2053
 6905W        W22799  17.341  13.854  11.862  0.4034  0.0312 -0.4569
 6906W        W22800  16.712  17.420  12.092  0.3996 -0.0507 -0.1968
 6907W        W22801   8.741  17.389   1.838 -0.2282 -0.3576 -0.2462
 6908W        W22802   2.212  12.157   4.985  0.0887  0.0593 -0.0738
 6909W        W22803  10.952  18.734   3.226 -0.0522  0.4946  0.1834
 6910W        W22804   6.967   0.461   9.552  0.3256 -0.2141  0.1474
 6911W        W22805  15.939   3.031  14.247 -0.2794  0.0499 -0.1287
 6912W        W22806   5.270  12.739  12.911  0.0601  0.1683  0.0428
 6913W        W22807   7.032  16.434  12.212  0.1462  0.1531  0.1438
 6914W        W22808  10.735   2.806  14.561  0.1161 -0.0865 -0.2174
 6915W        W22809  15.182   8.935  13.901  0.0732  0.1069  0.2319
 6916W        W22810  10.638   3.554   4.505  0.0463  0.1025 -0.0280
 6917W        W22811  19.086   1.690   0.450 -0.5224  0.0262  0.1592
 6918W        W22812  14.322  12.595   3.743 -0.0968 -0.2352 -0.0063
 6919W        W22813   7.756  18.951   2.817  0.0187 -0.2804  0.1474
 6920W        W22814  11.690  16.317   2.739  0.2427 -0.4127  0.2883
 6921W        W22815   2.985  16.945   3.732 -0.0882 -0.0570  0.1828
 6922W        W22816  12.182  12.721  13.231 -0.3061  0.0364 -0.2281
 6923W        W22817  12.261   8.515  13.436  0.0158 -0.0266  0.1220
 6924W        W22818  17.424   3.936   1.889  0.0374 -0.2387 -0.2503
 6925W        W22819   6.713   0.675  14.837 -0.2319  0.0168  0.0596
 6926W        W22820  12.802   2.915  12.075 -0.0522  0.2246  0.4092
 6927W        W22821  16.902  14.155   4.782 -0.0166  0.0263 -0.5146
 6928W        W22822  10.734   6.017   1.605 -0.1093  0.3222  0.1415
 6929W        W22823  11.371   7.945  10.527 -0.3186 -0.2580 -0.2235
 6930W        W22824  16.072  14.979  11.882 -0.4227 -0.2930 -0.3104
 6931W        W22825   6.189  12.932   0.370 -0.1400 -0.1164  0.2409
 6932W        W22826   2.412   4.565   5.197  0.2439 -0.0099  0.0082
 6933W        W22827   5.876  18.476  12.044 -0.1832  0.4836 -0.0871
 6934W        W22828   6.446  19.115   1.542  0.0477  0.1146  0.0028
 6935W        W22829  10.809  19.084   0.335  0.0792 -0.0682 -0.0098
 6936W        W22830  10.091   3.759   0.424 -0.0394  0.0285 -0.1644
 6937W        W22831   2.490  11.448  11.147 -0.7735 -0.1177  0.1392
 6938W        W22832  11.995   7.402  13.474  0.2440  0.0801  0.2153
 6939W        W22833   6.362  11.219   0.301 -0.2910 -0.1104 -0.1735
 6940W        W22834  11.896   4.394   1.704  0.1347 -0.1039  0.1486
 6941W        W22835   3.541   4.733   3.436  0.1542 -0.0484  0.4153
 6942W        W22836  13.188   3.039   9.822  0.3211 -0.2440 -0.3442
 6943W        W22837   2.613  16.768  12.763  0.2225 -0.1385  0.1275
 6944W        W22838  17.442   5.350  13.198 -0.1608 -0.1698  0.2559
 6945W        W22839   9.926   8.502  10.621  0.0349 -0.0205 -0.1991
 6946W        W22840  17.468  16.609  10.057  0.1820 -0.0302  0.2578
 6947W        W22841   3.747  11.908  14.859  0.3274  0.0124  0.3720
 6948W        W22842  17.666   3.670   3.019 -0.0950  0.0140  0.2744
 6949W        W22843  16.073   6.673   5.322 -0.1615 -0.1722 -0.3325
 6950W        W22844   1.918  17.485   2.062 -0.0684  0.1662  0.1053
 6951W        W22845   0.575  12.132   5.566  0.2383  0.3105 -0.1787
 6952W        W22846   6.159  18.800   2.060  0.0419  0.2292 -0.0059
 6953W        W22847   5.279  17.474  14.566 -0.1300 -0.0550  0.0356
 6954W        W22848   3.188  14.949   3.857 -0.3763 -0.0688 -0.1336
 6955W        W22849  15.672   5.630  11.085  0.0132 -0.0588  0.3515
 6956W        W22850  16.151  17.883  11.606 -0.1159 -0.0756  0.0361
 6957W        W22851  11.457  15.314  11.036  0.4377  0.3039 -0.4124
 6958W        W22852   0.234   9.033   2.543  0.0385 -0.0598 -0.0564
 6959W        W22853   8.579  16.904   1.868  0.1037 -0.1115 -0.0068
 6960W        W22854   4.035   9.528  12.632 -0.0311  0.1616  0.0756
 6961W        W22855  17.014   9.034   4.151 -0.1647  0.0587 -0.2471
 6962W        W22856  14.166  15.953   1.377 -0.1156  0.1489  0.1556
 6963W        W22857   0.810  13.231   2.017 -0.0539  0.4592  0.4335
 6964W        W22858  15.267  18.129   1.315  0.3335  0.1606  0.1475
 6965W        W22859  12.677  17.255  10.862 -0.2567  0.1209 -0.1212
 6966W        W22860   2.598   9.887  12.210 -0.1247 -0.0225 -0.0436
 6967W        W22861  18.966  18.179  10.242 -0.0698  0.6133 -0.0182
 6968W        W22862  13.240  18.743  11.823  0.2911 -0.0437 -0.4701
 6969W        W22863   0.156   7.383  11.053 -0.0647  0.1986  0.3986
 6970W        W22864  15.026  14.633  12.752 -0.2680  0.0112  0.2408
 6971W        W22865  12.416   7.589  14.630 -0.4081 -0.1046  0.3868
 6972W        W22866   4.632   0.569  12.221 -0.0396 -0.1660  0.0791
 6973W        W22867  12.665  18.842   3.949  0.0720 -0.0204 -0.0365
 6974W        W22868  13.042  17.724   0.125 -0.2256  0.0929  0.0188
 6975W        W22869   6.925   3.790  11.757 -0.1505 -0.2754 -0.0516
 6976W        W22870   6.751   8.610  13.244  0.1239  0.2443 -0.3086
 6977W        W22871   9.031   9.876  10.812 -0.0109 -0.1320 -0.3880
 6978W        W22872  14.496   5.040  14.371 -0.1577 -0.0153 -0.0131
 6979W        W22873   4.004  16.329  12.155  0.2660 -0.0574  0.1057
 6980W        W22874  13.921  16.087  12.739 -0.1984  0.0985 -0.0535
 6981W        W22875   4.416   3.045   0.031 -0.1134  0.0083 -0.3824
 6982W        W22876   0.066   1.712   3.658  0.0194 -0.2480 -0.1015
 6983W        W22877   6.092  13.067   9.530  0.2395  0.0641  0.0838
 6984W        W22878  11.407   3.707  11.899 -0.2283 -0.3864 -0.2034
 6985W        W22879  12.040  13.242  11.007  0.0682  0.1409 -0.3587
 6986W        W22880  13.692  18.576  14.465 -0.1028 -0.2603 -0.0770
 6987W        W22881  16.209  12.224  13.109 -0.1552  0.0531  0.1597
 6988W        W22882   1.223  16.577  11.422  0.1133  0.2498  0.0569
 6989W        W22883   2.155  17.929   2.020  0.2499 -0.2405  0.0432
 6990W        W22884  12.745  15.829   2.620 -0.0195 -0.1297  0.3168
 6991W        W22885   1.666   0.325  12.097 -0.0263 -0.1410 -0.1149
 6992W        W22886  15.409   5.032   3.675  0.0363  0.2607  0.2029
 6993W        W22887  18.866   2.025   3.776 -0.1123 -0.3356 -0.1191
 6994W        W22888   7.871  19.080   4.289  0.1659  0.4827  0.2734
 6995W        W22889   3.530   0.788   4.165  0.2252  0.0238  0.1773
 6996W        W22890   7.378   1.740   1.965 -0.0258  0.4553  0.2272
 6997W        W22891  11.994   0.764   4.281  0.0514  0.0163 -0.2850
 6998W        W22892  12.324   5.295  14.769 -0.4956  0.0620 -0.0210
 6999W        W22893  16.067   2.537   5.220 -0.1167  0.1850 -0.1011
 7000W        W22894  13.144   8.043  12.609  0.0980 -0.3108  0.1031
 7001W        W22895   1.895  11.137  12.952 -0.4787  0.3295  0.2642
 7002W        W22896   2.470  14.481  14.510 -0.2420 -0.0559 -0.2101
 7003W        W22897   3.145   1.146   4.131  0.0802 -0.2503 -0.3025
 7004W        W22898  16.077   3.753   4.997 -0.0050  0.0755  0.1933
 7005W        W22899  12.213   5.763   3.658  0.0301  0.5155  0.1184
 7006W        W22900  14.313   8.035   1.525  0.2756  0.1302 -0.0410
 7007W        W22901  16.977   2.911   0.927  0.0413  0.1681 -0.2836
 7008W        W22902  11.252   8.581  10.910  0.1501  0.0533 -0.0713
 7009W        W22903   5.823  13.952   1.217  0.0056 -0.1853  0.2533
 7010W        W22904   6.991   0.108  11.801  0.0197 -0.1519 -0.0620
 7011W        W22905  13.629   1.718  10.650  0.0394  0.2403  0.0233
 7012W        W22906   7.358   7.209   1.618 -0.0949  0.0322  0.2653
 7013W        W22907   9.578   3.037   2.112 -0.3384 -0.1438  0.1972
 7014W        W22908   0.356  18.509  14.137 -0.1388  0.0147 -0.0100
 7015W        W22909  18.382   5.530  12.918  0.3636  0.0464 -0.1579
 7016W        W22910   3.267  13.145  14.815  0.1546 -0.0798  0.2804
 7017W        W22911  18.778  13.751  10.629 -0.2325  0.3045 -0.2179
 7018W        W22912  10.494  16.553   2.914 -0.1063  0.0688  0.1108
 7019W        W22913  10.131  12.891  10.668  0.0794 -0.0741  0.1213
 7020W        W22914   8.485   9.145  12.309  0.0233 -0.0282 -0.1400
 7021W        W22915  12.325  12.570   4.339  0.0292 -0.1323 -0.4772
 7022W        W22916   4.394   3.932  14.717 -0.0781  0.2069 -0.2357
 7023W        W22917  17.225   3.006  13.767 -0.2765  0.1559 -0.1552
 7024W        W22918  13.391   4.896   1.680  0.0051  0.1026 -0.0534
 7025W        W22919  13.164  18.985   2.103 -0.1391  0.0878 -0.1099
 7026W        W22920   4.484   3.474  14.965 -0.1541 -0.0462  0.0095
 7027W        W22921  13.397   6.493   2.787  0.3565  0.1830 -0.2869
 7028W        W22922  14.962   2.663  14.156 -0.0174 -0.0264  0.1104
 7029W        W22923   2.196  18.701   0.289 -0.1084  0.1860 -0.1875
 7030W        W22924  11.337  17.340   2.184  0.2868  0.0084  0.1020
 7031W        W22925   1.031   0.521   0.683 -0.0268  0.0551  0.1960
 7032W        W22926  17.717  13.965   4.135 -0.0994 -0.0822  0.0802
 7033W        W22927   1.170  15.969  11.730 -0.2226  0.1208 -0.2404
 7034W        W22928   2.309   7.220   4.213  0.2412  0.0989  0.1530
 7035W        W22929   2.598   0.296  11.247  0.1464 -0.0133  0.2610
 7036W        W22930   0.533  10.143   0.458 -0.0473  0.0390 -0.0964
 7037W        W22931  16.255   9.966  13.033  0.1405  0.0681  0.5256
 7038W        W22932  10.876  14.472  11.747 -0.2165 -0.1032  0.0023
 7039W        W22933  16.257   2.951   1.554 -0.2904 -0.1055 -0.1309
 7040W        W22934   3.266  18.453  12.126 -0.3720  0.0193  0.0292
 7041W        W22935  13.569   0.759  10.277  0.3009  0.3103 -0.2248
 7042W        W22936  14.312   2.667   9.512 -0.4227 -0.1499  0.2496
 7043W        W22937  18.710  12.288   2.681 -0.0096  0.0205 -0.0717
 7044W        W22938  18.390   2.000  12.507 -0.1735  0.1209  0.1426
 7045W        W22939  12.188  17.374  14.871  0.0873 -0.2090  0.2662
 7046W        W22940   2.051  15.495  13.949 -0.0631  0.1273  0.1776
 7047W        W22941  17.447  12.497   4.095  0.2239 -0.4724  0.0048
 7048W        W22942  14.084  17.670   0.315  0.0327 -0.1490 -0.4359
 7049W        W22943   9.272  11.862   0.332  0.2475 -0.2759  0.0428
 7050W        W22944  15.370  13.223  12.455  0.1457  0.2108  0.2456
 7051W        W22945  19.026   7.743   4.171 -0.0631  0.0047 -0.0008
 7052W        W22946  12.670  18.889   1.922  0.0048  0.1437 -0.0334
 7053W        W22947   2.781   4.909  12.049  0.1043  0.1049  0.1785
 7054W        W22948   1.263  17.483  13.224  0.0497  0.0735  0.3942
 7055W        W22949   6.801  13.379   3.483  0.0307  0.0521  0.0916
 7056W        W22950  13.390  17.506  11.003 -0.1403  0.0775 -0.2394
 7057W        W22951  10.895   1.850  14.907 -0.3567 -0.1422  0.0151
 7058W        W22952   4.965  14.864  12.600 -0.0341 -0.0300 -0.0135
 7059W        W22953  12.272   0.601   5.532 -0.0817 -0.0627  0.2260
 7060W        W22954   6.728  13.022  10.675 -0.1732  0.2179  0.0233
 7061W        W22955   7.165   3.263  13.000 -0.0395 -0.0463  0.1576
 7062W        W22956  13.502   6.917  12.286  0.0674  0.2387  0.0473
 7063W        W22957   3.034   0.890   0.616 -0.1153 -0.2442  0.0267
 7064W        W22958   1.178  13.613   1.992  0.1556 -0.1482  0.0619
 7065W        W22959  16.171   3.381   2.817 -0.1554 -0.0721 -0.3843
 7066W        W22960  16.986  18.360  10.296 -0.2454 -0.4268  0.3830
 7067W        W22961  14.133  15.942  11.208 -0.0596 -0.0300  0.3936
 7068W        W22962  14.034  12.397   4.362  0.2126 -0.3148 -0.1973
 7069W        W22963  17.218   1.831  11.243  0.2460 -0.1879  0.1257
 7070W        W22964   3.683  17.991   1.778 -0.1960  0.0559  0.0350
 7071W        W22965  14.328  10.806   4.456 -0.0523 -0.1934 -0.1944
 7072W        W22966  13.304  13.919  14.993  0.2066 -0.0892 -0.2864
 7073W        W22967  18.503   9.890   3.464  0.0757  0.1238  0.2418
 7074W        W22968  17.999   1.969   4.389  0.1476 -0.5857  0.1280
 7075W        W22969   2.159  17.520   4.418  0.0385 -0.0400  0.4102
 7076W        W22970   8.495   9.031   3.725 -0.1094  0.0379  0.1120
 7077W        W22971   5.392   9.706  12.044  0.3096  0.1165 -0.1352
 7078W        W22972  18.902   1.859  13.324  0.1378 -0.3137  0.0462
 7079W        W22973   8.571   8.645   1.003 -0.0057 -0.0972 -0.3052
 7080W        W22974  10.302   9.963  14.385 -0.1879  0.1129  0.1467
 7081W        W22975  17.057  16.695  13.269 -0.0389  0.1660  0.0814
 7082W        W22976   9.550  11.051   2.633  0.1355  0.0669  0.5931
 7083W        W22977   9.396  10.579  13.703  0.2092 -0.3376 -0.1422
 7084W        W22978   3.539   7.074   1.635 -0.3983  0.0314 -0.2828
 7085W        W22979   6.482   2.386  13.312  0.2255  0.1491 -0.0645
 7086W        W22980  11.346  16.247   4.423 -0.2376 -0.0016 -0.3425
 7087W        W22981   1.119  10.651  12.815 -0.5533 -0.1691 -0.0552
 7088W        W22982  16.237  10.873   0.335  0.2503  0.0474 -0.0850
 7089W        W22983  14.783  13.979   1.902 -0.1805 -0.1839 -0.0237
 7090W        W22984   9.793   9.757   0.203 -0.0468 -0.0675 -0.2027
 7091W        W22985   1.684   9.700   1.088 -0.3566 -0.0584 -0.1221
 7092W        W22986   2.449  18.244   1.812 -0.3546 -0.0857  0.1148
 7093W        W22987   6.301   7.577  10.839 -0.0281 -0.5451  0.2520
 7094W        W22988  14.453   7.650   3.900  0.0472  0.2796 -0.2957
 7095W        W22989   9.852   3.686   4.828 -0.0805  0.2631 -0.3986
 7096W        W22990  12.881   8.465  12.624 -0.0065 -0.3222 -0.4075
 7097W        W22991   6.117   5.354   4.264 -0.1985  0.1282  0.0848
 7098W        W22992  13.507   9.068  12.748 -0.2338  0.0384 -0.2255
 7099W        W22993  13.344  14.954   1.363 -0.3474 -0.1730 -0.0524
 7100W        W22994  17.257  13.136   3.618  0.0466 -0.0708 -0.3213
 7101W        W22995   7.332  15.487   2.024  0.3137  0.1459  0.0713
 7102W        W22996   6.843   2.375  14.417  0.0451  0.3307  0.3142
 7103W        W22997   8.871   7.091  12.363  0.2188  0.0612  0.0586
 7104W        W22998   0.598   5.330   4.305 -0.1624 -0.1458 -0.0896
 7105W        W22999  11.978  11.982  12.439  0.1811  0.0314 -0.2146
 7106W        W23000   4.914   5.765   3.437 -0.2786 -0.0028 -0.2275
 7107W        W23001   2.856  14.162   3.389 -0.0136  0.0522  0.1130
 7108W        W23002  13.762   0.998   0.755 -0.1687  0.0417 -0.2325
 7109W        W23003  12.737   4.220   1.375 -0.4082 -0.4149  0.0168
 7110W        W23004  13.045  19.178   4.385 -0.0174  0.1389  0.1196
 7111W        W23005   6.187   7.949  10.326  0.0453 -0.2494 -0.0688
 7112W        W23006   0.548   6.471   3.242  0.0697  0.3173  0.1193
 7113W        W23007  18.472  17.426   2.397 -0.1122 -0.4299 -0.1410
 7114W        W23008   5.776  11.078   0.145  0.0166  0.1000  0.2142
 7115W        W23009   4.390  17.697   1.585 -0.3344 -0.2859 -0.2640
 7116W        W23010   6.550   0.759   4.096 -0.2238  0.4470  0.1941
 7117W        W23011  10.900  18.504   2.758  0.0788 -0.0435  0.3242
 7118W        W23012   2.088   1.602  13.080  0.0465  0.0475  0.1047
 7119W        W23013   6.714   9.746   3.762  0.0793 -0.1162 -0.0399
 7120W        W23014  12.901  10.064   3.600  0.0061 -0.2164 -0.1450
 7121W        W23015  11.718  13.342  11.524 -0.0732 -0.0103  0.2227
 7122W        W23016   5.883   2.824   5.101  0.1528 -0.1176 -0.1201
 7123W        W23017   9.752  16.612  13.828  0.0032 -0.1990 -0.0708
 7124W        W23018   1.516  16.928  11.599  0.2376 -0.2616  0.1002
 7125W        W23019   7.404   4.917  12.742  0.1289  0.1407  0.1054
 7126W        W23020   1.241   7.406   2.916  0.1198  0.0983 -0.1056
 7127W        W23021  14.645   2.374   4.675 -0.2093  0.1607 -0.1847
 7128W        W23022   7.360  17.053  14.724 -0.0806 -0.0590 -0.1669
 7129W        W23023   2.110   2.042  13.294  0.1425 -0.2917  0.0605
 7130W        W23024  12.612  14.509  10.118  0.0078 -0.3785  0.2548
 7131W        W23025  16.636   7.066  11.423 -0.1811  0.0238  0.3310
 7132W        W23026  18.057  12.318   2.688 -0.3039 -0.0723  0.0708
 7133W        W23027   7.851   1.785  13.527 -0.1774 -0.1452 -0.1870
 7134W        W23028   2.486   8.712   3.423  0.3520  0.1168 -0.1295
 7135W        W23029   7.791   9.730   1.678  0.1796  0.6993 -0.0102
 7136W        W23030  16.191   5.295  13.812 -0.1022  0.3678 -0.1015
 7137W        W23031   3.091   9.937  11.237  0.0809 -0.2811  0.4898
 7138W        W23032  16.589   7.546   6.018 -0.0130 -0.3926 -0.3833
 7139W        W23033   0.535   1.391   4.405 -0.1447 -0.1599 -0.0068
 7140W        W23034   4.210   3.188   4.060  0.1870 -0.4610  0.1783
 7141W        W23035  18.383  12.047  14.648  0.4254 -0.2357  0.2233
 7142W        W23036  16.451   7.192  12.665 -0.1861  0.1770 -0.2989
 7143W        W23037  18.279   8.383  11.516 -0.2476  0.2274  0.0540
 7144W        W23038  16.443   6.356  12.262  0.1230 -0.0680  0.4092
 7145W        W23039  18.805   1.929   3.146 -0.1578 -0.0852  0.0906
 7146W        W23040  12.089  19.162  12.846 -0.1379  0.1850  0.2717
 7147W        W23041  11.891  11.257  12.594  0.1335 -0.0263 -0.2122
 7148W        W23042   7.827  13.052   0.510  0.0436 -0.1889 -0.3573
 7149W        W23043  12.738  16.790   0.074 -0.1319 -0.1530 -0.4499
 7150W        W23044  14.916  18.015   0.761 -0.1272  0.3067  0.0673
 7151W        W23045   5.942   4.790  13.972 -0.2441 -0.2330  0.1506
 7152W        W23046   3.818  11.503   1.053  0.2110  0.0736  0.1925
 7153W        W23047  15.467   1.753   4.676 -0.0114  0.4049 -0.1210
 7154W        W23048  16.642   0.294   3.482  0.0873 -0.0797  0.1444
 7155W        W23049   0.890  15.197  13.073 -0.2290 -0.2967 -0.3301
 7156W        W23050   7.065   7.053  11.484 -0.0509 -0.0621  0.1599
 7157W        W23051   9.639  13.627   0.087 -0.0144  0.1071 -0.1000
 7158W        W23052   1.081   4.709  11.318  0.1590  0.1301  0.1444
 7159W        W23053  17.124   7.436  13.091 -0.0311 -0.2531  0.0008
 7160W        W23054   6.299  14.605  11.491  0.1988 -0.0741 -0.2357
 7161W        W23055  17.544  18.409   2.824 -0.1011 -0.1744 -0.1091
 7162W        W23056  15.614   7.349   5.080 -0.2862 -0.1026 -0.1167
 7163W        W23057   1.324   9.450   4.778  0.5742 -0.0751 -0.0299
 7164W        W23058   2.342  17.432   2.940  0.2594  0.3454  0.0481
 7165W        W23059  18.169  16.431   1.139  0.0205 -0.2455 -0.2279
 7166W        W23060   4.585  19.216   0.661  0.3621  0.1919  0.2760
 7167W        W23061  11.867   0.289   3.379 -0.2429  0.2900 -0.1046
 7168W        W23062   2.777   0.886  13.439  0.0205 -0.0718  0.0631
 7169W        W23063   0.961  10.842   2.822  0.2141 -0.1314  0.1679
 7170W        W23064  16.176  11.454   0.543  0.1943 -0.1269 -0.1934
 7171W        W23065   2.033  13.843   1.061 -0.1656 -0.1486 -0.3913
 7172W        W23066  19.061   2.650   0.647 -0.2562 -0.0598 -0.0337
 7173W        W23067   0.144  16.401  13.678 -0.1281 -0.0817  0.1436
 7174W        W23068   5.228  17.201   1.352  0.0459  0.4997  0.1527
 7175W        W23069   2.585   1.393  11.975 -0.1706 -0.2962 -0.4229
 7176W        W23070  17.577   5.938  13.316 -0.0332  0.1909 -0.0845
 7177W        W23071   7.676  17.426   2.215 -0.0590 -0.0890  0.0979
 7178W        W23072   1.068   8.740   2.816 -0.0506  0.3025  0.0282
 7179W        W23073  12.543  13.012  13.522 -0.0792 -0.0303  0.1336
 7180W        W23074   8.281  18.646   1.076  0.2236 -0.2829  0.0096
 7181W        W23075  17.578   8.641   2.605  0.0203  0.0574 -0.0663
 7182W        W23076   8.596  14.301  13.002 -0.1233 -0.0443  0.0927
 7183W        W23077   3.384  12.113   2.467  0.1099 -0.2173 -0.0926
 7184W        W23078  15.170   7.265   4.795 -0.3033  0.1513  0.1663
 7185W        W23079   8.164   7.849  11.721  0.0409  0.1224 -0.3557
 7186W        W23080  13.428  11.693   4.418  0.1490 -0.0876  0.3006
 7187W        W23081  12.545   7.995  10.503  0.0244  0.2333 -0.0491
 7188W        W23082  18.820   6.561  14.796 -0.0787  0.0157 -0.2087
 7189W        W23083   3.141  12.232  11.277 -0.1942 -0.1045  0.1053
 7190W        W23084   8.822  15.652  15.082  0.0603 -0.0602  0.0263
 7191W        W23085   2.393  13.983  10.617  0.0194  0.3420  0.1879
 7192W        W23086  14.554   2.786  12.252 -0.3548 -0.1145 -0.3036
 7193W        W23087   8.467   7.054   2.441 -0.1543 -0.2226 -0.1748
 7194W        W23088   0.294   5.090   5.116  0.1810  0.1600  0.2015
 7195W        W23089  16.742   9.850  14.192 -0.2048 -0.1873  0.0623
 7196W        W23090   5.739  18.854  14.899  0.0533  0.0732 -0.1128
 7197W        W23091   1.326   7.927   1.109  0.1082 -0.1147 -0.1344
 7198W        W23092  17.931   0.167   5.219  0.1645 -0.4185 -0.0023
 7199W        W23093  14.464   3.122   3.715  0.2130 -0.0875  0.1702
 7200W        W23094  10.306  12.553   5.360  0.2127  0.3243 -0.0608
 7201W        W23095   1.344  15.910   5.650 -0.0427  0.1089  0.4486
 7202W        W23096   9.413  18.361   4.250  0.1445 -0.0531 -0.1130
 7203W        W23097  18.460   0.095   3.960  0.0369 -0.1292  0.5887
 7204W        W23098  10.812   0.356   3.166 -0.1199  0.0964 -0.0211
 7205W        W23099  14.006  15.241   3.640  0.0055 -0.1030 -0.1976
 7206W        W23100  15.270   3.554   2.858  0.1844  0.1637  0.2394
 7207W        W23101  12.178   1.706  10.142 -0.2783  0.1520 -0.4643
 7208W        W23102   1.324  12.720  11.470  0.1113 -0.1833 -0.0056
 7209W        W23103  12.703   0.609   2.238  0.2035  0.2935 -0.0476
 7210W        W23104   4.545   3.724  11.251 -0.1331 -0.2183 -0.2018
 7211W        W23105  16.580  16.009   2.983 -0.0368  0.0941 -0.0122
 7212W        W23106   6.799  16.904   0.236  0.0988 -0.0344  0.0936
 7213W        W23107  18.898  14.471   3.537 -0.0227  0.1614  0.0914
 7214W        W23108  11.130   7.323   0.145 -0.6094  0.2104  0.3888
 7215W        W23109  10.500  14.902  10.708 -0.2877  0.0729 -0.0584
 7216W        W23110   3.769  10.112   2.298  0.1271  0.0990  0.0211
 7217W        W23111  17.421   7.730   2.370  0.0739  0.1181  0.0348
 7218W        W23112   3.072   0.639  13.020 -0.1372 -0.0275  0.1482
 7219W        W23113   2.492   1.631  14.569  0.1877 -0.1505 -0.1042
 7220W        W23114  12.399   6.612   4.530 -0.1290  0.0693 -0.0302
 7221W        W23115  11.305   7.934  14.039  0.0004 -0.3136  0.1229
 7222W        W23116   8.760   8.082  12.691  0.0461 -0.0302  0.2630
 7223W        W23117   3.884  15.910  14.929 -0.2699  0.0540  0.1040
 7224W        W23118  17.388  19.024   3.749  0.3858  0.0562  0.1270
 7225W        W23119   7.004  12.937   3.360  0.0332  0.1732  0.1127
 7226W        W23120   1.925  11.370  14.852 -0.1450 -0.0477 -0.0640
 7227W        W23121  15.995  15.960   4.356 -0.0661  0.0553 -0.0221
 7228W        W23122  12.789   5.696  14.182  0.0768  0.1188  0.3098
 7229W        W23123  12.053  18.715  14.845  0.1360  0.0626 -0.0495
 7230W        W23124   8.594  18.646  11.067  0.0227 -0.2301 -0.0447
 7231W        W23125  19.032   7.028  11.051  0.4071  0.3267 -0.4749
 7232W        W23126   4.683  15.812  13.327  0.1423 -0.0138  0.0113
 7233W        W23127   0.289  16.911  10.471 -0.0328  0.3049  0.1258
 7234W        W23128   6.438  18.009  11.420 -0.0369  0.0321  0.0681
 7235W        W23129  11.800   3.797  13.761  0.0509  0.1430  0.1715
 7236W        W23130   5.247   3.300   1.997 -0.0430  0.0362 -0.1848
 7237W        W23131  15.839   2.074  14.307 -0.2099  0.0818 -0.2598
 7238W        W23132  17.669   7.561   5.201 -0.1013  0.0567 -0.0200
 7239W        W23133  13.640  10.280  14.720  0.2842  0.2993  0.0546
 7240W        W23134  13.609   1.411  13.413 -0.1751  0.1579 -0.1979
 7241W        W23135  17.902  14.063   2.485  0.0329 -0.0480  0.1724
 7242W        W23136  11.903   3.856  14.758  0.0801 -0.0380  0.2033
 7243W        W23137   4.218  18.108   2.144 -0.0065 -0.3765  0.2017
 7244W        W23138  17.051   2.319   9.934  0.0468 -0.2786 -0.1690
 7245W        W23139   6.982  15.908  14.347 -0.4300  0.1729 -0.0828
 7246W        W23140   6.274   2.999   4.053 -0.1398 -0.0146 -0.0351
 7247W        W23141  14.173   2.748  11.423 -0.1963  0.3459 -0.0523
 7248W        W23142  13.365   2.415  14.663  0.0306  0.3529 -0.0677
 7249W        W23143  18.232   0.982   3.685 -0.1472  0.0192  0.3118
 7250W        W23144  16.364  19.158   2.408 -0.3714 -0.2397 -0.0893
 7251W        W23145  18.777  11.692  10.126 -0.3635 -0.1402  0.1155
 7252W        W23146   7.108  17.884  12.481 -0.2830 -0.2310  0.1602
 7253W        W23147  12.111  18.328   4.693 -0.2573 -0.4148 -0.0004
 7254W        W23148   2.679   2.148   0.399 -0.1631 -0.0342 -0.4318
 7255W        W23149  15.412   1.594   2.028 -0.0468 -0.1666  0.0326
 7256W        W23150  14.778  13.331   1.998 -0.2225 -0.1169  0.0477
 7257W        W23151  13.251   1.048  14.810  0.0679 -0.3490  0.0430
 7258W        W23152  12.213   8.859  12.093 -0.0769  0.2607  0.1019
 7259W        W23153   4.368  15.794  14.663  0.1371  0.2698 -0.3700
 7260W        W23154   7.316  12.149  14.280  0.1333 -0.0431 -0.1025
 7261W        W23155  11.256  11.457   3.436  0.0346 -0.4780 -0.0657
 7262W        W23156   8.847   3.982   3.875 -0.1065  0.2038  0.0155
 7263W        W23157  17.960   7.965   5.687 -0.2606 -0.1946 -0.0336
 7264W        W23158  11.216   7.008  10.365  0.1071 -0.1104 -0.2339
 7265W        W23159  14.883   9.308   1.863  0.1198  0.0745 -0.1440
 7266W        W23160   2.738  11.209  13.348 -0.2768  0.1460 -0.0028
 7267W        W23161   1.457  16.511  14.313 -0.0024  0.1055 -0.0811
 7268W        W23162   4.202  13.414  14.375  0.0847  0.1217 -0.1079
 7269W        W23163  13.079   1.939  14.896  0.0531  0.2819 -0.1114
 7270W        W23164   7.743   6.408   3.732  0.0963 -0.6247  0.0998
 7271W        W23165   0.629   8.030  14.028 -0.1980 -0.0495  0.1812
 7272W        W23166   1.287   5.648  14.288 -0.4763  0.0398 -0.1343
 7273W        W23167  14.135  18.572  13.464 -0.0222 -0.1057  0.2215
 7274W        W23168   8.097  15.895   0.767  0.2899  0.1279  0.0495
 7275W        W23169  11.816   1.335   5.111 -0.1625  0.1284  0.1340
 7276W        W23170  17.461  12.909   3.181 -0.3523 -0.4659  0.2574
 7277W        W23171   4.579  13.018   4.808  0.1734 -0.0324  0.1913
 7278W        W23172   2.099  14.253  14.194  0.1221 -0.0553 -0.2049
 7279W        W23173   4.736   9.111   1.054  0.1154  0.0334  0.2942
 7280W        W23174   0.873   1.607  13.645  0.0664  0.3389  0.1193
 7281W        W23175  12.871   0.274  12.390 -0.0404 -0.0480 -0.2127
 7282W        W23176  12.104  15.758   4.202 -0.3769  0.2042  0.0152
 7283W        W23177  13.710  14.274  12.574  0.0640  0.0176  0.1423
 7284W        W23178  17.022  12.697  11.172  0.3228  0.3053 -0.0146
 7285W        W23179  12.606  10.162  13.386  0.0165 -0.0837 -0.3610
 7286W        W23180   4.488   1.186   0.258 -0.0152  0.2663  0.3178
 7287W        W23181  14.859  12.353  11.589 -0.2121 -0.0682  0.0173
 7288W        W23182  15.237  13.138  14.575 -0.1955  0.0144 -0.0496
 7289W        W23183  18.312   9.449   4.093  0.1309  0.0636 -0.1833
 7290W        W23184   8.296   2.729  11.833  0.2109 -0.0897  0.5258
 7291W        W23185  12.053  10.727   1.359 -0.1960  0.0102 -0.0981
 7292W        W23186  10.121  12.551   3.244 -0.0601 -0.1754  0.1560
 7293W        W23187  12.571   7.812   4.737 -0.2374 -0.3664  0.0297
 7294W        W23188  17.353   0.321   2.222  0.2208  0.3422 -0.2516
 7295W        W23189  12.090   4.829   1.801  0.1794  0.0254 -0.0659
 7296W        W23190  17.851  13.220  10.481 -0.0611 -0.1940  0.0558
 7297W        W23191   5.452  12.881   9.568 -0.3091 -0.0863 -0.0762
 7298W        W23192   8.973  15.004  13.636 -0.0670 -0.1103 -0.0680
 7299W        W23193  11.543   9.384   3.876 -0.1318 -0.2659 -0.0690
 7300W        W23194  15.423   7.372  13.374 -0.1738  0.2950  0.1923
 7301W        W23195  11.993  15.707   2.296  0.0061 -0.0461 -0.1141
 7302W        W23196  17.461   6.837  13.045  0.1501 -0.0192 -0.0370
 7303W        W23197  13.743  13.544   3.954 -0.3728 -0.0554 -0.1371
 7304W        W23198  16.074  18.821   2.577 -0.0978 -0.3870  0.1159
 7305W        W23199  15.022   9.088  10.885  0.2997  0.0030  0.2249
 7306W        W23200   3.473   6.974  14.827  0.3946  0.0596 -0.0989
 7307W        W23201   6.830  10.453  10.663  0.2899 -0.3556 -0.1166
 7308W        W23202  10.822  12.264   1.160  0.0518 -0.0163 -0.2957
 7309W        W23203   2.440  18.836   5.660  0.1158  0.1431  0.1675
 7310W        W23204   9.222   5.502  12.012 -0.1264  0.0727  0.1483
 7311W        W23205   9.508   9.294   2.634  0.3270  0.0648  0.0866
 7312W        W23206  14.972   4.210   3.435  0.0482 -0.0303  0.1870
 7313W        W23207   5.969   8.028   4.788 -0.4698  0.1758 -0.3189
 7314W        W23208  18.649  13.851  13.839  0.0222  0.5277 -0.0972
 7315W        W23209   1.114  13.447  14.419 -0.0154  0.3716 -0.1583
 7316W        W23210   6.985  12.576   0.709 -0.3088  0.0677  0.2068
 7317W        W23211  15.766  14.455   3.990 -0.0581 -0.1203  0.0451
 7318W        W23212   6.318   9.075   3.420 -0.0250  0.3323  0.0103
 7319W        W23213  17.849  17.441  14.990 -0.2483 -0.0722 -0.3698
 7320W        W23214  14.328  11.202  13.095 -0.0828 -0.2764  0.1398
 7321W        W23215  17.959  11.881   4.647 -0.1302 -0.1118  0.0021
 7322W        W23216  16.764   8.900  14.556 -0.3258 -0.3590  0.2696
 7323W        W23217  10.939   8.285  12.284 -0.0545  0.2441  0.1393
 7324W        W23218   9.915  16.961  11.601 -0.0067  0.3687  0.1368
 7325W        W23219   4.129  15.700  11.266 -0.1382  0.0434  0.0257
 7326W        W23220  17.119  12.005  10.631 -0.0281  0.1269  0.2392
 7327W        W23221   6.201  18.622   4.802 -0.2198 -0.0709 -0.2244
 7328W        W23222   4.670  11.930  14.953  0.1056 -0.0962 -0.1246
 7329W        W23223   6.882   1.938   2.324 -0.1777 -0.1505 -0.1392
 7330W        W23224   2.579   6.534   6.158  0.1481  0.1507 -0.4434
 7331W        W23225   7.223   6.881   3.404  0.0285  0.2482  0.1888
 7332W        W23226   3.731  19.078  10.775  0.3492 -0.1216 -0.3300
 7333W        W23227  15.879  13.559   1.889  0.0630 -0.2423  0.4321
 7334W        W23228  12.182   0.710  11.613  0.3721  0.3454 -0.3325
 7335W        W23229  11.379  12.597   5.085 -0.3970  0.0808  0.1036
 7336W        W23230  14.403  16.252   9.383 -0.0391 -0.1984 -0.0743
 7337W        W23231  16.072  13.248   0.027 -0.4130 -0.3400  0.1289
 7338W        W23232   4.263   7.690  14.331  0.0428  0.0437  0.0036
 7339W        W23233  18.920   1.863  11.899 -0.2322 -0.1568 -0.3033
 7340W        W23234  13.496  12.641   0.154  0.1718 -0.1182  0.2493
 7341W        W23235  11.201  15.955   0.105 -0.1694  0.2419 -0.0610
 7342W        W23236   2.157   6.267   0.243 -0.1639 -0.0928 -0.0934
 7343W        W23237   4.050  10.041  14.393  0.0193  0.1911  0.0949
 7344W        W23238   3.774   7.570   2.384 -0.0547  0.1865  0.1038
 7345W        W23239  15.378   0.638  12.121 -0.0653  0.1136  0.2580
 7346W        W23240  18.797  13.020  13.889 -0.2006 -0.0714 -0.0704
 7347W        W23241   5.743   9.449   4.506  0.0546 -0.3084  0.0450
 7348W        W23242   9.484   6.717  11.422  0.1717 -0.1070 -0.1496
 7349W        W23243  18.344   3.199   2.012  0.4822 -0.0397 -0.1900
 7350W        W23244   1.606   9.869   0.632 -0.0757 -0.0520  0.1996
 7351W        W23245  16.961  11.153   1.100  0.1143 -0.2618  0.1268
 7352W        W23246   4.590   8.390  12.316 -0.3107 -0.0642  0.2954
 7353W        W23247  15.172   7.615   0.333 -0.0727  0.0116  0.1585
 7354W        W23248   7.230  16.074   1.856 -0.0097  0.2185  0.0499
 7355W        W23249   2.275  15.960  12.709  0.0832  0.1125 -0.1227
 7356W        W23250   6.477   4.167   3.445  0.2371  0.0604 -0.2557
 7357W        W23251   6.122  10.582   0.664  0.0908  0.1970  0.2967
 7358W        W23252  17.649   0.911   0.053 -0.0082  0.0020 -0.0649
 7359W        W23253  13.729  11.222   5.544 -0.2740  0.0982 -0.1492
 7360W        W23254  10.466  16.257   1.553  0.2826  0.1810 -0.0637
 7361W        W23255  13.227   0.362   4.682 -0.1852  0.5549 -0.0331
 7362W        W23256   3.037   1.200  12.885  0.1572  0.2735 -0.0914
 7363W        W23257  19.049   0.791   2.754  0.2358  0.1235  0.1906
 7364W        W23258   6.639  17.151   1.288 -0.0239  0.0222 -0.1745
 7365W        W23259  15.124   8.376  11.385  0.0465  0.0240 -0.1298
 7366W        W23260  14.757   3.331   3.340  0.1049  0.0576 -0.0219
 7367W        W23261   5.743   0.448   4.422  0.0544 -0.0926 -0.0708
 7368W        W23262   3.923   2.744   4.914  0.1445 -0.3564 -0.3234
 7369W        W23263   5.863   2.313  15.076 -0.1944  0.1900 -0.0271
 7370W        W23264   1.706   3.422   2.375 -0.1294 -0.2813 -0.1607
 7371W        W23265   7.904   9.269   1.870 -0.0755  0.2097 -0.0343
 7372W        W23266   8.561   0.958   4.688 -0.0146  0.1328 -0.1807
 7373W        W23267  17.253   7.941  13.391  0.2264 -0.1061  0.2953
 7374W        W23268   4.022   8.617   0.953  0.2918 -0.3219 -0.1133
 7375W        W23269   4.373   5.761   4.938  0.2768  0.1676 -0.3381
 7376W        W23270  18.793   0.986  10.606  0.0351  0.0109 -0.2602
 7377W        W23271  11.634   9.019  12.210  0.0948  0.0743  0.0003
 7378W        W23272   4.189  15.177  12.803 -0.3299  0.0752  0.1745
 7379W        W23273   9.339  14.506  10.883  0.2393  0.0664  0.1927
 7380W        W23274  15.760   7.495  14.311 -0.0938  0.2358  0.0703
 7381W        W23275   7.788   1.294   2.124  0.2277 -0.3584  0.0131
 7382W        W23276  16.508   6.627  10.625 -0.0440 -0.2682  0.2870
 7383W        W23277   2.950  18.202  12.878  0.1995  0.2159 -0.3392
 7384W        W23278  11.450   1.617   2.425  0.1678 -0.1239  0.2670
 7385W        W23279   0.997  10.168   4.584 -0.0096  0.1866 -0.0985
 7386W        W23280   1.865   7.005   1.964 -0.0897  0.1616  0.1014
 7387W        W23281  18.742   5.861   3.580  0.2114  0.0252 -0.1627
 7388W        W23282   1.198   0.677  13.973 -0.0641  0.3181 -0.2424
 7389W        W23283   6.643   1.055  13.713  0.5300 -0.2196  0.0030
 7390W        W23284  14.877   1.263  13.902 -0.0109  0.1999  0.0004
 7391W        W23285  15.249  13.485   1.759 -0.0277 -0.0195  0.0578
 7392W        W23286  16.816   1.985   0.812 -0.1860  0.1715  0.0515
 7393W        W23287   5.516  11.099  14.828  0.1997 -0.0916 -0.1999
 7394W        W23288   5.450  10.680  12.991  0.0176 -0.0326 -0.0325
 7395W        W23289  18.339  12.926   0.801 -0.0787  0.1048  0.1082
 7396W        W23290  11.477   8.203  12.314 -0.1691  0.0221  0.1835
 7397W        W23291   9.273  12.115  14.326 -0.1380  0.1975  0.2691
 7398W        W23292   2.336   8.174   4.327 -0.0366 -0.2746 -0.1391
 7399W        W23293   9.450   6.945   2.228  0.2112 -0.1180 -0.1688
 7400W        W23294   6.646  14.592  14.978 -0.2469 -0.0526  0.1639
 7401W        W23295   6.862   4.778  14.459  0.3986  0.1584 -0.0971
 7402W        W23296   8.694  15.812   0.492 -0.0786  0.0426 -0.4440
 7403W        W23297   3.495   7.317   4.760  0.2122  0.0030  0.2124
 7404W        W23298   5.626  15.664  12.458 -0.0087  0.0525  0.3873
 7405W        W23299   0.838  13.790   1.577  0.2226 -0.0037 -0.3623
 7406W        W23300  17.587   8.804   5.154  0.0208  0.0661  0.2074
 7407W        W23301  10.298   4.868   0.788  0.1024  0.0345 -0.1012
 7408W        W23302  14.876  10.676  12.675  0.2873 -0.1873 -0.1569
 7409W        W23303  11.682  12.460   3.281 -0.1917  0.1811 -0.0160
 7410W        W23304   7.684  19.181   5.383  0.0938  0.1481  0.0489
 7411W        W23305  13.845  10.077   9.921  0.2480 -0.2271  0.2599
 7412W        W23306  16.846   5.915  10.353 -0.1944  0.2939  0.0420
 7413W        W23307   3.456  18.477   4.840  0.0121  0.3903 -0.2763
 7414W        W23308  17.955   6.712   3.913 -0.0330 -0.3438 -0.3931
 7415W        W23309   4.855   7.344   2.676 -0.2279  0.1568  0.1177
 7416W        W23310  15.662  17.761  12.853 -0.3379  0.2759 -0.0170
 7417W        W23311   2.798  10.531   2.014 -0.0826  0.3536 -0.0200
 7418W        W23312   7.475   9.304   3.767 -0.3466 -0.0030 -0.0279
 7419W        W23313   9.634   4.752  13.820 -0.2149  0.0141  0.1263
 7420W        W23314  10.524   6.247   2.119  0.2141 -0.0793 -0.0845
 7421W        W23315   0.662   4.326   0.933  0.1800 -0.2518  0.0945
 7422W        W23316  12.404   9.398   4.159  0.0940  0.0975 -0.1840
 7423W        W23317  18.643  17.014  14.573  0.2708 -0.1883  0.0741
 7424W        W23318  15.623   1.840  12.801 -0.1148  0.1842  0.0230
 7425W        W23319   8.068   7.411  11.653 -0.0321  0.2579  0.0204
 7426W        W23320  17.649  10.023  13.119 -0.3342  0.0109  0.0615
 7427W        W23321   3.552   7.252   4.138 -0.0164  0.0498  0.0214
 7428W        W23322  18.133   0.925  14.010 -0.0952 -0.0949 -0.4287
 7429W        W23323  10.049   7.546  10.343  0.2306 -0.2716 -0.1586
 7430W        W23324   9.922  18.434  12.838  0.1884  0.2571 -0.0715
 7431W        W23325   0.847   3.456  11.938  0.2214 -0.0248 -0.0418
 7432W        W23326   2.207   1.948   0.113 -0.1871  0.2071  0.1562
 7433W        W23327   9.730   5.255   3.318  0.1611  0.2603  0.5446
 7434W        W23328   6.269   5.844   0.002 -0.3675 -0.2450 -0.0824
 7435W        W23329  15.084   5.316   0.900  0.1034  0.3719 -0.0081
 7436W        W23330   0.077  11.678   5.030  0.0585  0.0976  0.1911
 7437W        W23331   5.922  12.828  14.639 -0.4048 -0.1658  0.2910
 7438W        W23332  16.553  15.075   5.672  0.2098  0.0797  0.0605
 7439W        W23333  15.232  14.127   2.936 -0.1569  0.0091 -0.2258
 7440W        W23334   0.610   1.040   3.277 -0.0980  0.3257 -0.3534
 7441W        W23335   6.521  11.996  12.297 -0.0107 -0.1581  0.3912
 7442W        W23336   4.594  15.067   0.189  0.1064 -0.0276 -0.0281
 7443W        W23337  17.431  15.145  10.389 -0.1717 -0.3097 -0.2580
 7444W        W23338  11.916   9.202  12.624  0.0219  0.1035 -0.1458
 7445W        W23339   6.913   5.753   3.820  0.0158  0.0175 -0.3936
 7446W        W23340  18.326  11.051   2.570  0.0584  0.0503  0.1981
 7447W        W23341  10.663   2.511   1.694 -0.1975  0.2966 -0.0503
 7448W        W23342  18.043   8.334   2.727 -0.1481  0.0362  0.3041
 7449W        W23343   9.716  16.964   1.605  0.2786  0.1302 -0.1434
 7450W        W23344   1.738   7.575  12.255 -0.2201 -0.1522  0.0903
 7451W        W23345  10.538  13.533   4.935 -0.0409 -0.0580 -0.1149
 7452W        W23346   3.657   6.125  14.845 -0.1360  0.0530 -0.2035
 7453W        W23347  13.455  16.253   4.321 -0.0514  0.1735  0.1250
 7454W        W23348  16.514  13.047  15.005 -0.0226  0.1085 -0.4347
 7455W        W23349   5.244   1.221   1.352  0.0083 -0.2848 -0.3521
 7456W        W23350  11.023   0.189  11.463 -0.1168  0.3341 -0.0532
 7457W        W23351  18.275  17.470  13.121  0.2105 -0.3856  0.4370
 7458W        W23352   1.059   2.244  11.882 -0.2688 -0.0194 -0.3666
 7459W        W23353   9.228   1.222  13.945 -0.1209 -0.1748 -0.1370
 7460W        W23354   7.646   1.088  14.711  0.1298  0.1748  0.2466
 7461W        W23355   5.942   1.055  11.803 -0.2549  0.0704  0.1570
 7462W        W23356   6.987  10.071  14.767 -0.0256 -0.0708 -0.2162
 7463W        W23357  15.898   6.981   0.862  0.0216 -0.1610 -0.0866
 7464W        W23358   4.858   0.045  11.340  0.2677 -0.0859  0.1822
 7465W        W23359  16.220  18.865  14.253  0.2184 -0.0183 -0.0801
 7466W        W23360   4.406  17.359   1.260 -0.0660 -0.1255 -0.0383
 7467W        W23361  16.926   0.940   3.084  0.0159 -0.2793 -0.0779
 7468W        W23362   4.932  16.631   9.155 -0.2160 -0.4819  0.0891
 7469W        W23363  17.831   5.315   5.466  0.2053  0.1800 -0.0078
 7470W        W23364   3.619  14.636   0.430  0.0915 -0.4008  0.1574
 7471W        W23365   0.069  17.805   0.068 -0.0103  0.1857  0.0725
 7472W        W23366   9.871  14.720  12.267  0.0299 -0.0450 -0.4921
 7473W        W23367   3.315   8.938   5.081  0.3445 -0.3706 -0.1611
 7474W        W23368   5.705  12.451   3.761 -0.2796  0.0624 -0.1475
 7475W        W23369   4.710   5.810   0.586 -0.0999 -0.0880  0.0761
 7476W        W23370  18.645   0.914   1.362 -0.3492  0.0046  0.0320
 7477W        W23371   3.339  17.783   1.319  0.2485 -0.1818  0.3327
 7478W        W23372  18.733  13.454  12.582 -0.0795  0.0814 -0.0325
 7479W        W23373   9.557   2.429   4.512  0.2035 -0.3780  0.0153
 7480W        W23374   2.111  19.040  14.564 -0.3487  0.1754 -0.0639
 7481W        W23375  17.153  17.062   2.269 -0.1961 -0.1141  0.3820
 7482W        W23376  16.134   8.331   2.460 -0.0552  0.0539 -0.1545
 7483W        W23377  16.349  17.806   2.449  0.0510 -0.1816  0.2638
 7484W        W23378  11.511   3.207   3.494  0.3126  0.1114 -0.0775
 7485W        W23379  18.852   9.881   1.916  0.0593 -0.2097 -0.1864
 7486W        W23380  18.669  16.075   4.604 -0.2262 -0.5747  0.4330
 7487W        W23381  11.581  16.052   3.171 -0.3020  0.0432  0.3722
 7488W        W23382  12.993  12.242   1.111  0.1637 -0.2219  0.2557
 7489W        W23383   1.117   1.888   5.034 -0.0223  0.0544 -0.1783
 7490W        W23384  16.960  15.995  14.019 -0.0083 -0.3201 -0.0310
 7491W        W23385   7.597   0.246   2.206  0.4525  0.0440 -0.0990
 7492W        W23386   7.733  10.068  13.566 -0.0215 -0.2561 -0.2318
 7493W        W23387   9.803  13.686  10.744  0.1752  0.1086 -0.2555
 7494W        W23388   7.281   4.785   3.133  0.0261 -0.0418  0.0294
 7495W        W23389   6.047   7.058   0.361 -0.1546  0.0231  0.0212
 7496W        W23390   6.183   7.851   3.579  0.0734 -0.0797  0.2086
 7497W        W23391  18.643   2.333   4.747  0.0146  0.1697  0.0249
 7498W        W23392  13.118   2.176  13.866  0.0148  0.0305  0.2411
 7499W        W23393  18.088  16.626  13.605 -0.1172 -0.0424  0.0762
 7500W        W23394   6.964  13.806  14.069  0.0001  0.0215  0.0727
 7501W        W23395   3.979  11.491  14.633 -0.1963 -0.0141 -0.1636
 7502W        W23396   5.151   2.414  10.542 -0.2956  0.0349 -0.2609
 7503W        W23397   3.218   8.143   5.095 -0.2133 -0.0045 -0.0565
 7504W        W23398   5.093   2.671  11.002  0.4344 -0.0112  0.2840
 7505W        W23399   1.297   2.446   0.926 -0.3513 -0.2990 -0.1327
 7506W        W23400   4.662  13.581   1.796  0.1600  0.2445 -0.2925
 7507W        W23401   5.077   9.184   1.848  0.0240 -0.2112 -0.1301
 7508W        W23402  10.593   7.919  12.426  0.0386 -0.0158  0.0811
 7509W        W23403  10.940  16.950  11.403 -0.3751  0.0683  0.2532
 7510W        W23404   7.347  18.929   0.597 -0.4809  0.4089  0.1955
 7511W        W23405   1.711   8.441  14.370 -0.0693 -0.0704 -0.1462
 7512W        W23406  14.907   8.186  12.478 -0.1391 -0.3078  0.0344
 7513W        W23407   5.998   4.847   3.118 -0.3523 -0.2675  0.0733
 7514W        W23408  14.134   0.019  12.746  0.2322 -0.2165 -0.3036
 7515W        W23409  18.448   6.844  13.172 -0.1700  0.6293 -0.4116
 7516W        W23410   6.150   3.030   2.858  0.1027 -0.2427 -0.4306
 7517W        W23411  11.147  14.447   0.872  0.2632  0.1233  0.1528
 7518W        W23412   5.581   7.919   3.688  0.1573  0.0782  0.0607
 7519W        W23413  19.014  15.213   0.603 -0.2727 -0.2865 -0.2218
 7520W        W23414  17.060  17.432   9.947  0.1607 -0.0658 -0.3772
 7521W        W23415  16.740  10.502   1.567 -0.1036 -0.1067  0.1921
 7522W        W23416  11.298   7.774  11.641 -0.2815  0.1235  0.1220
 7523W        W23417  13.135   3.274   2.322 -0.4610 -0.3598  0.0637
 7524W        W23418   9.805   2.659   1.535 -0.0354  0.1728  0.0014
 7525W        W23419   6.213  15.280   2.125 -0.2988 -0.0566 -0.1011
 7526W        W23420   6.316   1.040  13.063  0.0935  0.1147 -0.2155
 7527W        W23421   5.487  13.305  13.973  0.1497 -0.0952  0.2466
 7528W        W23422   0.812   5.199   5.104 -0.0092 -0.3864 -0.3323
 7529W        W23423  13.973  10.209  12.493 -0.3889 -0.0384 -0.1475
 7530W        W23424   2.353   4.516  13.697  0.1593 -0.0453  0.0813
 7531W        W23425   7.873  16.356  12.663 -0.0847  0.0516  0.0259
 7532W        W23426  16.356   4.093   4.178 -0.1279 -0.1150 -0.2081
 7533W        W23427   2.207  17.456  12.424  0.0137 -0.1236  0.1049
 7534W        W23428  16.084   4.778  11.606  0.0065  0.0695 -0.0941
 7535W        W23429  10.796  10.388   3.678 -0.2965  0.1914 -0.1485
 7536W        W23430   5.370  11.376  10.222 -0.2500 -0.0948  0.1027
 7537W        W23431   7.199   8.802  15.003 -0.1081  0.0714  0.2294
 7538W        W23432  10.208  18.563  11.302 -0.0752 -0.2818 -0.0400
 7539W        W23433   4.989   2.718  14.200 -0.0024  0.0374  0.0883
 7540W        W23434  12.979   3.462   0.983  0.2362  0.1507 -0.0231
 7541W        W23435  17.343  18.937   2.172  0.1772  0.0742 -0.0637
 7542W        W23436  12.406   3.859  14.465 -0.1089 -0.0734  0.0849
 7543W        W23437  12.713  16.107   0.754  0.2456  0.1864 -0.1458
 7544W        W23438   3.633  16.732  11.319 -0.2042  0.1027 -0.2408
 7545W        W23439  13.058   4.933   2.919 -0.1200 -0.3205  0.1344
 7546W        W23440   3.850   2.763   2.802 -0.0487 -0.0456 -0.1146
 7547W        W23441  16.291   7.888   0.217 -0.0659  0.0113 -0.3231
 7548W        W23442  13.583   4.526  12.092  0.1412 -0.0673  0.0320
 7549W        W23443  14.245   8.044  10.553  0.1264 -0.0797  0.2246
 7550W        W23444  12.582   9.244   1.385  0.2374  0.1718  0.1465
 7551W        W23445   4.142  14.148  14.248  0.1638 -0.0178  0.4016
 7552W        W23446  17.261   0.221   5.292 -0.0438  0.2734 -0.2330
 7553W        W23447   6.103  16.969  12.241 -0.1540 -0.3352 -0.0423
 7554W        W23448   3.297  11.616   2.052  0.2498  0.0933  0.2760
 7555W        W23449  12.998   3.897   4.047 -0.4043  0.4355  0.0381
 7556W        W23450   0.084   8.586   4.543 -0.3605  0.0754 -0.1496
 7557W        W23451   6.776   4.737   5.136 -0.2065  0.2663 -0.0839
 7558W        W23452   1.606   5.187  10.823 -0.1115 -0.1870 -0.3602
 7559W        W23453  11.192   5.427  14.897 -0.0295  0.1039  0.1344
 7560W        W23454  11.148  15.900  13.991 -0.1782 -0.1307 -0.1564
 7561W        W23455  18.735   3.180   3.330  0.2456 -0.0528  0.0713
 7562W        W23456   3.815   0.216  12.961  0.1808 -0.1028  0.0032
 7563W        W23457  14.935  11.549   9.053  0.0099 -0.2875  0.2265
 7564W        W23458  13.409  17.395   3.302  0.0229  0.1164 -0.0276
 7565W        W23459  10.303   5.830   0.035  0.0936  0.0074  0.2065
 7566W        W23460   9.767  15.998   4.600  0.0554  0.1362  0.0889
 7567W        W23461   4.989  11.328   4.078 -0.0188 -0.3240  0.2314
 7568W        W23462   4.425   9.500   1.280  0.0987 -0.0925  0.0494
 7569W        W23463   7.863   6.940  10.903 -0.0295 -0.2195  0.0694
 7570W        W23464  16.136   1.009  10.840 -0.0822  0.3413 -0.2841
 7571W        W23465  12.962   1.476  10.415 -0.1937 -0.1359  0.1521
 7572W        W23466   8.683   8.500  10.268 -0.0838 -0.2010 -0.0105
 7573W        W23467   6.783  11.582   0.900 -0.2030  0.3024 -0.0187
 7574W        W23468  12.476  11.860   3.371 -0.3731  0.3404  0.0120
 7575W        W23469   6.242   2.256   0.831  0.0084 -0.0510 -0.3154
 7576W        W23470  14.526   5.221  13.619  0.0417 -0.1196  0.1516
 7577W        W23471   6.562   8.750   1.206 -0.2671 -0.1025 -0.1829
 7578W        W23472  15.456   0.956   2.707  0.1184  0.0689 -0.0781
 7579W        W23473   6.621   6.239   4.237 -0.1894 -0.1948  0.1014
 7580W        W23474   6.967   9.472  14.437 -0.0762  0.0096  0.0825
 7581W        W23475   9.038  10.046  12.132 -0.4703 -0.0716 -0.1533
 7582W        W23476  13.062  16.367   2.610  0.2141  0.3569 -0.0522
 7583W        W23477  12.993  13.290  13.649 -0.1968  0.1370  0.2874
 7584W        W23478   3.245  11.490  10.384  0.1006 -0.3330  0.0505
 7585W        W23479  16.226  16.927  13.564 -0.3612 -0.2832 -0.1430
 7586W        W23480  15.994  11.036   4.892  0.1481  0.0130 -0.1958
 7587W        W23481   1.686  18.697   4.824 -0.0914 -0.3974 -0.4249
 7588W        W23482  16.325   2.150   5.021 -0.0079  0.0210  0.2865
 7589W        W23483   7.469  18.338  12.775 -0.1734 -0.2118  0.1966
 7590W        W23484  10.192   9.914   1.570 -0.0973  0.0170  0.2641
 7591W        W23485  13.422  12.925  11.914  0.1299 -0.4146  0.0760
 7592W        W23486  13.286   8.822   2.446 -0.2114 -0.0630 -0.2562
 7593W        W23487   0.414  14.923   4.881 -0.0182 -0.3321  0.0417
 7594W        W23488   6.856   6.166   3.496  0.3522 -0.2135  0.0003
 7595W        W23489  19.088  10.720   5.487  0.1425  0.4028 -0.0884
 7596W        W23490   4.972  16.859   2.850  0.1411  0.1263  0.0894
 7597W        W23491   1.019   2.697  13.811  0.1895 -0.0546  0.2321
 7598W        W23492   5.548   1.134   1.721  0.0322 -0.4693  0.1800
 7599W        W23493   9.446  19.006   0.907 -0.0102  0.2483  0.2159
 7600W        W23494   0.740   6.699   0.069  0.2416 -0.0347  0.2860
 7601W        W23495  11.437  14.161   2.151  0.0566 -0.0426 -0.0553
 7602W        W23496   0.177   1.211   2.995 -0.0882  0.0529 -0.1142
 7603W        W23497   9.467  19.020  14.422 -0.2714 -0.3545  0.0710
 7604W        W23498   6.399  11.310  13.966  0.1398 -0.1643 -0.2315
 7605W        W23499  18.209   4.783  11.673  0.0113  0.0410 -0.0334
 7606W        W23500   7.781  10.391   3.502 -0.2798 -0.1096  0.4689
 7607W        W23501  15.126  15.332  13.954 -0.1755 -0.1151 -0.1454
 7608W        W23502  12.185  17.885   3.642  0.0960 -0.0646  0.2049
 7609W        W23503   9.172  16.019   0.597 -0.3033  0.1341  0.2622
 7610W        W23504  17.362   6.129   1.392 -0.0759 -0.2825  0.1331
 7611W        W23505  15.568  12.743   2.351 -0.2820  0.0841 -0.2285
 7612W        W23506   3.051   9.755  13.471 -0.1656  0.0750 -0.0019
 7613W        W23507  13.682   5.345  14.235  0.2082 -0.4493  0.3043
 7614W        W23508   8.139   5.447   4.107  0.2086 -0.0943 -0.3183
 7615W        W23509  11.011  12.191  11.055 -0.0073  0.2099 -0.0868
 7616W        W23510  18.073  13.410  14.348 -0.0870 -0.1785  0.2514
 7617W        W23511   6.514   5.618   4.059  0.1020 -0.0771  0.0063
 7618W        W23512   9.913   8.627   3.826 -0.1453 -0.2635  0.1290
 7619W        W23513  12.552  13.244  10.957  0.3893 -0.2014 -0.0771
 7620W        W23514   2.630  13.898  11.939  0.0161 -0.0990 -0.2857
 7621W        W23515   9.025   9.601   1.674 -0.0144 -0.0132  0.1497
 7622W        W23516  16.315   9.384   0.978  0.0777  0.1945  0.1178
 7623W        W23517  16.677   7.175   2.684 -0.0694 -0.2798  0.1014
 7624W        W23518   8.569   0.411   5.335 -0.4835  0.3924 -0.2088
 7625W        W23519   7.746  16.044  13.017  0.5632 -0.1220 -0.1098
 7626W        W23520  15.534   5.468   1.081  0.5265 -0.0544 -0.1191
 7627W        W23521   9.328  14.694   1.144 -0.3186  0.1228 -0.1163
 7628W        W23522  15.083  16.275   2.392  0.2524  0.0597 -0.0738
 7629W        W23523   7.171  13.746   2.631  0.2172  0.1092 -0.1060
 7630W        W23524  12.629  12.657  13.017 -0.0931  0.0497  0.6393
 7631W        W23525   2.352   7.233   1.842 -0.4056 -0.2380  0.0285
 7632W        W23526   2.470  17.854  11.566 -0.1259 -0.0028  0.1966
 7633W        W23527  17.400  14.785   2.140 -0.1031  0.0253 -0.0366
 7634W        W23528  15.111  11.523   3.286 -0.4588 -0.0261  0.0991
 7635W        W23529  11.695  10.424  14.506  0.1107 -0.0115  0.1545
 7636W        W23530  11.555  12.105   9.154 -0.0763  0.1364  0.0143
 7637W        W23531  11.831  12.318  14.041  0.2346  0.0721 -0.4730
 7638W        W23532  19.130   4.081  11.776 -0.2208 -0.2068  0.2318
 7639W        W23533  11.057  11.168  12.898 -0.0971 -0.1079  0.2437
 7640W        W23534  14.401  19.077  14.974  0.0527  0.2675 -0.1463
 7641W        W23535  15.720   0.286   4.692 -0.2673 -0.0648 -0.2415
 7642W        W23536  12.593   5.234   0.513  0.2171  0.2002 -0.0095
 7643W        W23537   1.403   2.179   1.503 -0.0825 -0.0241  0.1394
 7644W        W23538   0.314   1.312  11.257 -0.1160 -0.0353  0.2867
 7645W        W23539   8.598  16.597  12.046  0.2926  0.1706 -0.2056
 7646W        W23540   0.065  18.627   5.010  0.2395  0.0410  0.0833
 7647W        W23541   2.104   1.772   4.302  0.2149 -0.2006  0.2702
 7648W        W23542  10.896   6.339  12.984 -0.0912 -0.3303 -0.0553
 7649W        W23543   4.625   4.626   4.311 -0.0549  0.1265 -0.2153
 7650W        W23544  13.342  13.746   1.024  0.2806  0.0526 -0.3194
 7651W        W23545   2.010  10.006   2.903 -0.0538  0.0666  0.0363
 7652W        W23546  11.125  10.608   5.761  0.0855 -0.1985 -0.3924
 7653W        W23547   1.168   1.621   1.523  0.1152  0.1013  0.0532
 7654W        W23548  19.126   5.876   0.652 -0.2682 -0.0904  0.0122
 7655W        W23549  18.601   6.346  10.862 -0.0111  0.2638  0.2178
 7656W        W23550   9.883   1.539  12.012 -0.0389 -0.2304 -0.1273
 7657W        W23551  16.863   6.254   6.085  0.2243 -0.1530  0.0140
 7658W        W23552  18.082  11.506   2.260 -0.2626  0.3895 -0.0710
 7659W        W23553  10.228   2.875  11.432 -0.1116 -0.2547  0.0229
 7660W        W23554  18.435  16.106   5.691  0.1700 -0.0128 -0.2171
 7661W        W23555   1.517  14.481  12.057 -0.2747 -0.2815 -0.1502
 7662W        W23556  18.358  12.289  12.496  0.2186  0.2254  0.4306
 7663W        W23557   1.794  16.711   1.321 -0.2702  0.1744 -0.1784
 7664W        W23558  13.570  18.268   2.773 -0.1007  0.3052  0.0148
 7665W        W23559   9.280   0.379   1.110 -0.1225  0.1867 -0.2573
 7666W        W23560  17.808  15.855  11.865  0.1041 -0.0264 -0.3034
 7667W        W23561   9.609  16.655  11.952  0.3022 -0.1312 -0.0853
 7668W        W23562  14.459   9.841   0.044 -0.1774  0.1896  0.0014
 7669W        W23563  16.507  15.855   2.506  0.0476 -0.1561  0.0739
 7670W        W23564  17.046   8.593   2.686 -0.1640 -0.1909 -0.0230
 7671W        W23565   4.087   7.972  13.910 -0.2162  0.0158 -0.3075
 7672W        W23566   2.539  18.400   5.421  0.0861  0.1991  0.0746
 7673W        W23567  14.119   0.426  11.406 -0.3313  0.0139 -0.0568
 7674W        W23568  12.097   8.893  15.086  0.0841 -0.1265 -0.0603
 7675W        W23569  13.459  16.723   2.765 -0.1080 -0.0197 -0.1842
 7676W        W23570  15.758  16.956   3.704 -0.1566 -0.1417  0.2033
 7677W        W23571   2.503   8.400  11.949  0.0721 -0.1189 -0.3829
 7678W        W23572   4.662  17.298   0.074 -0.2718  0.0809  0.2109
 7679W        W23573  15.182  19.081   5.250 -0.3330 -0.0580 -0.3811
 7680W        W23574   4.144  12.766  12.255 -0.1493 -0.1641  0.0793
 7681W        W23575   8.871  14.138   3.830  0.2461 -0.1167  0.2793
 7682W        W23576   6.383   7.762   1.424 -0.1291 -0.0454 -0.1775
 7683W        W23577  10.084   0.083   4.513  0.2104  0.0910  0.0347
 7684W        W23578   3.809   8.839  10.693  0.1885 -0.1781 -0.1071
 7685W        W23579  15.413  11.906  13.149 -0.3966 -0.0731 -0.3849
 7686W        W23580   1.845  12.493  14.296  0.2219  0.1824 -0.2886
 7687W        W23581  10.326   8.776  10.475 -0.4300  0.0240 -0.1626
 7688W        W23582   3.910   8.871   3.325  0.0130 -0.0934 -0.0977
 7689W        W23583   1.813   4.249  12.596  0.1925 -0.0233  0.1075
 7690W        W23584  11.104   9.704   2.694 -0.3763 -0.0335 -0.3113
 7691W        W23585  15.574   9.260   4.936 -0.1798  0.0020 -0.1643
 7692W        W23586   6.773  10.629  13.760  0.0203  0.1892 -0.0408
 7693W        W23587  18.982   8.941   2.445 -0.0784 -0.0257  0.1974
 7694W        W23588  12.609  10.841  10.370 -0.0471 -0.2622  0.0539
 7695W        W23589   5.754  18.420   2.325 -0.2236  0.2557 -0.1746
 7696W        W23590   2.585   9.583   2.241  0.0596 -0.1531  0.2585
 7697W        W23591  13.972   7.007  10.813  0.0642  0.2179  0.2770
 7698W        W23592  14.589   4.514   4.041  0.2334  0.0002 -0.0500
 7699W        W23593  17.561   2.218   0.736 -0.0656  0.2576 -0.0226
 7700W        W23594   1.953  17.127   2.595 -0.0266  0.0154  0.1344
 7701W        W23595   1.988  10.986   4.175 -0.0606  0.0458 -0.3746
 7702W        W23596  13.565   9.245   1.058 -0.0701 -0.0489  0.2698
 7703W        W23597   7.896   9.020   4.745  0.0142 -0.0700 -0.1313
 7704W        W23598   8.915   9.401  10.681  0.0018  0.3811 -0.1210
 7705W        W23599  18.094   6.093  11.667 -0.1924  0.0147  0.2349
 7706W        W23600   4.456  11.101   3.559 -0.3420  0.0922 -0.0077
 7707W        W23601  17.782   2.556   0.420  0.0980 -0.1846 -0.0333
 7708W        W23602  16.580  16.597   4.694  0.1458 -0.3391 -0.1947
 7709W        W23603   0.651  14.592  11.352 -0.1488 -0.2826  0.3878
 7710W        W23604  17.946   0.222  14.330  0.0886 -0.3049  0.1256
 7711W        W23605  10.298   9.563  13.428  0.2556 -0.1024 -0.3738
 7712W        W23606   4.934  16.115   3.310  0.3368  0.3327  0.3930
 7713W        W23607   8.174   6.552  11.218  0.0994  0.0740 -0.0537
 7714W        W23608  14.975  15.858  11.345 -0.3023  0.1025  0.0285
 7715W        W23609   5.624   5.336   1.720  0.0167  0.1118  0.1185
 7716W        W23610  17.066   3.522  10.640  0.2943 -0.1971  0.0608
 7717W        W23611  14.428  12.951   0.356 -0.0818  0.1447 -0.1176
 7718W        W23612  17.033   5.085   2.903 -0.5516 -0.1132  0.2633
 7719W        W23613  10.170  14.183   2.027 -0.3504 -0.0970  0.3700
 7720W        W23614  15.359  16.632   4.813 -0.1002 -0.0246 -0.1014
 7721W        W23615   2.399  12.072   1.495  0.0699 -0.1072  0.2102
 7722W        W23616  18.603   4.450   4.246 -0.1596  0.1730  0.3452
 7723W        W23617  18.370  16.714  14.100 -0.4039  0.0711  0.0919
 7724W        W23618  14.931  10.587   1.543  0.1063  0.0564  0.1051
 7725W        W23619  18.166   9.797   0.430 -0.3126 -0.2933 -0.1434
 7726W        W23620  16.875  14.451  10.236  0.0618 -0.1137  0.1530
 7727W        W23621   8.920  11.173   3.915 -0.6311 -0.1036  0.0916
 7728W        W23622  12.184  17.085   4.421  0.0907  0.0818  0.1041
 7729W        W23623  18.011   6.576   1.764  0.2645 -0.0922  0.2253
 7730W        W23624  15.711  13.176  14.658  0.0587 -0.0661 -0.0090
 7731W        W23625  12.090  16.014  14.377 -0.1881 -0.2615  0.2122
 7732W        W23626  11.672  14.147  11.065 -0.2144  0.0276  0.3780
 7733W        W23627   3.206  18.638  13.714 -0.0582  0.0987 -0.0721
 7734W        W23628   7.219   5.896  13.698 -0.0315  0.0060  0.1727
 7735W        W23629  18.785  12.248  15.029 -0.0390 -0.1788  0.0043
 7736W        W23630  16.143  14.336   2.720 -0.0081  0.2061  0.2050
 7737W        W23631  17.380  18.228  11.406  0.0513 -0.0933  0.0680
 7738W        W23632   5.097   0.000   1.890 -0.2724  0.0213  0.5581
 7739W        W23633   8.991  17.855   5.492  0.1620  0.0364 -0.0501
 7740W        W23634  17.942  17.987   4.411 -0.2314 -0.0728  0.0144
 7741W        W23635  13.182   5.419  13.812  0.0587  0.2396 -0.0333
 7742W        W23636  18.597  15.322  12.180 -0.3443 -0.2488  0.2840
 7743W        W23637  13.844   5.853  14.107 -0.0678 -0.2029  0.2495
 7744W        W23638  10.951   0.654   1.461 -0.1334  0.1223 -0.5381
 7745W        W23639  12.692   0.667  11.605 -0.2147  0.2425  0.1664
 7746W        W23640  12.393   0.633   4.724  0.0569  0.0565  0.0045
 7747W        W23641   8.188   6.207   1.862 -0.0870 -0.0825 -0.1967
 7748W        W23642   9.138  15.318   9.551 -0.1945  0.3719  0.0536
 7749W        W23643   9.430   7.530  15.006 -0.3856 -0.2367  0.1181
 7750W        W23644  18.882  16.454  13.738 -0.1719  0.0238  0.1464
 7751W        W23645   1.154  14.780  12.864 -0.4527 -0.0341 -0.4013
 7752W        W23646  19.052  13.309   2.587 -0.0698  0.0664  0.0290
 7753W        W23647  11.925   5.410   3.447 -0.1787 -0.0876  0.0952
 7754W        W23648   4.425   2.800  11.610  0.0028 -0.1848 -0.0871
 7755W        W23649  18.465   2.440  10.944  0.2775 -0.0213  0.0480
 7756W        W23650   1.467   7.685   0.356 -0.2425 -0.1616 -0.0961
 7757W        W23651  14.553  10.322  14.859 -0.3595  0.0811  0.1368
 7758W        W23652  16.106   2.564  14.336 -0.1766  0.0869 -0.4188
 7759W        W23653   1.084  15.722  13.828 -0.0847  0.0749  0.3070
 7760W        W23654   2.662   5.066  15.073  0.0417  0.0245 -0.0157
 7761W        W23655  13.449  11.374   3.848 -0.2732  0.0694 -0.6745
 7762W        W23656  17.176  15.986   4.598 -0.1404 -0.2207  0.1465
 7763W        W23657   9.360   8.607   1.003  0.0971  0.1058 -0.0039
 7764W        W23658   8.707   1.760   1.939  0.0493  0.0612 -0.0675
 7765W        W23659   7.033  17.620   2.948 -0.0810 -0.1002  0.1960
 7766W        W23660  16.827  13.328   0.706 -0.0657 -0.0434 -0.2122
 7767W        W23661  16.437  11.062   0.777  0.2927  0.0515  0.2517
 7768W        W23662  12.284   4.801  12.784 -0.0780  0.1971  0.1695
 7769W        W23663   2.633   6.391   1.673  0.0948 -0.3336 -0.1631
 7770W        W23664   8.364   1.261   4.300 -0.0781 -0.0138 -0.0843
 7771W        W23665  15.656   8.848   4.501  0.2565  0.2472 -0.0649
 7772W        W23666   3.370  18.800  15.083  0.2738 -0.1074  0.0549
 7773W        W23667   0.029  12.700   1.286 -0.0550  0.1498 -0.1486
 7774W        W23668   4.334  13.890  13.036 -0.1932  0.2478 -0.2243
 7775W        W23669   9.195   1.865   6.010  0.0327 -0.0215 -0.0751
 7776W        W23670   9.511   8.932   3.815  0.1332  0.1249 -0.1536
 7777W        W23671  15.202   7.638  12.451  0.0019  0.1651 -0.1674
 7778W        W23672  15.957   2.869  10.947 -0.0442  0.1359 -0.1125
 7779W        W23673   0.523   0.079  15.010  0.0414 -0.0636 -0.1161
 7780W        W23674  13.319  10.663  13.058  0.3769 -0.4475 -0.3989
 7781W        W23675   8.695   9.086   4.169  0.1361 -0.2116  0.5126
 7782W        W23676   1.231   5.084   2.767  0.2580  0.1429  0.0358
 7783W        W23677  15.880   5.707   5.258 -0.0140 -0.2829 -0.0085
 7784W        W23678  17.304   0.344   4.514  0.1964 -0.3917  0.2459
 7785W        W23679  19.198  17.430   3.336 -0.1328  0.1427 -0.2007
 7786W        W23680  17.059  11.379   2.431 -0.0080  0.1968  0.0406
 7787W        W23681  16.639   1.845  13.199 -0.2240 -0.1350  0.1260
 7788W        W23682   9.624   4.296   3.421 -0.0203  0.0687 -0.0025
 7789W        W23683   5.332   2.200   1.928  0.0015 -0.3529 -0.0438
 7790W        W23684  12.967  11.004  13.980 -0.3908  0.2243  0.1886
 7791W        W23685   8.757   7.253  11.079  0.2522 -0.3020 -0.0950
 7792W        W23686   9.689  18.300  13.235 -0.0437 -0.2332 -0.0343
 7793W        W23687  10.647   1.590  14.603  0.2085 -0.3514  0.2374
 7794W        W23688   7.297   7.890  10.492 -0.0589  0.2060 -0.2158
 7795W        W23689  13.480   2.940   3.506 -0.1901 -0.1211 -0.0333
 7796W        W23690   4.742  17.989   1.344 -0.0840  0.2337  0.5742
 7797W        W23691   1.990  14.957  12.426  0.0394  0.1259  0.1383
 7798W        W23692  12.434   9.898   0.461 -0.1411  0.1839 -0.2002
 7799W        W23693   3.068  17.629  11.387 -0.3458 -0.0978  0.1274
 7800W        W23694   8.853   3.230  11.929 -0.1453 -0.2237  0.0018
 7801W        W23695  11.958   4.421  13.053  0.0893 -0.2255  0.0734
 7802W        W23696   0.866  16.277  10.806  0.2609  0.1567  0.2098
 7803W        W23697  17.045  17.961  13.766  0.0141  0.0274 -0.1170
 7804W        W23698  11.106   9.197   2.730  0.0910 -0.1171 -0.2925
 7805W        W23699   6.922   5.114   3.322  0.0466  0.3477 -0.2435
 7806W        W23700  16.462   8.253   3.575 -0.0819  0.0136  0.0170
 7807W        W23701  10.933   4.077   0.957 -0.0327  0.1217  0.3773
 7808W        W23702  15.522   5.468  12.584  0.2752 -0.0610 -0.1005
 7809W        W23703  18.803  10.182   2.634 -0.2459  0.0539 -0.1188
 7810W        W23704   7.346  16.865   0.165 -0.1719 -0.0314 -0.0611
 7811W        W23705   2.177   1.700  13.670  0.2289  0.0162  0.0944
 7812W        W23706  17.758  13.986   1.478 -0.0202  0.0240  0.0438
 7813W        W23707  18.733   8.072  10.861  0.1323 -0.4536  0.0545
 7814W        W23708   7.875  13.198   0.015 -0.4214  0.0391 -0.1948
 7815W        W23709   7.747   0.972  10.929 -0.0119  0.2089 -0.1140
 7816W        W23710   8.999   3.543  12.850  0.4173  0.1020  0.0114
 7817W        W23711   0.475  18.462  11.504  0.3556 -0.0855  0.0937
 7818W        W23712   9.426  12.241   0.660  0.1306 -0.0287 -0.3422
 7819W        W23713   3.869  13.585   3.609 -0.0637 -0.2179  0.3359
 7820W        W23714   8.512   7.316   3.551  0.0157  0.2338 -0.2030
 7821W        W23715  11.558   6.037   3.127  0.0044  0.1459 -0.1248
 7822W        W23716  14.774   6.195   2.809  0.1545  0.0419 -0.1052
 7823W        W23717   5.230  13.629   3.114  0.2482  0.3992  0.1548
 7824W        W23718  17.257  12.246  11.168 -0.3062 -0.3313 -0.3309
 7825W        W23719  16.848   6.658  12.579 -0.3131  0.0066 -0.4170
 7826W        W23720  10.188   9.734   0.951 -0.0968 -0.1473 -0.1324
 7827W        W23721   2.455   9.967  10.091 -0.2945  0.0423 -0.0249
 7828W        W23722   5.908   9.679  12.956 -0.1089 -0.1801  0.4289
 7829W        W23723  14.061   2.740   2.182 -0.0882  0.1637  0.1202
 7830W        W23724   1.393   7.068   2.614  0.4098 -0.0613  0.0066
 7831W        W23725   0.479  12.302  13.751 -0.1370 -0.1770  0.1892
 7832W        W23726  18.682  11.571   3.334 -0.0468 -0.0861  0.0162
 7833W        W23727  15.932  14.083   4.449  0.0343  0.1198 -0.0098
 7834W        W23728   9.483   4.428  11.197 -0.1554 -0.3395 -0.0914
 7835W        W23729  14.072   3.530   2.455 -0.1219 -0.1291  0.2781
 7836W        W23730  18.480   8.680  10.906  0.1385 -0.0130 -0.0056
 7837W        W23731   3.750  10.796  13.916 -0.0265 -0.1079  0.1655
 7838W        W23732   4.329   7.927  12.217  0.2356 -0.1355  0.0599
 7839W        W23733   1.869  12.500   5.145 -0.1052  0.0161 -0.0955
 7840W        W23734   6.278   2.883   1.860 -0.2608  0.0701  0.0606
 7841W        W23735   9.102  13.254   1.108 -0.3609 -0.2149  0.2503
 7842W        W23736  17.240  15.379  14.011  0.1051 -0.1337 -0.0105
 7843W        W23737   0.549  11.659  14.965 -0.3777  0.0306  0.1641
 7844W        W23738  16.679  13.830  14.364  0.1658 -0.1688 -0.1422
 7845W        W23739  16.433   6.749   0.406  0.3227 -0.3810 -0.1115
 7846W        W23740  15.804   9.651  12.986 -0.1564  0.3280  0.1700
 7847W        W23741  13.847  16.584   0.599 -0.0845 -0.1805 -0.1111
 7848W        W23742  16.963   6.508   0.233 -0.1485 -0.1538  0.0453
 7849W        W23743  10.858  10.977   0.743 -0.2733 -0.0916  0.0752
 7850W        W23744   9.657   8.825  13.925  0.0339 -0.2352 -0.1544
 7851W        W23745   4.134   2.354  13.997 -0.1106  0.2130 -0.0580
 7852W        W23746  18.013  14.243  13.629  0.0208  0.0616  0.1848
 7853W        W23747   0.770   3.553  11.437 -0.0060 -0.1050  0.0805
 7854W        W23748  19.060  13.270  12.976  0.3596  0.0330 -0.0281
 7855W        W23749   0.940  11.078  12.520 -0.2093  0.1174  0.0842
 7856W        W23750   2.751   7.772   0.882  0.0335  0.1805 -0.1377
 7857W        W23751  14.150  14.378   3.417 -0.0956 -0.1102  0.0923
 7858W        W23752  12.831   0.127   2.448  0.1443  0.1737 -0.1817
 7859W        W23753  18.407  17.885  11.139 -0.3298  0.4716  0.2347
 7860W        W23754   3.944  12.754   5.201  0.0829 -0.0117 -0.1530
 7861W        W23755   9.282  12.045   3.827  0.0047  0.1425 -0.0261
 7862W        W23756  10.032   3.512  13.569 -0.1043  0.0815 -0.0905
 7863W        W23757   7.094   7.099  13.997  0.1590  0.0414  0.0152
 7864W        W23758   7.864   0.775  15.106  0.0140 -0.0724  0.2634
 7865W        W23759   6.866   7.525   2.928 -0.0708  0.0789 -0.0011
 7866W        W23760  11.465   2.348  10.955 -0.2692  0.0386  0.0645
 7867W        W23761   5.564   0.351  12.916 -0.2899 -0.0528  0.0228
 7868W        W23762   5.668  16.364   3.801  0.0509  0.1943  0.3383
 7869W        W23763  11.476   7.420   3.452  0.0975  0.0085 -0.0513
 7870W        W23764  13.678   1.156   3.139 -0.2080  0.0646 -0.0141
 7871W        W23765  13.930  10.535  11.868 -0.0427 -0.1849 -0.0289
 7872W        W23766   5.164   0.820   5.295 -0.2712 -0.1084 -0.0968
 7873W        W23767   8.375  15.918  15.035 -0.4188  0.0960  0.0220
 7874W        W23768   8.095  17.825   2.131  0.1656 -0.0623  0.0791
 7875W        W23769  11.810   6.793   1.475  0.0512  0.0542 -0.0726
 7876W        W23770  16.542   7.572  12.324 -0.1908 -0.0976  0.0967
 7877W        W23771   8.228   2.062   1.368 -0.1913  0.0655 -0.0781
 7878W        W23772  18.290  17.938  13.679  0.1635 -0.1517 -0.1483
 7879W        W23773   2.347  18.858  11.660  0.1434  0.0292 -0.3055
 7880W        W23774  10.813  12.966  13.604 -0.3971 -0.0937 -0.0500
 7881W        W23775   2.483  10.748   3.434 -0.3541 -0.0420 -0.0130
 7882W        W23776   0.106  13.420  14.611  0.1595  0.0500  0.4162
 7883W        W23777  14.587   2.512   5.652 -0.1939 -0.0859  0.1159
 7884W        W23778   4.411   3.023   2.649  0.0418 -0.2550  0.1167
 7885W        W23779   0.017   5.912   3.546 -0.0914  0.0444 -0.2691
 7886W        W23780  12.169  16.050  11.333  0.1797  0.2913  0.1161
 7887W        W23781  14.886   4.913  12.174  0.1887  0.0269 -0.0568
 7888W        W23782   9.646   8.442   0.380  0.0113  0.1534  0.1443
 7889W        W23783  13.211   4.136  11.608  0.0374  0.0795 -0.0512
 7890W        W23784  10.003  15.935  10.189  0.1918  0.3320  0.3714
 7891W        W23785  16.091  15.580   2.431 -0.0131  0.0674 -0.1742
 7892W        W23786   6.852  10.998   0.327  0.1188  0.2295  0.3305
 7893W        W23787  13.364   5.559  14.766 -0.1840 -0.0309  0.1114
 7894W        W23788   4.073   5.675   3.291  0.0310  0.0295  0.5573
 7895W        W23789   9.864   6.583  11.026  0.1885 -0.2266 -0.2148
 7896W        W23790  17.587  14.591   3.210  0.1958  0.0769 -0.1033
 7897W        W23791  16.496   0.347   9.222 -0.1402  0.0895  0.1280
 7898W        W23792   4.289   1.041  12.438  0.0934  0.0632  0.3840
 7899W        W23793   4.918   0.844  14.971 -0.2816  0.3676 -0.0491
 7900W        W23794   7.470   7.517  12.646 -0.0816  0.4049  0.1873
 7901W        W23795   5.034  16.240   2.082  0.0400 -0.2690 -0.1394
 7902W        W23796   6.104   8.673   5.068  0.1088 -0.1491 -0.1017
 7903W        W23797   6.896  13.987   0.606  0.0472 -0.2367 -0.1006
 7904W        W23798  15.842  15.962  12.689  0.2439  0.1721  0.0669
 7905W        W23799   6.788   4.922  12.282 -0.6240  0.1440  0.0110
 7906W        W23800   9.581   5.872  13.962 -0.0369  0.2459  0.2389
 7907W        W23801   6.342   2.775   1.355 -0.3232 -0.0562 -0.3571
 7908W        W23802  15.741  11.367  13.314 -0.0224  0.2704 -0.1520
 7909W        W23803   8.833   4.099   2.505 -0.1394  0.1332 -0.3666
 7910W        W23804   8.115   1.402  12.483 -0.1837 -0.0339 -0.2315
 7911W        W23805  16.661   6.525   4.533 -0.1654  0.2096 -0.1827
 7912W        W23806   5.818  12.714  14.138 -0.0568 -0.1717  0.0393
 7913W        W23807   3.322  12.123  15.081  0.2833  0.2355  0.1115
 7914W        W23808  18.525   1.676  12.128 -0.2177 -0.0303  0.1983
 7915W        W23809  17.641   7.613   0.494  0.0852 -0.0095  0.0218
 7916W        W23810  17.955  14.742   1.267 -0.1808  0.0959  0.1551
 7917W        W23811   0.716  15.922  12.584 -0.3250 -0.3254 -0.3117
 7918W        W23812   3.413  16.764   3.398 -0.0272 -0.2644 -0.2954
 7919W        W23813   6.669  13.311   3.011 -0.1830  0.1659 -0.1590
 7920W        W23814   7.771   5.867  10.883  0.1800 -0.0588 -0.1929
 7921W        W23815   6.263  11.018  12.979  0.0762 -0.0490 -0.0279
 7922W        W23816   3.878   6.645   1.176 -0.0617 -0.2104  0.0707
 7923W        W23817   0.492   2.648  11.299  0.1773 -0.0690 -0.1354
 7924W        W23818   0.963   8.035   4.513 -0.1692 -0.1286 -0.0834
 7925W        W23819  10.189   0.278  11.992 -0.0930 -0.0511  0.0500
 7926W        W23820   2.710  14.875  10.971  0.0555  0.0125  0.2896
 7927W        W23821   9.570   5.835   1.156 -0.1615  0.2952  0.3185
 7928W        W23822   8.680  15.364   3.783  0.0115 -0.3969 -0.2005
 7929W        W23823   4.415   7.156   2.973  0.1958 -0.1482 -0.0797
 7930W        W23824  18.259   8.424   1.475  0.1964  0.3098 -0.2491
 7931W        W23825   8.031   8.276   1.846 -0.4257  0.1544 -0.2292
 7932W        W23826  12.197  10.909   2.399  0.1426 -0.0473 -0.0150
 7933W        W23827   8.379  14.090   0.530  0.0198 -0.2479 -0.0985
 7934W        W23828   7.693  16.346   4.692  0.0234 -0.0796  0.0920
 7935W        W23829  17.747   3.708   1.548  0.1702 -0.2098  0.1648
 7936W        W23830   9.312  18.250   1.860 -0.3487 -0.0719  0.5161
 7937W        W23831  17.247   9.668  13.911 -0.4621  0.0716  0.0244
 7938W        W23832   2.181   9.310  12.759  0.1835  0.0275 -0.0364
 7939W        W23833   3.879  16.616   4.310 -0.1033  0.0540 -0.1463
 7940W        W23834  18.021   0.711  13.292  0.1206 -0.0584  0.1850
 7941W        W23835   7.374   4.772  14.583 -0.1284 -0.1763  0.1059
 7942W        W23836   7.759   5.123   3.763  0.6085  0.2188  0.0499
 7943W        W23837   9.525   2.992   4.571  0.1897 -0.0067  0.1667
 7944W        W23838   4.135  15.312   0.968 -0.1761  0.0836 -0.3024
 7945W        W23839   7.932   6.977   9.638  0.0420 -0.4182 -0.1784
 7946W        W23840   1.170   2.082   0.599  0.0002 -0.1651  0.1494
 7947W        W23841  16.401   1.822   4.661 -0.2192  0.1566  0.2523
 7948W        W23842   4.659   5.571   4.457 -0.0478  0.0971  0.0464
 7949W        W23843   5.625  15.326   4.044 -0.2902  0.1396  0.1111
 7950W        W23844  12.767   9.958  13.815 -0.4162  0.0506 -0.0129
 7951W        W23845  16.943  11.969   1.206 -0.0169  0.4505  0.2872
 7952W        W23846  18.931   5.894   2.338  0.3292 -0.0672  0.0567
 7953W        W23847  12.026   1.616  12.882 -0.2725 -0.0078  0.0940
 7954W        W23848  17.368  13.017  13.243 -0.0712  0.0020  0.1695
 7955W        W23849   6.857   0.751  12.499  0.2106 -0.0896  0.3330
 7956W        W23850  10.785  13.426  11.688 -0.1128  0.1197 -0.2074
 7957W        W23851  10.606  10.725   5.645 -0.1342  0.2609 -0.1121
 7958W        W23852   6.567   1.978   2.003  0.0716  0.0964 -0.1758
 7959W        W23853   0.802   1.398   4.865  0.1972 -0.0563 -0.3184
 7960W        W23854   4.928  13.138  12.907  0.1782 -0.1070 -0.0873
 7961W        W23855   3.321  13.945  12.070 -0.0808 -0.1861  0.2506
 7962W        W23856  14.393   8.482   1.847 -0.2798 -0.0441  0.0598
 7963W        W23857  10.721   9.976  14.042 -0.1822 -0.1038  0.2399
 7964W        W23858   8.930  11.136  14.753 -0.0974 -0.1486 -0.1963
 7965W        W23859   2.663  11.027   2.240  0.1586  0.0766  0.1894
 7966W        W23860   6.040   4.795  14.456  0.2642 -0.3490  0.0828
 7967W        W23861  10.118  18.512   3.954 -0.0838  0.0172 -0.0067
 7968W        W23862  10.479  11.741   3.288  0.0059 -0.0249 -0.1043
 7969W        W23863   3.535   1.141  13.791 -0.0494 -0.1827  0.3094
 7970W        W23864   7.614  15.055  13.759  0.0797 -0.0733  0.2079
 7971W        W23865  11.855  16.130   4.461  0.2446 -0.3778  0.4748
 7972W        W23866   2.671  14.190  13.008  0.1625  0.2147 -0.0489
 7973W        W23867   7.896  15.611  15.070  0.2975 -0.2543 -0.1013
 7974W        W23868  14.910  16.639   3.698 -0.1694  0.1218 -0.2371
 7975W        W23869   0.419  13.880   2.712  0.0663 -0.1349  0.1518
 7976W        W23870   7.756   8.884  12.567  0.1146 -0.3424 -0.2187
 7977W        W23871  10.746   7.547   2.371 -0.1009 -0.1085 -0.0554
 7978W        W23872  18.551   4.169   3.156 -0.2086  0.1367 -0.3892
 7979W        W23873  11.277  13.335  14.557 -0.1490  0.4489 -0.0360
 7980W        W23874  14.507  10.299  10.456  0.0967  0.2915 -0.3556
 7981W        W23875  13.768  14.625  13.640 -0.3398 -0.4905  0.1036
 7982W        W23876   6.000   4.531   4.598  0.1594 -0.3579 -0.0256
 7983W        W23877   0.786  11.925  13.517  0.1217 -0.0122 -0.1705
 7984W        W23878   6.100  12.308  11.217  0.1658 -0.1037  0.4450
 7985W        W23879   6.506   5.364  13.899 -0.4568 -0.2965 -0.1111
 7986W        W23880   6.254   7.002  14.558  0.1929 -0.1189 -0.0317
 7987W        W23881  11.336   0.140  14.653  0.0211 -0.3341  0.2667
 7988W        W23882   8.477   7.064  13.402  0.1412  0.4482  0.0560
 7989W        W23883   0.798   4.213   0.446  0.3677  0.2111 -0.1159
 7990W        W23884  11.937  15.544  14.391 -0.1723  0.1079  0.4605
 7991W        W23885  14.925  15.344   3.262  0.2136  0.1594 -0.1782
 7992W        W23886  12.893   4.764  12.650  0.0254  0.1137 -0.2198
 7993W        W23887  13.069  18.273  11.779 -0.1188 -0.0580  0.1046
 7994W        W23888   6.166   1.153  13.639 -0.2407 -0.1003 -0.1604
 7995W        W23889   6.506   8.191  13.056 -0.0328  0.0543  0.0253
 7996W        W23890   8.201   8.246  10.307  0.0246 -0.1088 -0.1354
 7997W        W23891  18.805   0.197  13.643 -0.0772 -0.0635 -0.2683
 7998W        W23892   8.010   4.590  12.349 -0.0221  0.0125  0.0376
 7999W        W23893   2.204   4.721   4.779 -0.0600 -0.3719  0.1317
 8000W        W23894  12.432   7.101   0.402  0.1231  0.0679 -0.0573
 8001W        W23895  12.826   0.967   3.969  0.1018 -0.1415  0.1432
 8002W        W23896  15.462  10.424   2.980 -0.2710 -0.4708 -0.0671
 8003W        W23897   4.490  12.734   4.336 -0.1536  0.1755 -0.2519
 8004W        W23898  13.517  16.738   4.301 -0.1091 -0.0860 -0.1280
 8005W        W23899  16.292   0.684   1.743  0.0109  0.1605 -0.1365
 8006W        W23900  14.464  18.384   0.431  0.1728  0.1219  0.0099
 8007W        W23901   6.381  18.766  13.077 -0.1476 -0.2738 -0.3276
 8008W        W23902  14.879   9.287  14.471 -0.0549  0.0749  0.0155
 8009W        W23903  15.280  11.271   0.993 -0.0603 -0.1023  0.1852
 8010W        W23904   4.567   2.057   4.156 -0.1623  0.0468  0.0830
 8011W        W23905   2.975   5.238  10.921  0.0844  0.2423  0.1287
 8012W        W23906  10.741   8.308   4.211 -0.3448 -0.0420  0.0980
 8013W        W23907  16.878  13.103   1.998 -0.0433 -0.0769  0.1502
 8014W        W23908   6.284   9.488   3.898 -0.5311 -0.2412  0.0660
 8015W        W23909   7.236   9.404  10.272  0.0880 -0.2732 -0.1203
 8016W        W23910   7.923  12.831   2.560  0.0049 -0.0853  0.1439
 8017W        W23911   2.956  16.260  13.034  0.1003  0.1047 -0.0367
 8018W        W23912  15.401   9.212  13.048 -0.1400  0.0493  0.0526
 8019W        W23913  14.224  18.202   5.718  0.3429 -0.1940 -0.3756
 8020W        W23914   2.603   6.226   5.690 -0.0394  0.0326  0.2552
 8021W        W23915   3.593   7.744  10.736  0.0815 -0.0682 -0.2808
 8022W        W23916   2.900   5.643   1.376 -0.1656  0.2608  0.0709
 8023W        W23917  18.791   0.492  11.441 -0.0901  0.2462 -0.0314
 8024W        W23918  11.923   0.534   4.698 -0.3539  0.1339 -0.1564
 8025W        W23919   3.312  14.337  13.523 -0.0375  0.0192 -0.2007
 8026W        W23920   1.696  13.291   1.314 -0.1211  0.2696 -0.1633
 8027W        W23921   5.221   3.178  12.733 -0.1044 -0.1880  0.2497
 8028W        W23922   8.447   0.196   3.556  0.1812  0.4454 -0.4338
 8029W        W23923   4.642   1.007   1.621  0.0373 -0.3382  0.1953
 8030W        W23924   6.846  17.567  12.274  0.2420 -0.2463 -0.1540
 8031W        W23925  13.606  12.507  13.075  0.2808 -0.1634 -0.2207
 8032W        W23926   4.923  18.339   0.166 -0.1368 -0.0206  0.0227
 8033W        W23927  16.553  19.076  12.818 -0.0362 -0.1300 -0.1537
 8034W        W23928   9.423  12.786  11.819 -0.0137 -0.0962 -0.1546
 8035W        W23929  12.899   0.704   4.816  0.1909 -0.3391  0.1181
 8036W        W23930  13.973  11.899   4.965 -0.3132 -0.3347  0.0213
 8037W        W23931   4.223  13.334   2.429 -0.0252  0.3175 -0.5917
 8038W        W23932   6.693  14.659   3.645 -0.1269 -0.1593 -0.1966
 8039W        W23933  14.370  17.285   0.455  0.2449 -0.0542  0.1445
 8040W        W23934  15.324   8.257  13.183 -0.1967 -0.1921  0.3840
 8041W        W23935   9.206  16.499  10.411  0.0052 -0.1000 -0.2444
 8042W        W23936   3.425   3.866  14.424 -0.1437 -0.5620  0.1877
 8043W        W23937   0.967  15.222   2.659 -0.1513 -0.2358 -0.0306
 8044W        W23938  10.544   6.677   4.908 -0.3152  0.3815  0.1707
 8045W        W23939   1.089  10.979  11.975  0.1599 -0.0212 -0.0171
 8046W        W23940  11.916   1.709   1.865  0.0803  0.2107  0.2650
 8047W        W23941  13.392  13.017  10.031  0.0009  0.4346  0.0038
 8048W        W23942   8.678   7.344  14.261  0.3854  0.2402 -0.1626
 8049W        W23943  17.083  10.122   1.725  0.1342  0.0070  0.2422
 8050W        W23944  15.255   0.434   0.643  0.2459  0.1027  0.3981
 8051W        W23945  16.004  19.167   4.508 -0.0104 -0.3670 -0.2356
 8052W        W23946   1.683   1.444  13.922 -0.0964  0.0055 -0.1641
 8053W        W23947  16.644  11.373  10.346  0.0614 -0.2544  0.0515
 8054W        W23948  16.356  17.396   4.458  0.3992  0.2744  0.3088
 8055W        W23949   1.042  15.359  10.731  0.4727 -0.2758 -0.1932
 8056W        W23950   6.281   8.978  14.413 -0.1110 -0.2403 -0.0274
 8057W        W23951   7.814   6.862   5.880 -0.2410 -0.0616  0.1839
 8058W        W23952  10.069   7.440   4.642  0.0070  0.0495 -0.1391
 8059W        W23953  12.387   6.484   2.168  0.1756 -0.4480  0.1919
 8060W        W23954   4.521  15.364   0.615 -0.0508 -0.0708 -0.1073
 8061W        W23955   5.682  17.894   0.042  0.1535 -0.2287  0.0749
 8062W        W23956  14.831   3.799   3.076  0.1585  0.2766  0.0913
 8063W        W23957  12.346   2.691   3.892 -0.1052 -0.1193  0.1650
 8064W        W23958  15.330   2.638  13.830  0.2605 -0.0769  0.2693
 8065W        W23959  10.738   0.066   2.220 -0.0132 -0.1711  0.1520
 8066W        W23960   9.247  11.765   2.542  0.1590  0.1702  0.0113
 8067W        W23961  11.680   2.020  11.805  0.0178  0.0160  0.0178
 8068W        W23962  14.577   6.015   5.021  0.0078 -0.1129  0.0381
 8069W        W23963  18.874  18.761  14.888 -0.0766  0.0230 -0.0608
 8070W        W23964   3.901  18.898  11.210 -0.1040  0.0208 -0.2491
 8071W        W23965   5.040  12.130   2.609  0.0033  0.0690 -0.3112
 8072W        W23966   3.582  11.669  13.358  0.1634  0.2016  0.1633
 8073W        W23967  11.707   0.114   4.880  0.0172  0.2338  0.1956
 8074W        W23968  16.768   2.518  11.132 -0.4143 -0.0150  0.3276
 8075W        W23969   1.145   6.182  12.221  0.0921  0.0202  0.1189
 8076W        W23970   3.135  15.508  11.380 -0.2413 -0.1256  0.1512
 8077W        W23971   7.895   8.725   3.497  0.1430 -0.2542 -0.0324
 8078W        W23972   9.087  17.884   3.424 -0.1820  0.2769 -0.1454
 8079W        W23973   7.216   0.243  14.417 -0.0253 -0.1093  0.1673
 8080W        W23974  16.252  16.117  14.754 -0.1155  0.4039  0.1731
 8081W        W23975   2.229   2.016  12.761 -0.1075 -0.0036 -0.1826
 8082W        W23976   2.081   8.979   3.147  0.0819  0.0901 -0.1240
 8083W        W23977   7.280   4.265  14.384 -0.0674  0.0456  0.0161
 8084W        W23978   7.641  11.054   4.165  0.0527  0.0878  0.3733
 8085W        W23979   3.119  14.700  11.892  0.0034 -0.0910  0.1050
 8086W        W23980   2.441  12.872   4.139 -0.2005  0.0507  0.1965
 8087W        W23981   6.851  13.340  11.540 -0.2264  0.2201 -0.1207
 8088W        W23982   7.223  11.455   3.341 -0.3351  0.2679  0.1559
 8089W        W23983   7.986  18.027   0.245 -0.3822 -0.1182 -0.2077
 8090W        W23984   7.502   9.160   1.652  0.1787  0.0209  0.1053
 8091W        W23985  13.213   1.827   5.334  0.0589 -0.3119  0.4027
 8092W        W23986   4.817  17.858  12.366 -0.2055  0.0844  0.5159
 8093W        W23987  11.323  13.214   5.768  0.1179  0.1198  0.4226
 8094W        W23988   9.889  12.924  14.812 -0.2592  0.4233  0.0230
 8095W        W23989  15.959  13.903  11.510  0.0385  0.3827 -0.0749
 8096W        W23990  16.477   7.614  14.832  0.1635 -0.1410  0.0234
 8097W        W23991   5.098   0.058   3.458  0.0893 -0.1803  0.0453
 8098W        W23992   9.743   5.695  13.112  0.0482 -0.0264  0.1764
 8099W        W23993  15.925   0.650  15.082  0.2190 -0.0388 -0.0983
 8100W        W23994   9.120  10.345  12.518 -0.1577  0.0317 -0.1353
 8101W        W23995   1.728  19.154  12.466  0.2238 -0.0002 -0.1103
 8102W        W23996   0.696   1.421  10.945  0.3072  0.0081 -0.0883
 8103W        W23997  14.550  17.996   1.070  0.2137 -0.0884  0.0270
 8104W        W23998  13.088  17.009  11.778  0.1373  0.0080  0.1454
 8105W        W23999   9.325  11.390   1.413 -0.1020 -0.0101  0.1442
 8106W        W24000  15.022   6.320  10.126 -0.2391  0.4586 -0.1458
 8107W        W24001   1.872   7.024   0.989  0.2022 -0.3106 -0.1391
 8108W        W24002   0.112  17.561   2.386  0.1917  0.0503 -0.0492
 8109W        W24003   5.516   0.230   3.093  0.0560  0.1471 -0.3766
 8110W        W24004   9.921   4.922  12.469  0.0555 -0.2071 -0.0093
 8111W        W24005   6.187   1.497  11.479 -0.0412 -0.2760 -0.1861
 8112W        W24006  12.765   7.011   2.074 -0.4430 -0.1723 -0.1763
 8113W        W24007  15.563   7.681  11.052  0.2190 -0.0715 -0.1823
 8114W        W24008  18.209   0.764   1.695 -0.2279 -0.2002 -0.1651
 8115W        W24009  16.829  10.144   2.991  0.1011 -0.0531  0.0773
 8116W        W24010  12.025   1.671  11.894 -0.0144  0.0428  0.0705
 8117W        W24011   5.515   4.548   2.294  0.2813 -0.0572 -0.0310
 8118W        W24012  13.818  17.923   2.169  0.2635  0.0625 -0.1403
 8119W        W24013   7.481   7.460  10.708 -0.3782 -0.2881  0.0530
 8120W        W24014   5.403  15.308  13.849  0.0124  0.2050 -0.0313
 8121W        W24015  16.244  16.213   4.848  0.1858 -0.0959 -0.3031
 8122W        W24016   4.585  16.120   2.950 -0.0940  0.1112  0.0670
 8123W        W24017   1.398  16.597  13.462  0.0957  0.2011  0.0355
 8124W        W24018   7.878   6.534  10.553  0.2076  0.2645  0.0428
 8125W        W24019  16.665   3.228   0.184  0.0966  0.0004  0.0931
 8126W        W24020   0.530   5.248  11.890  0.0332  0.0704 -0.1113
 8127W        W24021   9.772   9.655   5.287  0.1211 -0.1316 -0.2052
 8128W        W24022   6.672  18.152  13.637 -0.0565  0.0054 -0.1292
 8129W        W24023   0.610   2.169  11.470  0.0693 -0.1261  0.3809
 8130W        W24024  14.211   7.854  13.809  0.1480 -0.1783 -0.1859
 8131W        W24025   4.532  13.011   2.640 -0.2340 -0.3601 -0.1091
 8132W        W24026   1.916   5.141   3.005  0.0779 -0.0703 -0.2063
 8133W        W24027   3.505  17.165  13.520  0.3415  0.0648 -0.0280
 8134W        W24028   0.157   4.876   0.872  0.0980  0.0352  0.0772
 8135W        W24029   1.761   4.621  15.094 -0.0564 -0.1678 -0.1910
 8136W        W24030  14.736  14.808  10.292 -0.1960 -0.0531  0.1915
 8137W        W24031  11.331   5.214   3.460  0.0209  0.2127 -0.0255
 8138W        W24032  12.146   9.215  10.276 -0.3673 -0.1391 -0.0220
 8139W        W24033   2.148   6.004   0.914 -0.1557  0.1520 -0.2055
 8140W        W24034   3.351   9.193   1.179 -0.1116 -0.0720  0.1942
 8141W        W24035   3.513   5.168   0.817 -0.0241  0.0637  0.1171
 8142W        W24036  17.012   2.798  13.058 -0.1445 -0.0212 -0.1147
 8143W        W24037  11.985  14.958   0.488 -0.3448 -0.2741  0.2424
 8144W        W24038  12.855  12.293  10.350  0.3165 -0.2255 -0.2132
 8145W        W24039   8.088   9.697   0.474 -0.3720 -0.1159 -0.0992
 8146W        W24040  12.560  19.148  10.645 -0.0619  0.1500  0.1828
 8147W        W24041  16.841  10.260   0.740  0.1873  0.0737  0.1414
 8148W        W24042   8.589   5.617  14.619  0.2484  0.0713 -0.4410
 8149W        W24043  17.713   8.659   1.401 -0.0133 -0.1380 -0.4605
 8150W        W24044   4.581   7.058  12.838 -0.0324 -0.0680 -0.0947
 8151W        W24045   6.755   8.946   4.243 -0.0048 -0.1566 -0.1071
 8152W        W24046  10.850   6.143  11.188 -0.2511 -0.1618 -0.0626
 8153W        W24047   5.981   4.664  10.000 -0.4819 -0.3666  0.1164
 8154W        W24048  13.687   2.104   5.577 -0.2927 -0.1043 -0.2022
 8155W        W24049   4.845  13.700  13.122  0.0228 -0.0267 -0.2949
 8156W        W24050  19.117   7.313   2.356 -0.0191  0.0255  0.0781
 8157W        W24051   3.783   3.844   4.712  0.1042 -0.2005 -0.0339
 8158W        W24052  18.148  18.387  12.803  0.0225 -0.0485 -0.0298
 8159W        W24053  14.706  11.142   4.275 -0.0065 -0.2334  0.0576
 8160W        W24054   2.378   2.471  12.645  0.1408  0.1202  0.0449
 8161W        W24055   9.624   7.328   3.246  0.0714  0.1213 -0.0860
 8162W        W24056  14.222   5.481   5.225 -0.0658  0.1481  0.2062
 8163W        W24057  13.018   9.051  12.723  0.2673 -0.1080 -0.0963
 8164W        W24058  17.115   5.016   9.846 -0.0835 -0.0257 -0.2380
 8165W        W24059  12.838   2.255   3.091  0.0632 -0.1499 -0.1009
 8166W        W24060  16.232   4.867  10.862  0.3380 -0.0691 -0.0901
 8167W        W24061  15.890   1.720   1.026  0.1652  0.2124 -0.3976
 8168W        W24062  17.847   4.971   1.926  0.1679  0.2152  0.2032
 8169W        W24063  18.900   8.753  11.569 -0.0629  0.2386 -0.1656
 8170W        W24064   5.126   5.390   4.721 -0.4903 -0.0267  0.1565
 8171W        W24065  18.572  14.633  12.847  0.1227  0.1475 -0.2444
 8172W        W24066   7.851  15.426   4.477 -0.2398  0.0373  0.0570
 8173W        W24067  16.155  18.147  13.562 -0.1060  0.1628 -0.0450
 8174W        W24068   5.744   6.995   5.083 -0.0602 -0.2317  0.4632
 8175W        W24069  12.840  18.942  12.343  0.2247  0.1430 -0.1158
 8176W        W24070  10.287   3.300  13.126 -0.1661  0.3410  0.0288
 8177W        W24071  14.828  11.067  14.823  0.4243  0.4154 -0.1112
 8178W        W24072   0.932   8.886   0.158 -0.4024  0.0770  0.4825
 8179W        W24073  11.123   2.118   0.488 -0.0460  0.2194  0.2929
 8180W        W24074  12.760   0.335   4.513  0.1209 -0.1140 -0.0434
 8181W        W24075  17.273  12.136  13.281 -0.2132 -0.2615 -0.2472
 8182W        W24076   1.338   3.115  13.796  0.2100 -0.0162 -0.1565
 8183W        W24077   8.448   2.760  12.740 -0.2090 -0.1129  0.1486
 8184W        W24078  11.044   4.698   1.971 -0.1117  0.2953  0.0034
 8185W        W24079  13.991  16.170  14.784  0.1860  0.2535  0.1501
 8186W        W24080  15.702  14.939   1.397 -0.3423  0.4975  0.0198
 8187W        W24081  11.632  16.002  14.069  0.1508  0.4218  0.0316
 8188W        W24082  14.721   1.393  11.087 -0.2593 -0.3327 -0.3041
 8189W        W24083  15.225  18.462  10.658  0.0277 -0.1777 -0.0622
 8190W        W24084  13.750  11.936  14.694  0.0269  0.0814  0.0843
 8191W        W24085   1.508   0.508   1.025  0.2857 -0.4598  0.2596
 8192W        W24086   2.970   0.002  15.095  0.0777 -0.0862 -0.1704
 8193W        W24087   2.546  15.650   4.818 -0.0449 -0.0638 -0.0549
 8194W        W24088   8.364  18.088  14.843  0.3907  0.1538 -0.1886
 8195W        W24089   6.461   0.233   0.287 -0.2406 -0.0659 -0.1069
 8196W        W24090  14.894   6.030  11.270  0.1611  0.0267 -0.1177
 8197W        W24091   3.343   4.455   0.524  0.0544  0.0189  0.0622
 8198W        W24092  12.884   4.006  12.180 -0.3769 -0.1301  0.2218
 8199W        W24093   0.082  15.521  13.907 -0.1591 -0.0125  0.3035
 8200W        W24094  18.216  10.088  12.700 -0.1955  0.3721 -0.0336
 8201W        W24095  12.151  10.570   2.746  0.0033  0.1294  0.2068
 8202W        W24096   0.049   4.421   3.405  0.2298 -0.2654 -0.2021
 8203W        W24097   0.152  11.484   3.983  0.2722 -0.0557  0.3602
 8204W        W24098   2.895   3.627   5.633  0.1432 -0.3987 -0.0627
 8205W        W24099   8.872  18.022   2.637  0.1250 -0.0040 -0.1386
 8206W        W24100  11.150  14.102   0.461 -0.1235 -0.3300 -0.1709
 8207W        W24101  12.176   7.274   0.791  0.0251 -0.2633 -0.2363
 8208W        W24102  17.250  14.429  14.983 -0.2440  0.2778 -0.2335
 8209W        W24103  10.373  17.318  14.926  0.0053  0.1066  0.1253
 8210W        W24104   8.119   8.694  11.195  0.0960  0.0566 -0.1579
 8211W        W24105   0.272  10.739   0.031  0.2985  0.0292  0.2702
 8212W        W24106   6.008  13.741   3.746  0.2830  0.1619  0.3279
 8213W        W24107  17.257  17.883   0.965  0.1305 -0.0793  0.3186
 8214W        W24108  17.386  10.919  14.573  0.0955 -0.0222  0.0523
 8215W        W24109  10.240  16.036   4.571  0.2216 -0.1209  0.1019
 8216W        W24110   8.182   5.869   3.794 -0.1212  0.0042  0.1049
 8217W        W24111  11.931   3.173  10.332  0.1344 -0.1921 -0.0349
 8218W        W24112  11.260  14.044   1.204 -0.2654 -0.3609  0.0021
 8219W        W24113  18.704   7.013   5.221 -0.0940 -0.2919  0.1060
 8220W        W24114   7.335  19.134   0.029  0.0736 -0.3017 -0.3034
 8221W        W24115   3.193   1.611   4.505 -0.1048 -0.0707 -0.0116
 8222W        W24116   8.171   3.404  14.606 -0.0250 -0.0128  0.5141
 8223W        W24117  17.254  16.006  10.761 -0.0219  0.0359 -0.0316
 8224W        W24118   8.553  12.613  12.001 -0.0058  0.0237  0.0544
 8225W        W24119   4.963  10.562   1.188  0.2200 -0.0952 -0.1253
 8226W        W24120  13.229  16.326  10.122 -0.1194 -0.2581 -0.1560
 8227W        W24121   9.392   8.876   0.559 -0.3163 -0.0790  0.0889
 8228W        W24122   4.500   8.028  13.265 -0.2251 -0.0457  0.0931
 8229W        W24123  16.902   1.618   0.217 -0.3320  0.1369  0.3292
 8230W        W24124   1.707  19.194  11.140 -0.1045 -0.0205  0.1699
 8231W        W24125   7.555   2.810   1.050 -0.3574  0.3369  0.1222
 8232W        W24126   6.393   9.964  13.623  0.3616 -0.0402 -0.3577
 8233W        W24127   5.782   9.743  11.695  0.0268  0.2702 -0.0873
 8234W        W24128   7.718  14.361   2.038 -0.3189 -0.1097 -0.2634
 8235W        W24129   7.662   8.170   0.137  0.0646 -0.1476  0.0145
 8236W        W24130   5.179  10.602   2.507  0.1798  0.3959 -0.0389
 8237W        W24131   4.131  17.398   5.491  0.3698  0.0289 -0.4823
 8238W        W24132  10.023  10.233  13.953  0.2167  0.3295 -0.2231
 8239W        W24133   7.221   3.132  11.205  0.0353 -0.2929  0.1410
 8240W        W24134  11.803  14.165   0.188  0.0656  0.1315  0.2935
 8241W        W24135   2.657   2.737  13.774 -0.0699 -0.1574  0.0225
 8242W        W24136  13.233  11.157  10.490  0.0213 -0.0289  0.1499
 8243W        W24137   4.698   9.179   5.246 -0.0902 -0.0634  0.0874
 8244W        W24138  10.419   7.493   0.780  0.0542 -0.0449 -0.3265
 8245W        W24139  14.010  18.834  11.095  0.2080 -0.0845  0.1301
 8246W        W24140  13.347   6.030  11.783  0.1726  0.4966 -0.1123
 8247W        W24141  11.977   2.792  11.530 -0.4283 -0.1569  0.1759
 8248W        W24142   0.097   4.323  14.102 -0.3928 -0.0267 -0.1772
 8249W        W24143   9.505   6.456   4.187  0.1433  0.2044  0.0734
 8250W        W24144  15.892   7.969   0.512 -0.0492  0.4132 -0.2320
 8251W        W24145  18.175   4.970   5.464 -0.1644 -0.1872 -0.1900
 8252W        W24146  15.188   9.745  11.759  0.0429 -0.0406  0.0410
 8253W        W24147   7.858  14.724   1.172 -0.0985  0.1813 -0.3338
 8254W        W24148  11.191  12.858   0.816  0.1889  0.1393 -0.3217
 8255W        W24149   7.692  15.520   2.366 -0.1300 -0.1988 -0.0523
 8256W        W24150   1.366  17.113   4.017  0.0227 -0.1207  0.1848
 8257W        W24151   5.227   6.074  11.464  0.2925  0.1280 -0.1030
 8258W        W24152  15.164  10.878  14.501  0.2163  0.2314 -0.0608
 8259W        W24153  17.903   1.347  10.956 -0.2654 -0.1793  0.0589
 8260W        W24154   3.024   8.663  14.518 -0.1977 -0.0815  0.1579
 8261W        W24155   0.511   0.182  13.484  0.1981 -0.0869 -0.0968
 8262W        W24156  13.729   9.691  11.742 -0.2436 -0.2600 -0.1961
 8263W        W24157   6.670  15.087   0.958  0.1000 -0.1069 -0.2715
 8264W        W24158  19.149   8.033  13.179  0.2645  0.1894 -0.2985
 8265W        W24159   7.354   9.095  10.663  0.2866 -0.3354  0.1318
 8266W        W24160   7.408   6.707  11.811  0.0741  0.0443  0.0329
 8267W        W24161   0.568  10.853  10.020  0.0863 -0.4230 -0.1369
 8268W        W24162  17.531   2.469   1.148 -0.1962 -0.1143  0.3751
 8269W        W24163  14.655   3.455  12.249 -0.1951  0.0913 -0.1507
 8270W        W24164  17.876   0.418   1.431  0.0757 -0.1735 -0.3292
 8271W        W24165   1.076  17.935   2.410 -0.0633  0.1070 -0.2100
 8272W        W24166  15.228   1.375  14.348 -0.0089  0.0118  0.2936
 8273W        W24167  15.108  13.218   1.067 -0.1808 -0.0047  0.2995
 8274W        W24168  18.103   6.643  12.281 -0.1877  0.0143 -0.2214
 8275W        W24169  16.747  13.630  10.206  0.6177 -0.0406 -0.0372
 8276W        W24170  18.154  15.057  12.373  0.1985  0.1742  0.0360
 8277W        W24171  10.458   2.037  14.803  0.2787  0.1377 -0.0708
 8278W        W24172   7.540  12.238   0.300 -0.0028  0.0003 -0.1732
 8279W        W24173   6.902   6.077   1.718 -0.2916 -0.2639  0.2334
 8280W        W24174   5.502   7.651  14.364  0.0407  0.2715 -0.1892
 8281W        W24175   5.954  15.469  12.103  0.0247  0.2112  0.2337
 8282W        W24176   7.077   5.355   2.264 -0.0989  0.0773 -0.0808
 8283W        W24177   4.653   9.379  12.274  0.0155 -0.1371 -0.2252
 8284W        W24178  19.019   9.033   4.839  0.0998 -0.3962  0.0587
 8285W        W24179   7.392   3.227   2.786  0.0032 -0.0583 -0.1801
 8286W        W24180   6.094  14.110   2.925 -0.1042  0.2767 -0.1071
 8287W        W24181   5.478  11.432   9.743  0.0435 -0.0259  0.0259
 8288W        W24182  16.544   0.034  11.061  0.0933 -0.3453 -0.0210
 8289W        W24183   5.052  11.655  13.609  0.0216 -0.0646 -0.3077
 8290W        W24184   1.456   2.005   4.478  0.3604 -0.0969  0.1446
 8291W        W24185  16.249   8.811  12.585 -0.2296  0.0669 -0.0887
 8292W        W24186  18.690   5.597  14.053 -0.2320 -0.0439  0.0607
 8293W        W24187   9.328  18.224   3.726  0.0205 -0.2627  0.0531
 8294W        W24188  11.199  13.305   4.479  0.3250  0.2342 -0.1417
 8295W        W24189  16.424  12.674  11.089  0.0147  0.1484 -0.2191
 8296W        W24190   3.585  17.951  13.210  0.0293  0.0809 -0.4685
 8297W        W24191   7.237   8.656  14.504 -0.1652 -0.3679 -0.0056
 8298W        W24192  16.592   5.067  13.199 -0.2807 -0.2155  0.0656
 8299W        W24193  18.857  14.583  13.285  0.1844 -0.1524  0.1228
 8300W        W24194   3.209   9.116   3.974  0.3786 -0.2242  0.0985
 8301W        W24195  12.670   3.878   3.129 -0.0028  0.0896 -0.1675
 8302W        W24196   9.582   5.707   3.488 -0.0860 -0.1727 -0.2915
 8303W        W24197  11.299   2.336  14.845 -0.1817  0.0150  0.0959
 8304W        W24198  13.525  11.634   4.921 -0.0957  0.2439  0.0439
 8305W        W24199  11.893   6.015  12.058 -0.0397 -0.0818 -0.4210
 8306W        W24200   1.374   6.638  12.274 -0.0572 -0.0294 -0.2028
 8307W        W24201   8.053  15.889   3.289 -0.1846  0.1851 -0.0617
 8308W        W24202  17.175   6.682  13.942  0.2065  0.2447  0.3484
 8309W        W24203   2.654   3.338  11.647 -0.0498 -0.0263 -0.3039
 8310W        W24204  17.233   9.913  12.925 -0.3700  0.1792  0.1598
 8311W        W24205  18.154  15.170   0.162 -0.1392 -0.1413 -0.2142
 8312W        W24206   4.074  17.315   1.623  0.0718  0.1021 -0.0229
 8313W        W24207  17.674  17.696   0.802  0.0218 -0.2665 -0.3877
 8314W        W24208   9.123  15.702  13.132 -0.1228  0.0644  0.3145
 8315W        W24209   0.237   0.922  12.422  0.2531 -0.2131  0.0864
 8316W        W24210   2.308   5.187  12.980 -0.1209 -0.1402  0.0288
 8317W        W24211  11.388   0.044   1.549 -0.1617  0.0996 -0.1204
 8318W        W24212   9.291   9.587   1.179 -0.2051  0.1500  0.4508
 8319W        W24213  17.028  11.963  15.024  0.0795 -0.0278  0.0174
 8320W        W24214  11.576  14.636  13.599  0.0142  0.1657  0.1219
 8321W        W24215  15.646  16.438   0.034  0.1061  0.2419  0.1231
 8322W        W24216   3.457   5.456  14.156 -0.1760 -0.0197  0.1297
 8323W        W24217  18.767   6.160  11.405 -0.1423  0.0296  0.0069
 8324W        W24218  11.095  13.807   2.230  0.3693  0.1553 -0.3747
 8325W        W24219   8.079   8.295   3.854 -0.0499 -0.3091 -0.0850
 8326W        W24220  14.740  17.358   1.521 -0.1246 -0.6531  0.2191
 8327W        W24221   0.230  17.108   3.744 -0.2122 -0.1154 -0.0062
 8328W        W24222   3.056   8.021   1.870  0.1085  0.0073 -0.2653
 8329W        W24223   9.289   3.499  13.884  0.0873 -0.3764 -0.2036
 8330W        W24224   1.905   4.398   5.021  0.1327  0.0539 -0.2764
 8331W        W24225   0.036  11.187   3.514  0.2811  0.0280 -0.1978
 8332W        W24226  13.048  12.788  13.783 -0.0679 -0.1591  0.0392
 8333W        W24227   4.063  13.660   2.116  0.1365 -0.2031  0.1321
 8334W        W24228   0.885   3.948   1.476  0.2796 -0.3251  0.0942
 8335W        W24229   1.959   0.412   4.909 -0.0505 -0.0845 -0.0122
 8336W        W24230   6.199   9.643  11.235  0.0329  0.3202  0.0501
 8337W        W24231  11.388  16.645  13.462 -0.0343 -0.0293 -0.0705
 8338W        W24232  11.560  19.069  15.031 -0.0053  0.1113  0.1626
 8339W        W24233  10.229  17.055   1.100  0.1090  0.2256  0.1702
 8340W        W24234   6.337   7.499   4.960  0.0474 -0.1971 -0.3497
 8341W        W24235  17.718  12.391   4.655  0.1327  0.0680 -0.1607
 8342W        W24236  12.655  15.527   0.740 -0.0879 -0.1343 -0.0398
 8343W        W24237   6.883  16.289  13.311  0.2334  0.2272 -0.3307
 8344W        W24238  13.149   1.666   3.768  0.2238  0.0271 -0.2385
 8345W        W24239   7.395  14.059   2.309  0.1840  0.2955 -0.2095
 8346W        W24240  11.775  15.021  10.447  0.3686 -0.3075 -0.1325
 8347W        W24241   0.590  11.130   0.208 -0.1363 -0.2554 -0.0337
 8348W        W24242  15.071  11.528  14.827 -0.1139  0.1600 -0.0528
 8349W        W24243   2.256  11.612   0.030 -0.1373  0.0067 -0.1794
 8350W        W24244   6.986   4.716   0.662  0.3735  0.1323 -0.0084
 8351W        W24245  15.111  19.135  14.356 -0.2217 -0.0537 -0.0810
 8352W        W24246   9.090   2.364   4.138 -0.1008 -0.1158 -0.1337
 8353W        W24247   7.872   7.324   0.925  0.1097 -0.2469 -0.0772
 8354W        W24248  15.778  12.774  12.560  0.4576 -0.3508  0.0186
 8355W        W24249   8.189  17.607  11.175  0.0512  0.0573  0.2521
 8356W        W24250   7.154   8.333   0.068  0.6202 -0.1424  0.0221
 8357W        W24251  10.658  19.172  13.142  0.0003  0.1466 -0.0339
 8358W        W24252   9.018  13.192   3.832 -0.0970 -0.2241 -0.0387
 8359W        W24253   5.717   5.840   5.015  0.2544  0.1065 -0.1448
 8360W        W24254   4.360  15.530   1.371  0.2830 -0.0671  0.0896
 8361W        W24255  10.772   5.102   0.624  0.0273 -0.0359 -0.0509
 8362W        W24256  14.262  17.964  13.925 -0.3195 -0.0849  0.2766
 8363W        W24257  17.012   9.425  12.945 -0.0352  0.1795  0.3333
 8364W        W24258  13.315  12.397   0.729 -0.1812  0.5108 -0.0542
 8365W        W24259   8.781  18.490  12.097  0.1588 -0.1151  0.0581
 8366W        W24260   4.144  18.444  12.246  0.0178  0.0895 -0.0835
 8367W        W24261  17.752  11.331  11.522 -0.3789  0.0943 -0.0785
 8368W        W24262  16.436  16.986  10.423 -0.1928 -0.1261 -0.1763
 8369W        W24263  15.507   1.809  13.285 -0.0252 -0.0829 -0.1968
 8370W        W24264  10.409  13.430   2.227 -0.1945 -0.0298  0.0208
 8371W        W24265  12.833   8.350  14.810  0.0133 -0.0585 -0.1481
 8372W        W24266  13.215   8.592   0.960  0.0937 -0.3482 -0.2302
 8373W        W24267  10.033   3.813   2.677  0.0062 -0.1066 -0.1386
 8374W        W24268  17.251  15.100   0.741  0.2153 -0.3086  0.1633
 8375W        W24269   4.447  16.673   1.060 -0.1065  0.1585  0.2275
 8376W        W24270  18.223  15.664  11.071  0.2185 -0.1410 -0.1652
 8377W        W24271   4.739  11.449   1.021  0.2215 -0.0106 -0.3904
 8378W        W24272   6.150   1.234   5.376  0.1395 -0.0592  0.1303
 8379W        W24273   2.336  10.275  12.405  0.0623 -0.2192 -0.1451
 8380W        W24274  12.355  11.246  13.155  0.1917 -0.0065 -0.4071
 8381W        W24275   3.434   7.325   3.615  0.3513 -0.0259 -0.2255
 8382W        W24276  10.594   1.839   3.667  0.2129  0.3448 -0.2620
 8383W        W24277  12.548   8.641   2.143  0.3263  0.2518 -0.0171
 8384W        W24278   6.411  13.534  12.991 -0.0887  0.0890 -0.0521
 8385W        W24279  12.563   2.741   1.657  0.0584 -0.0982  0.5117
 8386W        W24280   3.894  19.152   1.680 -0.1845 -0.2324  0.1528
 8387W        W24281   3.108  11.943  10.435 -0.4567 -0.0183 -0.1034
 8388W        W24282   9.963  11.639   3.606  0.3986 -0.1679 -0.1115
 8389W        W24283   0.458   9.838   1.380  0.1502 -0.0381  0.0213
 8390W        W24284  11.810   5.139   5.260  0.0530  0.2782 -0.0999
 8391W        W24285  10.981  12.114  14.584 -0.0492 -0.0154  0.1750
 8392W        W24286   3.699  18.913  12.966  0.1862  0.0618 -0.2114
 8393W        W24287   4.030  16.499  10.085 -0.0281 -0.0866 -0.0015
 8394W        W24288  13.184   4.379  12.469 -0.3244 -0.1891  0.4975
 8395W        W24289  11.442   6.670  12.435  0.1232 -0.0159  0.1633
 8396W        W24290  13.236  14.895  10.629  0.0944 -0.3245 -0.3150
 8397W        W24291  14.961  19.082  11.138  0.3642  0.1255  0.0571
 8398W        W24292  18.944   7.614  10.929 -0.2187  0.1473 -0.1691
 8399W        W24293  14.248  13.546   3.845 -0.1878 -0.1799  0.1249
 8400W        W24294  11.650   1.543  14.312  0.1579 -0.0023 -0.3951
 8401W        W24295  13.826   7.718   4.043  0.0153  0.1043 -0.2945
 8402W        W24296  10.006   3.162  12.717  0.0895 -0.1380 -0.2600
 8403W        W24297  15.710  12.050  14.831  0.3671 -0.4041  0.0749
 8404W        W24298  18.226   2.197  13.638  0.1260 -0.0583  0.0871
 8405W        W24299  10.236  11.813  11.406 -0.3419  0.2277  0.1641
 8406W        W24300   1.401  18.551   0.606  0.1423 -0.1058  0.1924
 8407W        W24301  10.975  10.179  12.022 -0.1386  0.0130  0.0515
 8408W        W24302  12.845   7.631   2.055  0.0637 -0.1632  0.2918
 8409W        W24303  18.342   9.691  12.401  0.2790 -0.4770 -0.2099
 8410W        W24304  14.900  18.576  11.055  0.0097 -0.1079  0.0845
 8411W        W24305  17.136  17.057   0.930 -0.0585  0.2891 -0.1788
 8412W        W24306  17.200   5.792  14.899 -0.1382  0.3409  0.0515
 8413W        W24307   7.637  16.301  10.877 -0.1170 -0.2016  0.2015
 8414W        W24308   3.380  15.872   0.687 -0.1480 -0.1092 -0.1672
 8415W        W24309  16.224  12.890   1.223  0.0679  0.1608  0.1201
 8416W        W24310  18.935  18.222   3.569 -0.4320 -0.2425  0.1952
 8417W        W24311  17.608   6.503   2.109  0.1820  0.0173 -0.1035
 8418W        W24312   6.956   0.249   4.695  0.0983  0.1064 -0.1899
 8419W        W24313   7.569  18.630   1.815  0.0400  0.0632 -0.1934
 8420W        W24314  10.966   2.530  11.090  0.0459 -0.0417 -0.1491
 8421W        W24315   0.412   4.091   2.169  0.1901  0.1921 -0.2333
 8422W        W24316  13.186   2.329   2.736 -0.4510 -0.1941 -0.2515
 8423W        W24317   9.645  11.447   9.837  0.1937 -0.0807 -0.0983
 8424W        W24318   9.850   8.000   2.340 -0.1154 -0.0937  0.0844
 8425W        W24319   3.235  10.639   1.148  0.1772 -0.1136  0.0495
 8426W        W24320  17.070  13.540  13.104  0.0087  0.0423  0.1283
 8427W        W24321  15.626   9.322   0.426 -0.1397  0.0380 -0.0355
 8428W        W24322   9.760  18.690  13.597 -0.1068 -0.0236  0.0191
 8429W        W24323  16.379   9.475   0.100 -0.1912  0.1055  0.0835
 8430W        W24324  13.116   3.537   4.559  0.0934  0.2213  0.1170
 8431W        W24325   3.008  19.144  11.175 -0.0536  0.3407 -0.0753
 8432W        W24326  10.557  10.071   0.230  0.1470  0.2454 -0.0889
 8433W        W24327   2.926   4.038   0.275 -0.1557  0.2083 -0.2855
 8434W        W24328   2.841  14.278   2.181  0.2085 -0.0931  0.1486
 8435W        W24329  19.035   8.082  12.116 -0.0013  0.1085  0.2156
 8436W        W24330  16.986   8.592  11.036  0.1867 -0.2003  0.0770
 8437W        W24331  10.335   0.987   0.252 -0.1238  0.0537  0.1547
 8438W        W24332   4.182  17.591  14.937 -0.1315 -0.1961 -0.0932
 8439W        W24333   0.108   1.481   1.989  0.3910 -0.0394 -0.0170
 8440W        W24334   7.018  14.988   2.169  0.1557  0.2293  0.0899
 8441W        W24335   9.520  13.873   4.008  0.1009 -0.0519 -0.0198
 8442W        W24336  16.528   9.656   2.919  0.1873  0.0992 -0.0288
 8443W        W24337  13.440  16.702   9.898 -0.3021 -0.0081  0.3712
 8444W        W24338   8.933  14.889   9.797 -0.4171 -0.1039 -0.4435
 8445W        W24339  14.917   6.155   4.258  0.1955 -0.0680 -0.3203
 8446W        W24340   4.477  17.964  13.557 -0.0687 -0.1342  0.0300
 8447W        W24341  15.133  16.151  10.351 -0.1508 -0.2312  0.1818
 8448W        W24342  12.476  15.692  11.103 -0.0179 -0.1002 -0.0054
 8449W        W24343   5.356   6.831   4.608 -0.0718 -0.0591 -0.0801
 8450W        W24344   6.491   8.945  10.730 -0.2828 -0.2057 -0.3519
 8451W        W24345   1.866  18.864   0.764  0.0599  0.2460 -0.3420
 8452W        W24346  10.361  10.776   3.813  0.0496 -0.1801 -0.1252
 8453W        W24347   2.469  10.659   3.958 -0.3406 -0.2705  0.3065
 8454W        W24348   9.324  18.429  13.672 -0.2155 -0.2382  0.0214
 8455W        W24349  13.422  11.087  14.296 -0.1689 -0.1159  0.0109
 8456W        W24350   7.398   1.312  10.474  0.2476  0.0054 -0.2038
 8457W        W24351   6.240   3.317  13.592 -0.1524 -0.0747  0.2422
 8458W        W24352  10.244  17.222   1.662 -0.0212  0.0529  0.0617
 8459W        W24353  14.553  10.303   0.228  0.0203  0.0263  0.1038
 8460W        W24354  17.738  14.460  12.704  0.3234  0.0143  0.2301
 8461W        W24355  18.168  17.610   3.366 -0.1369  0.0098  0.1492
 8462W        W24356   1.874  17.104   5.341  0.1434  0.3956  0.0051
 8463W        W24357  19.197  13.045   3.314 -0.0613 -0.2765 -0.2687
 8464W        W24358   6.366  11.865   0.765 -0.0499 -0.2111  0.1181
 8465W        W24359  11.426   0.549   1.305  0.2770 -0.1396  0.1918
 8466W        W24360   4.404  13.212   0.784  0.2533 -0.1192 -0.1963
 8467W        W24361  10.234   5.964   1.590  0.2102 -0.3228  0.0637
 8468W        W24362  15.259   6.009  14.799  0.0160 -0.0882 -0.1570
 8469W        W24363  11.536   5.486   3.114 -0.0668  0.0628  0.2900
 8470W        W24364  18.909   3.234   5.140 -0.1908 -0.0453  0.2376
 8471W        W24365   3.104   9.878  14.633 -0.1154 -0.2775  0.1036
 8472W        W24366   4.761   7.611   4.281 -0.2322  0.0785 -0.0297
 8473W        W24367   0.566  11.580   4.227  0.1616 -0.0585 -0.1784
 8474W        W24368  16.524  16.899  13.084 -0.2605 -0.0427 -0.2496
 8475W        W24369  14.159  10.906  13.910 -0.2092  0.2206 -0.2129
 8476W        W24370   6.718  17.369   0.537 -0.2094 -0.0347  0.0434
 8477W        W24371   3.167  13.578   4.194  0.2900  0.0840 -0.2341
 8478W        W24372  18.294  17.158  10.855  0.4520  0.2411 -0.0226
 8479W        W24373  14.250  11.570   3.668  0.5316  0.2807 -0.1986
 8480W        W24374  17.612  13.399   9.924 -0.0796  0.1361 -0.0567
 8481W        W24375  16.739  12.534   0.558  0.0810 -0.1059  0.2133
 8482W        W24376   3.383   4.841  11.784 -0.3540 -0.4282 -0.1699
 8483W        W24377   0.577   4.987  12.644 -0.1374  0.1432 -0.0417
 8484W        W24378   9.449   6.051   4.423  0.0003  0.1332  0.1508
 8485W        W24379  15.159  15.736   2.285 -0.0694  0.2784  0.0094
 8486W        W24380  13.301  16.245   4.781  0.0881  0.2130  0.0188
 8487W        W24381  18.586   8.672   2.404 -0.0780 -0.0163  0.0942
 8488W        W24382  10.726   0.766   2.531  0.1364  0.2746 -0.1938
 8489W        W24383  11.118   2.428   4.934  0.3157  0.3919 -0.0981
 8490W        W24384   5.768   8.884  13.674 -0.0942 -0.1079  0.2919
 8491W        W24385   5.659   4.762   1.798 -0.0714 -0.1553 -0.0334
 8492W        W24386   5.151  13.536  11.641  0.2434 -0.4265 -0.0935
 8493W        W24387  10.913   1.573  11.125 -0.2322 -0.0371 -0.1686
 8494W        W24388   1.340   9.431  10.170  0.0966 -0.0029  0.3745
 8495W        W24389   6.247   7.320   4.424  0.1635 -0.0829  0.0346
 8496W        W24390   7.638  17.435  12.873 -0.1432 -0.0958  0.1789
 8497W        W24391  11.210  15.585   3.588 -0.2882 -0.3085  0.0369
 8498W        W24392  18.360   1.654   4.077  0.0781 -0.0769  0.3177
 8499W        W24393   4.799   4.494   1.549 -0.0961  0.2639  0.2158
 8500W        W24394   8.248  18.286  12.783  0.1743  0.2445 -0.1617
 8501W        W24395  16.103  13.613   5.379  0.0843  0.0967 -0.0596
 8502W        W24396   4.978   7.236  14.449 -0.4977  0.0074  0.2170
 8503W        W24397   4.445   6.288   0.412 -0.0251  0.0533 -0.1794
 8504W        W24398  13.913  12.495   1.195 -0.0167 -0.3395 -0.0074
 8505W        W24399  11.927   2.291   4.799 -0.0842  0.1487  0.1182
 8506W        W24400  12.181   9.536   1.833 -0.0900  0.3045  0.2232
 8507W        W24401   2.577  16.921  10.889 -0.0228  0.1376 -0.3730
 8508W        W24402   6.681  10.352   3.718 -0.1065 -0.2763 -0.0514
 8509W        W24403   3.711  16.043   1.716  0.2023 -0.1976 -0.1080
 8510W        W24404  16.942  13.032  12.959 -0.1141  0.1154 -0.3696
 8511W        W24405   7.232   6.069  15.025  0.0578 -0.0390 -0.0670
 8512W        W24406   6.155  15.122  14.436  0.5651  0.2011 -0.4182
 8513W        W24407  13.387   1.789  11.899 -0.3634  0.2170  0.0658
 8514W        W24408  12.507  14.926   3.987  0.2827 -0.0930  0.7653
 8515W        W24409  16.743   4.043  12.948  0.1258 -0.1327 -0.2459
 8516W        W24410   9.092   1.927  13.374  0.1943  0.0935  0.3259
 8517W        W24411   8.539  17.572   9.359 -0.0583 -0.1536  0.0580
 8518W        W24412  12.691  19.016  14.069  0.0440  0.0683 -0.1484
 8519W        W24413  13.639  13.887   4.997 -0.0485  0.1140  0.0127
 8520W        W24414  16.142   5.080   4.184  0.2756  0.0266  0.1153
 8521W        W24415  15.375   3.413   0.019 -0.1942 -0.0514  0.1724
 8522W        W24416  16.701  16.930   2.499 -0.2457 -0.5330  0.2333
 8523W        W24417   9.108  10.711   3.378  0.3023  0.2201 -0.0798
 8524W        W24418   3.759  16.963  13.996  0.0490  0.1044  0.0276
 8525W        W24419  10.465  14.645   1.002  0.1936 -0.0811  0.0600
 8526W        W24420  13.198  15.566  11.702  0.0663  0.1687 -0.0417
 8527W        W24421   3.314  15.285  12.367 -0.2402 -0.1556  0.2134
 8528W        W24422   6.648  10.781   9.813 -0.1278 -0.2299 -0.0164
 8529W        W24423   7.173   7.391  14.404 -0.2010 -0.3529 -0.0570
 8530W        W24424  17.536   6.926  10.952 -0.1687  0.4267  0.0433
 8531W        W24425   0.305   9.792   0.158  0.5172  0.0412 -0.0347
 8532W        W24426  16.595  13.501  11.718 -0.2634  0.0248  0.0107
 8533W        W24427   9.316  12.383   3.382  0.2040  0.1890  0.1274
 8534W        W24428   2.350  15.800   1.419  0.0654  0.0827 -0.0707
 8535W        W24429   6.344   6.715   4.278  0.1770 -0.2728  0.3843
 8536W        W24430   0.632   8.560  13.845  0.0000  0.0528 -0.2786
 8537W        W24431   6.842   4.947   1.740 -0.3601 -0.4003  0.3536
 8538W        W24432   6.820  11.291   3.629 -0.0656 -0.2314 -0.1036
 8539W        W24433  11.914   8.443   3.823  0.1921  0.1534 -0.0874
 8540W        W24434  18.684  13.396   0.251 -0.3240  0.2025  0.2256
 8541W        W24435  12.134  13.762   3.688 -0.0935  0.0492 -0.5402
 8542W        W24436  18.871  16.705  14.171  0.0040  0.3294 -0.1867
 8543W        W24437   9.631   5.954  14.511  0.1438 -0.1767  0.1365
 8544W        W24438   9.746   1.749   2.461  0.1534 -0.1394  0.1504
 8545W        W24439   8.000  12.198  12.335  0.0987  0.0947  0.1308
 8546W        W24440  17.252  12.147   9.330 -0.2274 -0.0023 -0.0916
 8547W        W24441  13.103   0.311   0.176 -0.0180 -0.4805  0.2312
 8548W        W24442   5.269  14.572   2.011 -0.1801 -0.2173 -0.1787
 8549W        W24443  11.191  16.579  13.001 -0.2344  0.2360 -0.0664
 8550W        W24444   9.847  15.687   1.215  0.0426 -0.1197  0.1454
 8551W        W24445   8.201   1.630   3.803 -0.0367 -0.4211 -0.1272
 8552W        W24446  10.151   6.869   1.571  0.3449  0.0712 -0.2501
 8553W        W24447  15.653   6.478   5.168 -0.1371 -0.1711  0.0749
 8554W        W24448  15.501  19.068  11.522 -0.1144  0.1133  0.0602
 8555W        W24449   3.332   3.553   4.816  0.2726  0.1352 -0.2488
 8556W        W24450   2.932  14.196   1.301 -0.1156 -0.2961 -0.2887
 8557W        W24451   6.653   7.170  14.794 -0.0675 -0.0239  0.0274
 8558W        W24452   3.774   0.674  14.800 -0.0135  0.1926 -0.3813
 8559W        W24453  16.493   8.776   0.698  0.3650  0.2105 -0.3740
 8560W        W24454   9.741  19.026   2.424  0.0900 -0.1357  0.0276
 8561W        W24455   9.494   7.106  13.787 -0.1318 -0.3856 -0.1543
 8562W        W24456  12.753  10.071  10.803  0.0461 -0.1934 -0.0903
 8563W        W24457   8.555   7.725   4.564 -0.1063  0.0253 -0.3231
 8564W        W24458  12.939   6.273   0.360  0.1451 -0.0536  0.0069
 8565W        W24459  14.090   5.991  11.816 -0.3046 -0.2831 -0.4190
 8566W        W24460  12.664   4.469   2.676  0.2812  0.1922 -0.2749
 8567W        W24461   7.749   8.962   5.488  0.4423 -0.0891  0.2585
 8568W        W24462   9.997  17.732   2.579  0.0736 -0.0826  0.3288
 8569W        W24463   2.535   1.610   1.470 -0.0565 -0.2585 -0.0268
 8570W        W24464   7.375  13.881  10.360 -0.0169  0.2307 -0.3786
 8571W        W24465  12.383   0.817   0.101 -0.1147 -0.1362  0.2031
 8572W        W24466   3.183  14.266  11.741 -0.3150  0.1365 -0.0241
 8573W        W24467  18.855   0.648  11.882  0.1662 -0.4530  0.1333
 8574W        W24468   7.598   6.117  13.330  0.0765 -0.0525 -0.2211
 8575W        W24469  13.105   1.042  10.251 -0.0768 -0.0422  0.3229
 8576W        W24470   4.825  15.791  14.803  0.1886 -0.0184 -0.0469
 8577W        W24471   0.356  13.858   0.129  0.2198 -0.0160  0.0800
 8578W        W24472  17.269  16.130   3.038  0.0567  0.2050  0.1659
 8579W        W24473   8.245   4.231   1.649 -0.0098  0.1058  0.0486
 8580W        W24474   7.953   6.945   0.561 -0.0502  0.1711 -0.0472
 8581W        W24475  19.216   1.234   3.548 -0.0013  0.1245 -0.0438
 8582W        W24476  19.222   4.728   2.297 -0.1461  0.1715 -0.0515
 8583W        W24477  10.414  13.876  13.854 -0.1175  0.0991 -0.0225
 8584W        W24478  17.488   9.508   2.763  0.6296 -0.5036 -0.5691
 8585W        W24479  17.438   7.342  14.534  0.0324 -0.3454 -0.2635
 8586W        W24480   7.963   1.664  12.962 -0.0134  0.0368  0.0650
 8587W        W24481  11.601   7.361   4.824  0.0554  0.4464  0.1308
 8588W        W24482  12.267   0.277   3.683 -0.1408 -0.1193  0.0053
 8589W        W24483   1.322   8.922   5.234  0.2338 -0.2545  0.0681
 8590W        W24484  10.833   0.309  14.864 -0.2082  0.1577 -0.1102
 8591W        W24485   3.901   8.174  11.918  0.0631  0.3576  0.2696
 8592W        W24486  16.865  16.072  11.206 -0.0050  0.1097  0.0277
 8593W        W24487   0.267  14.277   0.331 -0.1026  0.0469  0.2173
 8594W        W24488   3.367  14.237   3.422 -0.2978  0.0293  0.1613
 8595W        W24489   0.265   3.224  10.744  0.1190 -0.1408  0.0467
 8596W        W24490  17.574  15.524   9.399  0.0775 -0.1347  0.5847
 8597W        W24491   2.699  17.449   0.745 -0.1165 -0.2367  0.1558
 8598W        W24492   1.593  16.388  14.777 -0.1993  0.0339 -0.2857
 8599W        W24493   8.698   4.415  14.093  0.2139  0.1936 -0.1527
 8600W        W24494   2.695   8.564   2.970  0.2341 -0.1858 -0.1269
 8601W        W24495  18.284   5.195   2.002 -0.2562 -0.4895 -0.1946
 8602W        W24496   8.799  17.131  12.088  0.3758  0.0238 -0.0082
 8603W        W24497   9.007   3.315  14.407 -0.0015 -0.2510  0.1683
 8604W        W24498  17.947  18.127  11.427 -0.3181  0.0157  0.1029
 8605W        W24499   9.859   5.294   4.284 -0.0858 -0.5470 -0.0622
 8606W        W24500   9.686  14.468  12.719  0.2951 -0.0496  0.0467
 8607W        W24501   3.594   5.121   5.821  0.2259  0.0540  0.5713
 8608W        W24502  10.640   0.647   4.646  0.0195  0.0020  0.3594
 8609W        W24503  13.153  13.851  13.362  0.2682 -0.1911  0.2312
 8610W        W24504   3.715  13.988  14.552  0.1711  0.1996  0.0980
 8611W        W24505   2.345  12.333  14.267 -0.1258  0.1628 -0.0059
 8612W        W24506   4.026   6.716   1.791  0.0273  0.1898  0.2574
 8613W        W24507   0.996   0.075  14.193  0.1137 -0.1020  0.0337
 8614W        W24508   7.237   8.750  13.414  0.1679  0.0106 -0.2266
 8615W        W24509  15.072  13.599   2.243 -0.0825  0.0839 -0.2294
 8616W        W24510  11.264  16.836   3.621  0.0991 -0.2988 -0.1481
 8617W        W24511  14.147   0.369  10.899 -0.2133 -0.0059 -0.3475
 8618W        W24512   5.528  11.972   2.959  0.2656 -0.4897 -0.2406
 8619W        W24513   8.932  15.856  10.343  0.0771 -0.3355  0.0629
 8620W        W24514  12.678  11.820  12.144 -0.2215 -0.0306 -0.0703
 8621W        W24515   9.380  17.914  13.896  0.0403 -0.1502 -0.2310
 8622W        W24516   4.090  15.601   0.529  0.0456 -0.3206  0.2681
 8623W        W24517  15.815   0.457   2.487  0.1472 -0.0201 -0.0252
 8624W        W24518  13.025   3.684  11.419  0.1146 -0.1846  0.4656
 8625W        W24519  16.173  16.351  12.698  0.3179  0.2060 -0.2623
 8626W        W24520   1.957   0.060   3.949 -0.0644 -0.1505 -0.4828
 8627W        W24521  10.648  16.037  14.302 -0.1191  0.1547 -0.2383
 8628W        W24522   2.013  18.254   4.909  0.0924  0.2723  0.0792
 8629W        W24523   9.080  10.543   0.867 -0.0733 -0.3081 -0.3911
 8630W        W24524   3.668   5.998  14.265 -0.0099  0.2139  0.3353
 8631W        W24525  14.165   5.786  12.274  0.0318  0.2348  0.0887
 8632W        W24526   0.855  16.873  11.781  0.3398 -0.2973  0.0817
 8633W        W24527  17.426   4.435   0.180  0.0627 -0.0156  0.0545
 8634W        W24528  13.536  17.499   2.125  0.0955  0.2946 -0.3680
 8635W        W24529  14.278   8.243   2.289  0.1744 -0.2606 -0.3242
 8636W        W24530  12.794   0.185   1.920 -0.2145  0.2141 -0.4479
 8637W        W24531  17.975  15.958   1.418 -0.0794  0.0589  0.1388
 8638W        W24532  12.936  13.503   4.284  0.0788  0.0568 -0.1652
 8639W        W24533   2.045   3.565   0.078  0.1904  0.1316  0.0664
 8640W        W24534   0.462  18.731  12.854 -0.1930  0.0125 -0.1080
 8641W        W24535   7.556   6.549   0.337  0.2798 -0.2417 -0.1548
 8642W        W24536  13.612   4.105   1.488  0.0351 -0.2045 -0.2447
 8643W        W24537   0.543   5.660  12.610  0.4121  0.0816 -0.1242
 8644W        W24538  12.882  14.814  12.972 -0.1650  0.1536  0.2474
 8645W        W24539   3.169  11.804   3.801  0.0753 -0.2413  0.1923
 8646W        W24540  19.033  10.461  12.261 -0.1994 -0.0780 -0.1497
 8647W        W24541  17.961   3.783   3.748  0.1991  0.0497 -0.0266
 8648W        W24542  19.044  17.728  13.642  0.0053  0.0206 -0.2403
 8649W        W24543   5.165  11.132  13.271 -0.0552 -0.1190  0.1464
 8650W        W24544   5.176  10.688   4.687 -0.0132 -0.0759 -0.0270
 8651W        W24545   0.448  11.025  13.354  0.2811 -0.1540 -0.0247
 8652W        W24546  10.448   8.336  12.560  0.2885 -0.0185 -0.0496
 8653W        W24547   3.883   4.018  13.046  0.0411  0.1466 -0.0794
 8654W        W24548   1.431  10.151   2.284  0.1461  0.0963 -0.2321
 8655W        W24549   8.090   1.873  10.371  0.1826  0.1478  0.2331
 8656W        W24550   5.025   8.892  13.149 -0.2978 -0.0997 -0.1388
 8657W        W24551   7.600   1.227   0.292  0.0010 -0.1424 -0.1539
 8658W        W24552  15.670  13.149   2.038  0.0190  0.0867 -0.1072
 8659W        W24553  19.104  16.022   3.018  0.0762 -0.1461 -0.1088
 8660W        W24554  15.876  15.669  13.734  0.3123  0.5163 -0.1322
 8661W        W24555   2.869  14.598  14.850  0.0318  0.1876  0.1715
 8662W        W24556   9.382   5.329  13.958 -0.1866 -0.1074  0.2668
 8663W        W24557   7.298  13.531  11.291 -0.1507 -0.0036  0.0739
 8664W        W24558   6.578   9.564  10.911  0.2516 -0.0015  0.0332
 8665W        W24559  19.072   8.197  14.630  0.2346 -0.2625 -0.2420
 8666W        W24560   5.499   6.571  14.114  0.3041  0.2477  0.0759
 8667W        W24561  17.123   1.499  12.628  0.0047 -0.0409 -0.0815
 8668W        W24562  11.113   0.718  12.881  0.1310 -0.0751  0.0757
 8669W        W24563  10.519  17.315   4.785 -0.0457 -0.2104 -0.0555
 8670W        W24564  18.006   5.795  10.816  0.1650  0.0458 -0.0215
 8671W        W24565   0.794  13.596   0.606  0.2111  0.1558  0.2363
 8672W        W24566   4.336   3.424   3.031  0.0570 -0.1767  0.2864
 8673W        W24567  18.085   8.358   2.211  0.1001  0.1472 -0.0826
 8674W        W24568   8.640   4.977   1.908 -0.0231  0.5744 -0.2826
 8675W        W24569  16.110  18.494   3.039 -0.5567 -0.0567 -0.0570
 8676W        W24570   0.241   7.387   2.805 -0.2228 -0.1303 -0.3147
 8677W        W24571  12.890   4.062   0.093 -0.2053  0.0734 -0.1487
 8678W        W24572  17.992   7.867   1.439 -0.0024  0.0653 -0.4930
 8679W        W24573   0.729  18.033  11.336  0.0106 -0.0250  0.1144
 8680W        W24574   8.745   6.279   0.650  0.1977 -0.0449 -0.0640
 8681W        W24575  17.330   2.458   4.229  0.1248  0.1454  0.2717
 8682W        W24576  13.920  17.942   1.245 -0.3125 -0.0657  0.1165
 8683W        W24577  13.814  17.762  12.743  0.0879 -0.3428 -0.1179
 8684W        W24578   8.900  10.154  10.400  0.3433  0.0798 -0.1219
 8685W        W24579   6.728   6.032  14.605  0.2024 -0.2254  0.1874
 8686W        W24580  17.722  14.239   2.010  0.0646 -0.1879  0.1884
 8687W        W24581   5.821  11.148  11.226  0.0064 -0.0573  0.1220
 8688W        W24582  15.268   7.685   4.495  0.1296  0.1553 -0.3003
 8689W        W24583   6.100  11.308  14.942  0.1440 -0.2553 -0.1052
 8690W        W24584   8.101   2.986  14.950 -0.2044  0.2541 -0.2893
 8691W        W24585  16.941   6.062   0.372  0.0392  0.0062 -0.2340
 8692W        W24586   8.848   4.621   2.641  0.3908  0.3592  0.0956
 8693W        W24587  10.338   6.886  13.410 -0.3254  0.4833  0.1223
 8694W        W24588   9.345   8.053  11.514  0.3397 -0.2312 -0.1172
 8695W        W24589  17.105  14.967   3.981 -0.2068 -0.0912 -0.0270
 8696W        W24590  10.924   2.154   4.541  0.4373 -0.0984 -0.4994
 8697W        W24591  18.907  15.590  14.883 -0.1715 -0.1303 -0.2494
 8698W        W24592  12.921   5.681  12.933 -0.0265 -0.0177 -0.2157
 8699W        W24593  14.480  15.378   5.122 -0.3803  0.0199 -0.2495
 8700W        W24594  14.512   4.546   0.518 -0.1696 -0.2409 -0.1296
 8701W        W24595   3.506  13.748   4.471 -0.1114  0.0621  0.0791
 8702W        W24596   8.345  12.924  13.875 -0.0151  0.0252  0.0870
 8703W        W24597  13.085   6.729  13.152  0.0431 -0.2395 -0.0738
 8704W        W24598  16.671   5.573   4.534  0.0222  0.1466  0.1529
 8705W        W24599  15.201   7.162   0.152  0.2258  0.1831 -0.2719
 8706W        W24600   5.024  13.911   0.862 -0.1719 -0.2481  0.1870
 8707W        W24601  18.111   1.669  13.657 -0.2584 -0.1478 -0.0418
 8708W        W24602  15.120   0.270  10.191 -0.1375  0.0164  0.1579
 8709W        W24603   0.655   6.324  13.675 -0.0663  0.2182 -0.1279
 8710W        W24604   5.097   5.297   4.286  0.1700 -0.2454  0.0057
 8711W        W24605  16.666   3.371  11.961  0.3378 -0.0442  0.2819
 8712W        W24606   1.614  16.754   2.518  0.2960  0.0122  0.1071
 8713W        W24607   5.250   0.400   5.694  0.1031  0.2812 -0.1615
 8714W        W24608   1.025   9.923   5.433 -0.1691 -0.0519 -0.1025
 8715W        W24609   3.143   5.319   2.642 -0.0186 -0.5333 -0.2485
 8716W        W24610   0.903  10.501   3.259 -0.0010  0.1099  0.5792
 8717W        W24611  15.765  13.328   9.892  0.4588  0.1400 -0.2627
 8718W        W24612  18.629   6.850   5.780 -0.0857  0.0827  0.1523
 8719W        W24613  14.667  13.982  14.217 -0.1804 -0.1409 -0.0969
 8720W        W24614  13.528   3.096  11.551 -0.0028  0.0322 -0.0093
 8721W        W24615  14.360   8.014  14.261  0.0813  0.2822  0.0977
 8722W        W24616  12.247   4.027   0.763  0.3148 -0.1940  0.1954
 8723W        W24617  15.539   7.266  10.721 -0.4497 -0.0686  0.2034
 8724W        W24618   1.168   4.197   3.022  0.1991 -0.1477  0.2562
 8725W        W24619   3.870   8.917   4.943 -0.3888  0.1662  0.3284
 8726W        W24620   1.960   8.432  13.160  0.0188 -0.0393  0.2780
 8727W        W24621   3.351  18.777   0.900  0.2994  0.0653  0.5759
 8728W        W24622  19.081  17.098  14.327  0.2389  0.2556  0.0608
 8729W        W24623   6.830  11.815  12.645  0.0627 -0.3551  0.3774
 8730W        W24624  15.316   4.769   4.616 -0.1007 -0.1207 -0.2206
 8731W        W24625   4.205   4.392  14.568  0.0934 -0.2835  0.1283
 8732W        W24626   7.332   4.079   4.745 -0.0874 -0.2562  0.0286
 8733W        W24627   2.003  10.418  11.453  0.0233  0.1791  0.0510
 8734W        W24628  12.119  18.699   2.260  0.2059  0.0348  0.5999
 8735W        W24629  17.445  17.194   2.665  0.2006  0.0473  0.1715
 8736W        W24630  15.104  16.799   3.222  0.2627  0.0442  0.2925
 8737W        W24631  12.982   4.932   4.169  0.2191 -0.1197  0.1246
 8738W        W24632  12.103   2.297  11.639  0.0055  0.0240  0.0922
 8739W        W24633  14.554   7.238  13.048  0.3360 -0.0631 -0.2434
 8740W        W24634  11.192   7.053   0.582 -0.0166 -0.0940  0.1807
 8741W        W24635   5.319   0.349   0.801 -0.0911  0.0590 -0.0203
 8742W        W24636  10.750  11.342  10.573 -0.0596  0.0827 -0.2121
 8743W        W24637   8.408   1.850   0.550  0.1859  0.0978 -0.2080
 8744W        W24638   8.835  13.750  14.285  0.2389 -0.0165  0.1390
 8745W        W24639   6.360   5.078  10.930 -0.0030 -0.1942 -0.4560
 8746W        W24640  17.429   0.633  11.035 -0.0867  0.0102  0.2466
 8747W        W24641  16.717   6.866  13.691 -0.2119 -0.3962 -0.1616
 8748W        W24642   3.130   5.317  11.406 -0.2253 -0.3098 -0.2293
 8749W        W24643   9.452   9.287  13.980  0.1851  0.2299  0.0122
 8750W        W24644  16.825  17.820  10.333  0.0373 -0.1109 -0.2298
 8751W        W24645   0.322   3.700   0.042 -0.2536  0.1565  0.2389
 8752W        W24646   7.185   6.161   5.142  0.2426  0.0738  0.0456
 8753W        W24647  14.374  16.538   3.688 -0.2045  0.1154 -0.2731
 8754W        W24648   8.304  16.164   0.356  0.1363 -0.0355  0.1647
 8755W        W24649  16.250  11.117   2.132  0.0156 -0.3322 -0.2788
 8756W        W24650  15.151   6.428   2.618  0.2112  0.0516 -0.0249
 8757W        W24651  17.538  15.248   4.043  0.3694  0.1746 -0.2567
 8758W        W24652  15.795   2.260  11.468  0.0492  0.2785 -0.0112
 8759W        W24653   9.247   1.341   0.320 -0.2250  0.3544 -0.0596
 8760W        W24654  18.038  11.077   0.914  0.0577  0.0695  0.1400
 8761W        W24655   4.762   2.860   4.779 -0.0745  0.3138  0.0692
 8762W        W24656   2.803  17.000   1.068 -0.0825 -0.2399 -0.0995
 8763W        W24657  15.997  11.814  11.076  0.1443 -0.1124  0.1618
 8764W        W24658  10.518   9.300   5.127 -0.3874  0.3368 -0.0726
 8765W        W24659  11.865   0.713  13.455 -0.1200  0.2847  0.0348
 8766W        W24660  17.477   0.065   1.262 -0.0779 -0.2062  0.0437
 8767W        W24661  19.004   3.279   2.256 -0.0747 -0.0175  0.1138
 8768W        W24662   8.855   8.540   1.730 -0.0976 -0.1408 -0.0778
 8769W        W24663   4.012  19.064  14.716  0.3118  0.1835 -0.1594
 8770W        W24664  18.630   4.421  11.764  0.0271  0.1108 -0.1077
 8771W        W24665  16.284  15.679  14.495  0.2949  0.0655 -0.1332
 8772W        W24666  14.098  16.486  11.463 -0.1176 -0.0843 -0.0555
 8773W        W24667  17.338  13.113   9.596  0.1005 -0.1107 -0.3440
 8774W        W24668   9.338   8.023   2.446  0.0382  0.0983  0.1617
 8775W        W24669  18.095   7.540   4.746 -0.0897 -0.3094 -0.1946
 8776W        W24670   1.445   3.777   3.087 -0.2302  0.2288 -0.3471
 8777W        W24671   3.629   4.700   0.890  0.0633 -0.2736  0.1267
 8778W        W24672   9.951   4.515  14.417  0.0241  0.1084  0.0148
 8779W        W24673   9.485   4.245  10.352 -0.2579  0.0954 -0.0388
 8780W        W24674   5.959   1.740  12.807  0.0863  0.2045 -0.0032
 8781W        W24675   9.199   9.752  12.610 -0.1653 -0.0276 -0.3833
 8782W        W24676  13.930   9.690   9.539  0.2170 -0.1712  0.1102
 8783W        W24677   4.643  18.757  14.782 -0.0298  0.0208  0.1934
 8784W        W24678   4.219   8.022   3.805  0.4726  0.1951  0.2252
 8785W        W24679   9.143   6.011  13.128 -0.1625  0.1560 -0.0327
 8786W        W24680  16.043   6.917   4.496 -0.1793 -0.0919  0.4149
 8787W        W24681   3.152   6.439  13.061  0.0929 -0.1769  0.3954
 8788W        W24682  17.649  16.906  14.744  0.2331 -0.0350 -0.0026
 8789W        W24683  14.349   1.497   2.302 -0.1795 -0.0410 -0.0201
 8790W        W24684   6.500   5.979  10.631 -0.1224 -0.4373  0.1027
 8791W        W24685  18.106   8.025  12.342 -0.0319  0.0106  0.1123
 8792W        W24686  17.460  18.220   4.876  0.0163  0.0048 -0.0526
 8793W        W24687  17.116  18.638  15.006 -0.1620  0.1525 -0.0915
 8794W        W24688   2.078   1.774   2.027 -0.2052 -0.0826 -0.0939
 8795W        W24689   4.044  18.172  13.338 -0.1558 -0.2550  0.2959
 8796W        W24690   8.842   0.625   5.020  0.2034 -0.0610  0.1366
 8797W        W24691  14.951  17.731   1.245 -0.3019 -0.0072 -0.2014
 8798W        W24692  15.209   4.963  13.051 -0.1856 -0.2904  0.0935
 8799W        W24693  16.070   3.452   1.804  0.0459  0.0478  0.0484
 8800W        W24694  10.236  13.315   4.431 -0.0566 -0.1994  0.0877
 8801W        W24695  17.197  10.838   5.000 -0.2168 -0.4342  0.2101
 8802W        W24696  10.372   7.226   2.779 -0.4045 -0.1933  0.1974
 8803W        W24697   1.199   2.421   0.134  0.0446 -0.2023  0.1402
 8804W        W24698  13.208  17.175   4.291  0.0507 -0.0489 -0.0003
 8805W        W24699   1.595  14.033  14.060 -0.0420  0.1930  0.1306
 8806W        W24700  10.630   9.713   1.658  0.4732 -0.0764  0.1573
 8807W        W24701   1.285  16.119  11.224 -0.2075 -0.0085  0.1719
 8808W        W24702  10.965   1.474   3.772 -0.0096 -0.1583  0.0510
 8809W        W24703   0.340  16.001   2.238 -0.2808  0.1890  0.0527
 8810W        W24704  15.199   8.149   2.386 -0.1196  0.0572 -0.0285
 8811W        W24705  16.871  16.026  10.247 -0.2824 -0.4978  0.0874
 8812W        W24706   5.884   7.803  11.211 -0.2564  0.0309  0.2693
 8813W        W24707  14.357  14.344  15.075  0.2711 -0.1884  0.0735
 8814W        W24708  16.640  16.791   3.300  0.2024 -0.1234 -0.3089
 8815W        W24709  15.273  15.164  14.991  0.1535  0.0617 -0.0252
 8816W        W24710   7.189  15.898   4.647 -0.0006 -0.0502  0.2834
 8817W        W24711  10.798  11.386  13.329 -0.2293  0.0105  0.2548
 8818W        W24712   9.316   9.312   4.083  0.2282  0.3256 -0.0492
 8819W        W24713  15.081   1.672  10.821 -0.3717  0.1695  0.3412
 8820W        W24714  13.384  12.257  14.939 -0.0971 -0.0000 -0.0176
 8821W        W24715   6.808  16.638   3.188  0.2768 -0.0486 -0.0981
 8822W        W24716  11.376  12.513   1.689 -0.0757 -0.1479 -0.1677
 8823W        W24717  15.917   3.127  13.256  0.2062 -0.1891 -0.2223
 8824W        W24718  15.644   0.376  13.705  0.4560  0.0132 -0.2240
 8825W        W24719   3.324  11.750   2.851 -0.0761 -0.0617  0.7150
 8826W        W24720   3.150   8.819  13.162 -0.1008  0.2967  0.0005
 8827W        W24721  11.921   4.607   4.235 -0.0535  0.2884 -0.7929
 8828W        W24722  18.577   8.114   2.452  0.3416  0.0060  0.1421
 8829W        W24723   8.651  11.504   2.402 -0.1405 -0.0212  0.1515
 8830W        W24724  16.831   8.289   5.190 -0.0276  0.1869 -0.0648
 8831W        W24725   0.570   7.322   1.866  0.2964 -0.0130  0.3093
 8832W        W24726  12.875  13.703  12.207  0.2028 -0.3281  0.1082
 8833W        W24727  17.493   0.046  11.342 -0.1501 -0.0780  0.2494
 8834W        W24728  14.337  17.265   9.804 -0.0759 -0.2943  0.2317
 8835W        W24729   2.683  16.024   3.004 -0.0389  0.0147 -0.3230
 8836W        W24730   8.678  12.770  14.753  0.0319  0.3535 -0.0895
 8837W        W24731  16.344   3.169  14.684  0.0635 -0.0325 -0.0809
 8838W        W24732   8.633  12.285  11.468 -0.0125 -0.0786 -0.2943
 8839W        W24733  13.798   4.894   5.109 -0.2993 -0.1819 -0.1046
 8840W        W24734   8.199  15.190  10.441 -0.0941  0.3410 -0.0695
 8841W        W24735  18.642  13.377   3.586  0.1736  0.0952 -0.2615
 8842W        W24736   8.554   6.201  13.013 -0.1801 -0.1184  0.5118
 8843W        W24737  12.460  10.142   5.369 -0.1107  0.0855  0.0399
 8844W        W24738   0.555  14.279   2.322 -0.0719 -0.2417 -0.0192
 8845W        W24739  11.062  12.011   0.321  0.1552  0.0829 -0.1664
 8846W        W24740   9.460  10.852   1.503  0.2647  0.1652  0.1062
 8847W        W24741   9.775   2.051   1.501  0.1070  0.0690 -0.1670
 8848W        W24742  17.848   5.452   0.053  0.1674 -0.0325  0.0007
 8849W        W24743  18.034  18.338   2.756  0.1566 -0.0170 -0.1145
 8850W        W24744  11.105  16.707   0.221  0.0997  0.2781 -0.1772
 8851W        W24745   7.492  10.263   1.068 -0.1744  0.1883 -0.0863
 8852W        W24746   0.947   5.991  11.798  0.0241 -0.3887  0.0116
 8853W        W24747  14.033   2.578   4.355  0.0755 -0.0898  0.3780
 8854W        W24748   7.927  12.507   3.045 -0.0071  0.1566  0.3117
 8855W        W24749  16.858   4.738   3.815 -0.1153  0.0552 -0.0790
 8856W        W24750   0.212   9.158   3.088 -0.3308  0.0182  0.0476
 8857W        W24751   8.172  13.305  14.235  0.0962 -0.1004  0.2813
 8858W        W24752  19.208   7.848   5.062  0.0778 -0.1357 -0.2615
 8859W        W24753  15.391   8.161   0.426 -0.0259  0.1031 -0.2703
 8860W        W24754  10.191  15.633   5.012 -0.1712  0.1094 -0.0710
 8861W        W24755  14.938   6.721  13.685  0.1048 -0.1531 -0.1684
 8862W        W24756  17.493  14.058  11.082 -0.0686 -0.3085 -0.1053
 8863W        W24757   5.381   6.181  14.982 -0.0018 -0.2935 -0.1173
 8864W        W24758  18.431   7.899  11.220 -0.0064  0.0514  0.2788
 8865W        W24759  10.056  16.913   3.234 -0.0148 -0.1686  0.2006
 8866W        W24760  14.450   7.107  13.642 -0.2368  0.0068  0.3157
 8867W        W24761  18.773  11.450  12.869  0.4122  0.1742 -0.0959
 8868W        W24762   2.407  14.021  11.146  0.0993  0.2623 -0.0124
 8869W        W24763  17.347   6.161   5.245  0.3598  0.2433  0.4748
 8870W        W24764   2.357  13.652   4.597  0.3222  0.0642 -0.0976
 8871W        W24765   4.373  16.557   4.770  0.1312  0.0319 -0.2540
 8872W        W24766   7.000   8.631   5.012  0.3838  0.0548  0.0235
 8873W        W24767   6.641  14.949   1.808  0.2818  0.0246 -0.0212
 8874W        W24768  16.802   5.541   4.982  0.2641 -0.4273  0.0569
 8875W        W24769  17.611   4.682  10.818 -0.0655 -0.4165 -0.2626
 8876W        W24770  13.462  11.279   1.779  0.2340 -0.0648  0.2312
 8877W        W24771   2.570   9.186   4.589 -0.0539  0.0313  0.3464
 8878W        W24772   5.925   9.785  13.886 -0.0997 -0.0900 -0.1025
 8879W        W24773  15.270  16.934   2.309  0.1529 -0.0595  0.0650
 8880W        W24774   2.027   3.279   4.898 -0.0754  0.1142  0.0581
 8881W        W24775   8.601  11.022  10.500  0.0525  0.1395  0.1374
 8882W        W24776  10.850   8.277   5.309  0.1430  0.3707 -0.0516
 8883W        W24777   6.222  18.583   1.393  0.0973  0.1294  0.1157
 8884W        W24778   3.549  13.368  13.251  0.0377 -0.0978  0.2925
 8885W        W24779   6.586  16.788  14.011  0.1379 -0.1357 -0.2173
 8886W        W24780  14.954   4.751   2.245 -0.1005 -0.0156 -0.1954
 8887W        W24781  13.490  12.570  13.630 -0.2672 -0.1550 -0.0103
 8888W        W24782  16.183  14.448  11.991  0.0797  0.2196 -0.1975
 8889W        W24783   5.803   3.031   0.984  0.1559  0.0635  0.4471
 8890W        W24784  17.069  18.794   9.984  0.3036  0.1564  0.1681
 8891W        W24785  10.418  11.999  10.963 -0.0190  0.1211  0.0334
 8892W        W24786   0.041  14.057   1.188  0.1420 -0.1507 -0.2208
 8893W        W24787   2.284   9.947   5.551 -0.1559  0.0638 -0.2286
 8894W        W24788  16.180  15.176   3.257  0.3073  0.1254 -0.1968
 8895W        W24789   4.497   0.779   3.883  0.1623  0.1096  0.1154
 8896W        W24790   5.160   9.669   5.560  0.2116 -0.0464 -0.1548
 8897W        W24791   0.132   4.028  12.190  0.0585  0.1760 -0.4394
 8898W        W24792   2.169  10.668  13.749  0.3238  0.3328 -0.1175
 8899W        W24793  19.113  18.122   4.044 -0.2123  0.2214 -0.1492
 8900W        W24794  11.510   5.358  12.277  0.2190 -0.3172  0.0966
 8901W        W24795   0.019   2.489   4.242  0.1045 -0.0522 -0.3960
 8902W        W24796   7.759   6.045   0.814  0.0127 -0.0619  0.0804
 8903W        W24797   2.295   0.705  12.553  0.0258 -0.0058  0.5655
 8904W        W24798  12.255  12.753   2.173  0.1084  0.2213  0.1401
 8905W        W24799   9.589  15.352  14.905  0.0675  0.3389  0.1553
 8906W        W24800  17.536   5.585   3.975 -0.0430 -0.4227  0.0567
 8907W        W24801   4.209   7.180   3.390 -0.2513  0.1962 -0.2096
 8908W        W24802   4.184  12.230   3.127 -0.2263 -0.2098  0.1284
 8909W        W24803   3.224   2.180   3.062  0.1669 -0.1431  0.0809
 8910W        W24804   6.248   8.753  12.250 -0.0416  0.0947  0.1389
 8911W        W24805  15.418  11.439   5.306 -0.2333  0.3073  0.0635
 8912W        W24806   7.886   4.362   1.966 -0.0403 -0.0593  0.3028
 8913W        W24807   9.774   5.036   1.039 -0.2479 -0.2836  0.0206
 8914W        W24808  11.046   5.843  15.110 -0.2004 -0.1146  0.0853
 8915W        W24809  18.003  16.816   1.521  0.2643  0.1055 -0.3556
 8916W        W24810  13.531  10.493   0.045  0.2614 -0.0379  0.4043
 8917W        W24811  17.849   7.947  11.061 -0.1433 -0.0860 -0.0975
 8918W        W24812  11.299  15.995   2.535 -0.2583 -0.1412  0.0136
 8919W        W24813  16.584  17.618  11.303 -0.1267  0.1074  0.0124
 8920W        W24814   2.546   0.855  13.868  0.4764 -0.0150 -0.0976
 8921W        W24815   2.853   7.841   4.261  0.2062 -0.1755 -0.1763
 8922W        W24816   9.152   0.651  13.402  0.0079  0.0226 -0.1248
 8923W        W24817  10.027  17.298   9.453  0.0978  0.0647 -0.1642
 8924W        W24818   1.980   5.228   5.163 -0.0438  0.0672 -0.1017
 8925W        W24819  16.886  13.350   2.669 -0.1493  0.0695  0.0807
 8926W        W24820  11.232  17.026   2.619  0.1879 -0.3926  0.0698
 8927W        W24821   8.666  11.248  12.397 -0.0047 -0.1470  0.0121
 8928W        W24822  17.125   8.572  12.312 -0.1167  0.2202 -0.0166
 8929W        W24823  15.826  15.477   5.191  0.1300 -0.6663 -0.0065
 8930W        W24824   0.165  18.918  14.995  0.0116 -0.4074  0.3829
 8931W        W24825  10.986   4.690   0.924  0.1797  0.1979 -0.2761
 8932W        W24826   4.092   6.625   5.008 -0.1610 -0.0122 -0.0357
 8933W        W24827   0.341   5.055   2.484 -0.2623 -0.0925  0.0747
 8934W        W24828   0.170  15.936  10.684 -0.1976 -0.3059  0.2164
 8935W        W24829   6.684   4.295   3.882  0.1175 -0.1507  0.0069
 8936W        W24830  11.193  13.855   3.659 -0.1923  0.2289 -0.1808
 8937W        W24831  11.582  12.070   4.179 -0.1775 -0.0166  0.0016
 8938W        W24832  16.114   4.504  12.331  0.4143 -0.3122 -0.1634
 8939W        W24833   9.847  12.222   3.533  0.1422  0.0315  0.1172
 8940W        W24834   0.241   6.280  12.017  0.1880 -0.3125  0.0521
 8941W        W24835  15.540   1.850   0.160  0.0950  0.1808 -0.0970
 8942W        W24836   9.805   5.738   1.839 -0.1240 -0.0338  0.0005
 8943W        W24837   8.996  15.999  13.516 -0.0976 -0.0006 -0.0753
 8944W        W24838  16.723   4.552  10.869 -0.3502  0.1384 -0.4561
 8945W        W24839  16.507  10.273  12.158 -0.0140  0.1187  0.0977
 8946W        W24840   9.673   7.525   0.387 -0.1005  0.0740  0.3219
 8947W        W24841   8.497  13.515  11.356  0.0117 -0.2467 -0.3226
 8948W        W24842   5.820   9.207   2.683  0.1180 -0.4346  0.1995
 8949W        W24843  12.574   5.481  13.850  0.1508  0.0524  0.1738
 8950W        W24844   2.231   9.464   3.104  0.0059 -0.0459 -0.0775
 8951W        W24845  16.402  12.284   1.284  0.3836 -0.0424  0.0117
 8952W        W24846   8.414   9.128   1.800  0.1275  0.1002 -0.0997
 8953W        W24847   0.752   0.244   2.447  0.0455  0.2162  0.2249
 8954W        W24848   7.549   0.107  11.912 -0.2651  0.1537 -0.0849
 8955W        W24849  16.717   2.123  12.677  0.0477 -0.1279  0.0833
 8956W        W24850  14.907  15.689   5.199  0.4046  0.1762 -0.1788
 8957W        W24851  18.874   0.604  10.905 -0.3105  0.0637 -0.0226
 8958W        W24852  16.032   5.144  12.533  0.2871  0.1229  0.0243
 8959W        W24853  11.995   2.125  13.469 -0.3205 -0.3450 -0.1404
 8960W        W24854  13.686  15.588  13.819  0.2070 -0.3439  0.4362
 8961W        W24855   9.964   3.226   4.723 -0.1302  0.2992  0.1887
 8962W        W24856   3.479   5.687   0.644  0.1444  0.1052  0.1546
 8963W        W24857   8.229   9.716  10.046  0.1131  0.2214 -0.0790
 8964W        W24858  18.485  10.238  12.172  0.3079 -0.0058 -0.2438
 8965W        W24859  10.518   9.773  10.522 -0.2070 -0.0863  0.1541
 8966W        W24860   9.920   8.711   0.014  0.0178  0.0683  0.0463
 8967W        W24861   5.825  10.215  14.166 -0.0925 -0.2205  0.2630
 8968W        W24862   3.806  18.842   4.581 -0.1649 -0.1057 -0.2287
 8969W        W24863   3.817  16.319   3.295  0.3391 -0.4695 -0.3329
 8970W        W24864   1.068  15.617   5.353  0.3058 -0.0914  0.2852
 8971W        W24865  14.726   1.914   4.107  0.0147 -0.0137 -0.0515
 8972W        W24866   9.797   4.245  14.946  0.3676  0.3052 -0.0753
 8973W        W24867   7.996   2.740  10.801 -0.0164 -0.2162  0.0950
 8974W        W24868  17.472  17.053   3.187  0.0995 -0.3027 -0.1662
 8975W        W24869   3.071  13.515  13.446  0.0894 -0.1116 -0.0598
 8976W        W24870   3.581   9.977   0.524  0.0225 -0.1626  0.0753
 8977W        W24871   9.008   8.762   2.581  0.1194 -0.0782 -0.0152
 8978W        W24872   7.153  12.320   2.498 -0.0241 -0.1371  0.1172
 8979W        W24873  18.364   7.846  12.907 -0.3164  0.0526 -0.0688
 8980W        W24874  16.445   9.751  10.144 -0.2001 -0.0848  0.1833
 8981W        W24875   4.720   6.229   1.790 -0.0996 -0.1311 -0.3562
 8982W        W24876  10.628   4.601   1.260 -0.1890  0.0001  0.0989
 8983W        W24877  14.807   6.307  14.935 -0.0370 -0.1607  0.0282
 8984W        W24878   2.482   4.566  11.115  0.2447  0.1628  0.2455
 8985W        W24879   8.163   2.825  11.355  0.1718 -0.4016  0.0487
 8986W        W24880  18.714   1.583  14.241 -0.1231  0.1011  0.2168
 8987W        W24881   2.411  10.650  12.730 -0.1727  0.1062 -0.0849
 8988W        W24882   1.202   2.107  14.728  0.0609  0.0204 -0.0824
 8989W        W24883  17.718  15.917   3.147  0.0911  0.0475  0.1437
 8990W        W24884   2.012   8.847   5.959  0.3517 -0.3248 -0.1083
 8991W        W24885   0.282   4.006  13.669  0.2901  0.0690 -0.1852
 8992W        W24886  17.578  15.756  10.447  0.0259 -0.0115 -0.0076
 8993W        W24887  17.792   4.057  12.258  0.4234  0.0904  0.3658
 8994W        W24888   3.142  16.473  10.294  0.4870  0.0869  0.2493
 8995W        W24889   9.676  18.343  14.142 -0.4869  0.1955 -0.1709
 8996W        W24890  15.047  18.219   9.780 -0.1060 -0.1541  0.0344
 8997W        W24891  13.345  16.225  12.546 -0.1904  0.2506  0.0222
 8998W        W24892   3.494  18.261  15.047 -0.2077  0.1119 -0.0559
 8999W        W24893  16.596   3.850   3.481 -0.3003  0.2951  0.1238
 9000W        W24894  19.066   4.509   4.092 -0.4050  0.0293 -0.4711
 9001W        W24895   3.791  14.595  10.663 -0.0567 -0.1263  0.3617
 9002W        W24896  13.887   0.207   3.493 -0.2683  0.3959 -0.2106
 9003W        W24897  12.663   0.234  11.921 -0.2177 -0.0694  0.2858
 9004W        W24898  12.619  11.354  12.541 -0.2205  0.3714  0.1207
 9005W        W24899   7.741  18.709  11.505 -0.2096  0.4499 -0.0443
 9006W        W24900   0.875  10.234  10.538 -0.0479  0.2285 -0.0689
 9007W        W24901   9.806  11.081  10.371 -0.2865  0.4082  0.1706
 9008W        W24902  14.483   2.431  10.274  0.1719 -0.0914 -0.0129
 9009W        W24903  12.585  15.721   1.181  0.1029  0.0172 -0.0745
 9010W        W24904   1.951   1.085   2.321  0.0892  0.2315 -0.3158
 9011W        W24905   7.653   7.046  10.468  0.0016  0.1062  0.2313
 9012W        W24906  10.565  12.585  13.739  0.0202  0.0076  0.0962
 9013W        W24907  13.987   0.831  12.405  0.3124  0.0409 -0.2089
 9014W        W24908   3.833  13.298   5.078 -0.0892 -0.2469  0.0078
 9015W        W24909   6.352   3.443  10.866 -0.2082 -0.1322  0.3403
 9016W        W24910   6.355  15.585  10.523  0.0036  0.0936  0.0505
 9017W        W24911  10.653   0.079   4.093 -0.1768  0.1247 -0.1056
 9018W        W24912  17.934   9.912   3.891 -0.0876 -0.1673 -0.0733
 9019W        W24913  16.051  10.854  11.467 -0.0678  0.1042 -0.2657
 9020W        W24914  19.086   7.738   2.784  0.1783  0.2253 -0.2378
 9021W        W24915   2.577   0.073  14.715  0.1645 -0.0251  0.2934
 9022W        W24916   3.327   7.688   0.779  0.2229  0.2150  0.0278
 9023W        W24917   5.323   8.386   3.683  0.0442  0.1949 -0.0009
 9024W        W24918  13.926  10.925  14.378 -0.3032 -0.1076  0.0767
 9025W        W24919  14.904   7.813   3.032 -0.1058 -0.1964 -0.0767
 9026W        W24920  16.505   4.433  11.852 -0.0751 -0.2786 -0.1529
 9027W        W24921   8.802  19.066   3.865  0.0884 -0.0570  0.3810
 9028W        W24922   7.707  11.518  10.305 -0.0323 -0.1573  0.3281
 9029W        W24923  11.228   0.934   0.064 -0.2980 -0.0151 -0.3992
 9030W        W24924  17.184   8.246  12.707 -0.0153 -0.0879  0.0288
 9031W        W24925  11.290  11.365  10.746 -0.0943 -0.0999 -0.1783
 9032W        W24926   2.791   9.670  14.247 -0.0454  0.0651  0.1556
 9033W        W24927   2.672   8.838   2.563  0.0134 -0.0277  0.0695
 9034W        W24928   1.489  11.373  11.699  0.3401  0.3655 -0.0626
 9035W        W24929   5.488  12.631  11.164  0.2014  0.2436  0.1176
 9036W        W24930   1.063  12.499   3.836  0.0895 -0.1668  0.0550
 9037W        W24931  17.357  10.275   3.831  0.1376 -0.1073  0.1825
 9038W        W24932   2.948   7.185  14.741  0.2525 -0.1899 -0.0045
 9039W        W24933   0.611  10.406   4.857  0.0103  0.2378 -0.0677
 9040W        W24934  16.188   3.970   3.705  0.3348 -0.4170 -0.3045
 9041W        W24935   3.997  15.641   1.746  0.2482  0.1697 -0.1633
 9042W        W24936  11.867   7.673   0.712  0.3460  0.0406 -0.1121
 9043W        W24937  12.794  17.378   4.540 -0.2829  0.0282  0.3113
 9044W        W24938  10.691  12.712   0.946 -0.1702  0.2943  0.1306
 9045W        W24939   3.339  15.477   2.589 -0.0790  0.2386 -0.0519
 9046W        W24940   0.918   7.601   0.319 -0.1544 -0.1135 -0.2040
 9047W        W24941   5.727  10.775  11.667 -0.1148  0.1891  0.1322
 9048W        W24942   9.901  12.545  11.831  0.0822  0.0847  0.1282
 9049W        W24943   3.674   7.598  13.474 -0.1811  0.2416  0.0034
 9050W        W24944   9.721  11.480  14.651 -0.1793  0.1201  0.2080
 9051W        W24945   1.640   2.035  13.957  0.1279  0.0034  0.2396
 9052W        W24946  17.893   7.367   2.258 -0.0928  0.0476 -0.0089
 9053W        W24947  18.975   2.359   3.057 -0.2513  0.2004  0.1091
 9054W        W24948   0.774  10.739  14.208 -0.1005 -0.1352  0.2116
 9055W        W24949  18.961   8.574   3.265 -0.1155  0.2297 -0.3435
 9056W        W24950   8.814  16.466  13.520  0.0127 -0.5312  0.0020
 9057W        W24951  15.417   6.729  11.718  0.2391  0.0337  0.3070
 9058W        W24952   5.364  15.999   4.317 -0.1734 -0.0159  0.3083
 9059W        W24953   3.736   9.681   4.406  0.0326  0.2350 -0.1706
 9060W        W24954  15.590  12.980  12.965 -0.1915  0.3363 -0.1362
 9061W        W24955  14.261   2.041   0.261 -0.1513 -0.3524  0.0439
 9062W        W24956   8.646  16.505   5.110 -0.1591  0.0289  0.0240
 9063W        W24957   7.637   9.112  11.045  0.1772 -0.4112  0.0541
 9064W        W24958  10.327  10.960   1.507 -0.0220  0.1591 -0.1842
 9065W        W24959   0.239  12.666   0.768  0.0970  0.1145  0.1392
 9066W        W24960   4.875  17.873  10.590 -0.2194  0.2193 -0.2384
 9067W        W24961   9.772   9.177  12.780  0.1411  0.0730  0.0075
 9068W        W24962  16.201  11.845   0.846 -0.3382 -0.0203  0.2008
 9069W        W24963   4.806   2.585  14.715 -0.0382  0.1587 -0.3078
 9070W        W24964  12.298   9.136  11.134  0.1046 -0.1550 -0.2193
 9071W        W24965   4.652   6.430   2.721 -0.1509  0.2130  0.2093
 9072W        W24966   5.825   6.913  12.431 -0.0150  0.0968 -0.0238
 9073W        W24967   8.225   8.865  15.038 -0.0611  0.1384 -0.1606
 9074W        W24968  16.836  10.321  10.543  0.1476  0.0983  0.1370
 9075W        W24969   1.166   9.411  12.457 -0.0675  0.1496 -0.1131
 9076W        W24970   2.538   0.748  12.060 -0.2015  0.0219 -0.0471
 9077W        W24971   4.121  11.939   0.989 -0.1041  0.0481 -0.0998
 9078W        W24972   8.508  17.432   9.872  0.0511  0.1362 -0.2233
 9079W        W24973  16.665   2.948   1.274 -0.0537  0.0389  0.4540
 9080W        W24974   9.611  18.888   4.252 -0.2940 -0.1879 -0.0835
 9081W        W24975  18.517  15.845   5.062  0.2103  0.0675 -0.3020
 9082W        W24976   1.752  15.515  11.685 -0.2537  0.2175 -0.0762
 9083W        W24977   6.467  17.669   2.742 -0.0007 -0.5224  0.2235
 9084W        W24978   8.630   0.992   0.684 -0.2232  0.1306 -0.0129
 9085W        W24979  17.039  19.058   1.216  0.2258 -0.4192 -0.0740
 9086W        W24980   7.333   5.899   3.627  0.0179  0.3533  0.5486
 9087W        W24981   1.462  12.848  10.216  0.1548 -0.1668  0.1050
 9088W        W24982   0.413  12.628  11.785  0.1709  0.2094  0.3574
 9089W        W24983  13.516  17.284  13.307  0.0980 -0.0157 -0.1212
 9090W        W24984  16.057   5.679  14.230 -0.3044 -0.2426  0.4324
 9091W        W24985  16.295  11.029  10.559  0.0304  0.3585 -0.1003
 9092W        W24986   7.662   1.976  12.599 -0.1419 -0.0666 -0.1390
 9093W        W24987   0.355   6.142   0.870 -0.1483  0.2488  0.2323
 9094W        W24988   9.083  18.569   3.494 -0.3815  0.0790  0.1277
 9095W        W24989  10.802  13.136  12.937 -0.1929  0.4304  0.2346
 9096W        W24990   8.843   8.075  11.425 -0.2170  0.1181 -0.0150
 9097W        W24991  13.376   3.482  14.534 -0.0581 -0.2921  0.1862
 9098W        W24992   1.137   6.763  10.648  0.1703 -0.1936 -0.0057
 9099W        W24993   6.137   1.558  12.348 -0.1378 -0.1915 -0.0714
 9100W        W24994   3.068   0.024   2.740  0.0263 -0.2570  0.1241
 9101W        W24995  13.913   7.073  13.487 -0.2305  0.2365 -0.0619
 9102W        W24996  15.940   4.439   3.804 -0.1031  0.1855  0.1453
 9103W        W24997   5.616   4.037  13.552 -0.1398  0.1477 -0.1640
 9104W        W24998   7.101  15.536  13.517  0.0042 -0.1649  0.2495
 9105W        W24999  15.776   2.257   0.390  0.1868 -0.2574 -0.3632
 9106W        W25000   8.748  14.061   1.789  0.1262  0.0957 -0.1884
 9107W        W25001   1.766  10.891  13.419  0.0654  0.0673 -0.2964
 9108W        W25002   5.960   5.834   4.503  0.0198 -0.2129 -0.3809
 9109W        W25003   2.117   5.469   2.577  0.0899 -0.0560 -0.0446
 9110W        W25004  14.442   3.329   1.123  0.0311  0.1129  0.1476
 9111W        W25005  10.572  14.962   3.218  0.0066  0.3158 -0.2688
 9112W        W25006   3.310   1.118  11.128  0.0866  0.1055 -0.1962
 9113W        W25007   3.470   2.976   0.279  0.2919 -0.1496  0.0463
 9114W        W25008  10.756   6.410   3.343 -0.2958  0.1331  0.0995
 9115W        W25009  12.251  17.165   9.652  0.1308  0.0187  0.3345
 9116W        W25010   8.242  16.271  10.831  0.0869 -0.2302 -0.0344
 9117W        W25011   6.833  14.403  13.438  0.2137 -0.0129 -0.3187
 9118W        W25012  18.074   9.433   3.646 -0.0573 -0.2396 -0.2280
 9119W        W25013  17.556   8.785  12.844 -0.1033  0.2360  0.1683
 9120W        W25014  11.745   9.181   0.183 -0.0899  0.2552  0.0124
 9121W        W25015   0.948   0.561   4.561  0.3562 -0.0405 -0.0676
 9122W        W25016   2.212   7.695   2.962 -0.4449  0.3484  0.0526
 9123W        W25017   6.145  13.624   1.404 -0.1853  0.0724  0.3375
 9124W        W25018  14.110  11.198  10.534 -0.2745  0.5953  0.0936
 9125W        W25019   8.743   5.427   0.979 -0.1175  0.3209 -0.0334
 9126W        W25020  13.870   8.417   2.778  0.0335  0.0776 -0.0257
 9127W        W25021  18.721  10.536  12.748 -0.0511 -0.2194  0.0170
 9128W        W25022  10.412  14.077  14.362 -0.0939  0.0439  0.1619
 9129W        W25023   3.174  10.878   0.735 -0.2111 -0.0839 -0.1482
 9130W        W25024   3.807  10.736  11.637 -0.0533 -0.2150  0.2793
 9131W        W25025  18.597  14.143  11.916 -0.6169 -0.1709 -0.0839
 9132W        W25026  15.906   8.551  15.029 -0.4378 -0.0426 -0.2529
 9133W        W25027  11.164   0.311  10.243 -0.3334  0.0194  0.1201
 9134W        W25028   9.081  15.249   4.747 -0.0534 -0.0332  0.0008
 9135W        W25029   2.678   2.050   0.929 -0.3306 -0.2569  0.1147
 9136W        W25030   8.397  10.869   1.473  0.3840  0.0024  0.0764
 9137W        W25031  18.938   3.357   0.135 -0.3041 -0.0746  0.1527
 9138W        W25032  16.790  14.635   2.039 -0.0073 -0.3201  0.1852
 9139W        W25033  10.844  18.457  13.063  0.1483  0.4735 -0.1148
 9140W        W25034  13.747  14.848  12.740 -0.1585  0.3518  0.0050
 9141W        W25035  10.052  10.178   4.936  0.3720  0.2639  0.1627
 9142W        W25036  11.975   6.338   0.554  0.0551  0.2197 -0.0599
 9143W        W25037   2.985   6.446   1.977 -0.2001 -0.0799 -0.0527
 9144W        W25038   9.166   4.018   4.370 -0.0321  0.2926 -0.0935
 9145W        W25039   1.291   5.912   0.441 -0.0002 -0.1952  0.2018
 9146W        W25040  17.079   7.860  13.879 -0.2720 -0.2244  0.1080
 9147W        W25041   1.159   6.924  14.788 -0.2854 -0.2078 -0.0055
 9148W        W25042   9.054   1.714   2.294  0.0962  0.1403 -0.2553
 9149W        W25043  18.396  11.467   2.906  0.5330  0.2221  0.4935
 9150W        W25044   3.918  11.536   4.088  0.1985 -0.0260 -0.0484
 9151W        W25045   6.154  13.374   9.927 -0.1441  0.0719 -0.5577
 9152W        W25046   9.697   7.230  10.137  0.0460  0.2328 -0.1922
 9153W        W25047   4.307  15.173  11.847 -0.0020 -0.0577 -0.3491
 9154W        W25048  11.068  17.501   2.679 -0.0192 -0.1221 -0.0448
 9155W        W25049   3.042  10.788  10.755  0.0314 -0.1133 -0.2117
 9156W        W25050  14.028   9.063  11.991  0.3734 -0.1675  0.0583
 9157W        W25051  11.923   3.330   2.740  0.0091  0.1366  0.1357
 9158W        W25052   6.334   0.417   5.506  0.1796  0.3174  0.0637
 9159W        W25053   4.510   7.923   1.587  0.5688  0.0124 -0.1331
 9160W        W25054   7.350   1.856  12.137  0.1163  0.1948  0.1847
 9161W        W25055  15.498  11.870  14.016 -0.1897  0.2071 -0.2139
 9162W        W25056  17.293   8.544   1.685  0.0067 -0.2099  0.0690
 9163W        W25057  13.995  15.213  14.670  0.1729  0.3538 -0.1471
 9164W        W25058   3.119  17.972  12.311 -0.0414  0.1284 -0.0179
 9165W        W25059   8.291  15.509  11.505 -0.0328 -0.4574  0.0521
 9166W        W25060  11.778  12.084   2.769 -0.0303 -0.0221  0.0447
 9167W        W25061  14.800  16.408  14.601  0.0154  0.2155  0.0373
 9168W        W25062  16.591  17.250  10.876 -0.2939  0.2925 -0.3499
 9169W        W25063   3.756   7.532   3.280 -0.0370 -0.1643 -0.1709
 9170W        W25064   6.162   6.048  14.584  0.1066  0.0382 -0.2456
 9171W        W25065  10.810   6.188  11.736  0.3424  0.1757  0.2502
 9172W        W25066   2.851   1.513  14.225 -0.1167 -0.1091  0.0480
 9173W        W25067  13.413  18.848   0.629 -0.2086 -0.1622  0.0354
 9174W        W25068   3.028   2.646   1.327  0.2196  0.2361 -0.0505
 9175W        W25069   5.097  16.660   9.732 -0.0902 -0.1306 -0.1992
 9176W        W25070  12.941  14.078   1.649  0.0710 -0.0608  0.0501
 9177W        W25071   7.860   7.416   1.867 -0.0820 -0.1585 -0.1558
 9178W        W25072  10.122   8.233  14.071  0.0417 -0.5361 -0.1721
 9179W        W25073   4.615  11.136  13.459  0.2613 -0.2315  0.1709
 9180W        W25074  15.735  15.059  10.475  0.0843  0.1059 -0.5267
 9181W        W25075  18.873   7.325   3.848 -0.0601 -0.1207 -0.1873
 9182W        W25076  17.137  17.676  12.968  0.2594  0.2465 -0.1336
 9183W        W25077   5.814   1.032  13.210 -0.2473 -0.2434  0.0227
 9184W        W25078   8.296  18.959   4.897  0.1410 -0.1679 -0.2066
 9185W        W25079   8.193   4.838  13.274 -0.2175  0.0960 -0.2726
 9186W        W25080   9.823   4.883   2.994  0.4172 -0.0106 -0.3277
 9187W        W25081   8.122   6.802  11.691 -0.2002 -0.0576  0.1570
 9188W        W25082  13.998  13.009  12.220  0.2288  0.1465 -0.0523
 9189W        W25083  17.607   5.105  14.181  0.2228  0.2801  0.0559
 9190W        W25084  10.752  10.404  13.150  0.2584  0.1984  0.4854
 9191W        W25085  13.396   9.522   4.059  0.1184  0.1104  0.1487
 9192W        W25086   0.208  15.750   1.436 -0.1701  0.3546 -0.0634
 9193W        W25087   8.662   0.904   2.615  0.0432 -0.1823 -0.1182
 9194W        W25088   1.493  14.776  10.239 -0.0186 -0.0214 -0.3196
 9195W        W25089   4.211   0.630   5.014 -0.2594  0.1267 -0.0037
 9196W        W25090   6.187  16.846   4.395  0.2763  0.0666  0.2255
 9197W        W25091   0.525  18.312   5.042 -0.0837  0.1599  0.1229
 9198W        W25092  16.155   5.493   3.779 -0.0824 -0.1821  0.0982
 9199W        W25093  13.860  12.984  13.522 -0.2422 -0.1559  0.0017
 9200W        W25094  12.199   6.005  14.047  0.0520  0.0025 -0.0843
 9201W        W25095   2.841   2.647  12.499 -0.2752  0.0057  0.0348
 9202W        W25096   8.600   3.651   2.430 -0.0079 -0.0754 -0.0676
 9203W        W25097  13.923   3.693   1.778  0.0317  0.0358  0.2041
 9204W        W25098   4.872   6.168   0.028 -0.1268 -0.1798  0.1929
 9205W        W25099  13.190   4.473   1.459 -0.2113 -0.2951 -0.2755
 9206W        W25100  19.038   3.449   4.691  0.1561 -0.3015  0.5182
 9207W        W25101   2.309  14.921  11.738  0.1138  0.3177  0.1771
 9208W        W25102  19.070   2.355  13.224 -0.2187  0.0815  0.2368
 9209W        W25103  13.742  14.364   3.803 -0.1212  0.0727 -0.0004
 9210W        W25104  17.824   9.241  10.302  0.3064  0.2984 -0.1080
 9211W        W25105   2.009   4.754   1.107  0.1895 -0.0668 -0.5673
 9212W        W25106  14.191   9.035  10.647  0.0221 -0.0381 -0.1880
 9213W        W25107  10.727   4.168  11.649  0.0882  0.0516  0.3330
 9214W        W25108  17.665   5.922   0.064  0.0246  0.1053 -0.3591
 9215W        W25109  10.364  19.016  14.288 -0.1701  0.2596 -0.0798
 9216W        W25110   0.932  15.528   9.810 -0.0305 -0.0540  0.0107
 9217W        W25111   5.085   4.365   3.918  0.3231  0.2992 -0.2698
 9218W        W25112   1.928  12.826  10.023 -0.3381 -0.2331 -0.2003
 9219W        W25113  13.038  17.253   1.391 -0.0695  0.0642 -0.1248
 9220W        W25114   3.016   6.596  14.476 -0.3110  0.3448 -0.2479
 9221W        W25115   4.427   8.960   4.881 -0.0227 -0.2508 -0.0138
 9222W        W25116   2.467   8.829   5.787 -0.1507  0.1191  0.0703
 9223W        W25117   2.403   8.735  11.142 -0.1179  0.3240 -0.2327
 9224W        W25118   0.824   5.312   2.464 -0.2912  0.0715  0.0675
 9225W        W25119   8.461  12.064   2.328 -0.0929 -0.0740  0.1422
 9226W        W25120  11.630   8.507   1.932  0.0400 -0.2578  0.1414
 9227W        W25121  14.359   6.009   3.551 -0.0148  0.0042 -0.1476
 9228W        W25122  19.119   7.396   1.857  0.0757 -0.4137 -0.0526
 9229W        W25123  14.885  14.162  11.971 -0.2788  0.1484  0.1554
 9230W        W25124   1.789   6.007  14.675  0.2646  0.1657  0.0626
 9231W        W25125  11.408   6.992   1.021 -0.1948 -0.0992  0.1695
 9232W        W25126   7.661   1.177  13.368  0.0418  0.1665  0.1139
 9233W        W25127  14.755   4.987   0.690  0.0691 -0.2815 -0.2096
 9234W        W25128  15.362  15.918   0.763  0.1993  0.1173  0.5067
 9235W        W25129  12.977  14.835   4.659  0.4160  0.0812  0.2077
 9236W        W25130   0.578   1.639  13.135  0.0745  0.3122  0.0480
 9237W        W25131  19.119  15.538   1.127  0.0379  0.0503 -0.0658
 9238W        W25132  12.723  11.268   3.269  0.2103 -0.0167 -0.0930
 9239W        W25133  17.906   9.252  12.454 -0.0353 -0.1091 -0.2986
 9240W        W25134  15.582  19.080  13.759 -0.1786  0.1899 -0.0304
 9241W        W25135   8.244   0.984   1.019  0.2168  0.0133  0.0217
 9242W        W25136  10.170   0.309  11.534 -0.1784  0.1537  0.2485
 9243W        W25137  18.387   0.897   5.008 -0.0745 -0.1034 -0.1797
 9244W        W25138   6.856   5.720  10.966  0.0697 -0.0416  0.1802
 9245W        W25139   5.220  16.130   3.704  0.2857 -0.2348  0.1742
 9246W        W25140  11.308   1.891   0.089  0.0882 -0.2331 -0.1257
 9247W        W25141   9.922   4.561  12.963  0.2324 -0.0783  0.0557
 9248W        W25142  17.323   6.895   0.187 -0.0052  0.2201 -0.1115
 9249W        W25143  12.919  12.122   3.630 -0.2339  0.1606  0.0979
 9250W        W25144   6.560  12.314   1.928  0.0802  0.3989  0.0360
 9251W        W25145  19.093  15.609  12.080  0.0140 -0.4021  0.0770
 9252W        W25146   9.722  18.590   2.766 -0.1454 -0.1639 -0.0907
 9253W        W25147  17.334   6.491   4.684 -0.2713 -0.3899  0.0682
 9254W        W25148   5.582  17.733  11.890  0.2125 -0.0079 -0.2959
 9255W        W25149   2.199  11.883  11.383 -0.2017 -0.1807 -0.3440
 9256W        W25150  10.161  12.743   0.128 -0.2788  0.2770  0.5585
 9257W        W25151  16.735   8.752   4.936  0.1019  0.0929 -0.0628
 9258W        W25152   2.307   0.503  12.999 -0.1113  0.3773  0.2819
 9259W        W25153  11.961   1.829   4.550  0.0951  0.0439 -0.0839
 9260W        W25154   4.047  12.170   2.521  0.1566  0.1847  0.3302
 9261W        W25155  12.042  10.871  13.133 -0.2523  0.1764 -0.2473
 9262W        W25156   2.355  11.130  14.735  0.0295 -0.0208  0.1823
 9263W        W25157   3.135   6.526   4.327  0.0712  0.4118 -0.3225
 9264W        W25158   4.723   9.377  11.732 -0.0038  0.0141 -0.5730
 9265W        W25159   3.173   1.277   2.681 -0.2048 -0.0494 -0.0747
 9266W        W25160   9.844   5.331  14.660  0.0593 -0.4198  0.0072
 9267W        W25161   6.464  14.153  10.977 -0.3343  0.0776  0.1557
 9268W        W25162   9.407  16.875   0.775  0.0281  0.0357  0.3210
 9269W        W25163   5.147  13.031   3.899  0.1994 -0.3558  0.0106
 9270W        W25164   4.894   9.035   2.902  0.1727  0.5089  0.2089
 9271W        W25165   4.771   2.691   2.498  0.2131 -0.3433 -0.4115
 9272W        W25166   8.863  13.228   0.541 -0.0989  0.1437  0.0485
 9273W        W25167   1.050  13.172   0.265 -0.2946 -0.2125 -0.1852
 9274W        W25168  17.337  12.684  13.572 -0.1443 -0.0325  0.1823
 9275W        W25169  10.592  12.920  12.282  0.0803 -0.3821  0.3251
 9276W        W25170   2.185  15.298   4.705 -0.0151  0.2675  0.0423
 9277W        W25171   7.400  18.600   3.246 -0.3450 -0.0427  0.3281
 9278W        W25172   2.556   4.852   2.137 -0.1636 -0.0096  0.1126
 9279W        W25173   2.364  17.362   1.180  0.2700  0.1736 -0.1677
 9280W        W25174   9.927   5.442   3.810 -0.0158 -0.4831 -0.1422
 9281W        W25175  13.718  14.996  14.037 -0.1768  0.1705  0.0064
 9282W        W25176   3.994   5.357   2.299 -0.3683 -0.1980  0.1130
 9283W        W25177   3.300   7.349   9.600 -0.2614  0.1074  0.0673
 9284W        W25178   7.238   6.579  11.325  0.2813 -0.0952 -0.3722
 9285W        W25179   8.788  17.171   0.989  0.0947  0.2990  0.0004
 9286W        W25180  15.409  15.202   3.941  0.0577  0.3442  0.3127
 9287W        W25181  16.161   4.875   0.046 -0.2809  0.1155  0.1671
 9288W        W25182  13.046  11.372   2.063 -0.0170  0.3791 -0.1745
 9289W        W25183   4.716   1.470   2.914  0.1616 -0.1457 -0.0221
 9290W        W25184   4.525   3.875   2.916 -0.3050 -0.0517  0.0881
 9291W        W25185   3.958   3.070  13.315  0.0742 -0.2005 -0.3264
 9292W        W25186   2.118   8.236  12.672 -0.2228 -0.0063  0.3540
 9293W        W25187  16.470   1.631   0.424  0.2530  0.2719  0.3222
 9294W        W25188  18.151  13.088   1.572 -0.0721 -0.1603 -0.1446
 9295W        W25189   3.130  17.524   9.411 -0.0240 -0.0924  0.4000
 9296W        W25190  10.963  12.240   2.265  0.1280  0.2668  0.1075
 9297W        W25191  12.224  16.824  12.343 -0.1130  0.0566 -0.3755
 9298W        W25192  18.122  11.686  14.416  0.0159 -0.0077 -0.2771
 9299W        W25193   6.111  14.852   2.634 -0.1565 -0.0499  0.2647
 9300W        W25194   0.565  10.603   0.397  0.1209 -0.0115  0.0492
 9301W        W25195   2.908   4.895  13.820 -0.0846 -0.4477 -0.0420
 9302W        W25196  17.968  16.237  12.159  0.2463 -0.0568  0.1480
 9303W        W25197   0.331  12.002  11.084 -0.3223  0.3526 -0.0014
 9304W        W25198   7.357   2.323   5.731 -0.0544  0.1935  0.0564
 9305W        W25199   4.833  14.802  14.962  0.0577 -0.3829  0.0316
 9306W        W25200   1.262  13.934   3.657  0.0977  0.0949 -0.0053
 9307W        W25201   3.357  12.429   0.380 -0.1083 -0.2383  0.1114
 9308W        W25202  16.936   9.395   2.863  0.2336  0.1270 -0.1301
 9309W        W25203   4.763   3.324  12.831 -0.0907 -0.0270 -0.1982
 9310W        W25204   9.059  16.755   4.320 -0.0100 -0.0306 -0.0097
 9311W        W25205   4.749   6.610  13.053  0.2177  0.0237  0.1589
 9312W        W25206  16.942   2.265   4.480  0.1627  0.2570 -0.1422
 9313W        W25207   2.474   7.319   0.594  0.1866  0.2442 -0.0818
 9314W        W25208  11.968  11.543   1.716 -0.0843  0.4716 -0.2679
 9315W        W25209  16.576   7.267   3.196  0.0309  0.2005  0.1131
 9316W        W25210   5.517   4.928  14.276  0.1917  0.1146 -0.0510
 9317W        W25211   8.443   5.482   5.374 -0.1763 -0.1201  0.1346
 9318W        W25212   6.036   9.122   4.202  0.1714 -0.0480  0.0482
 9319W        W25213   4.471   8.373  13.653  0.0382 -0.0879  0.0891
 9320W        W25214  13.732  16.101  10.017  0.0219  0.1527  0.0506
 9321W        W25215  17.340   2.762   5.291 -0.1777 -0.1871 -0.0999
 9322W        W25216  13.813  17.178   2.995 -0.1594 -0.1151  0.0988
 9323W        W25217   1.154  10.625   4.566  0.1213 -0.0765 -0.2441
 9324W        W25218   6.738  14.557  10.668  0.2208  0.0209  0.1409
 9325W        W25219   9.989  17.484   3.373  0.1060 -0.1099  0.2187
 9326W        W25220   6.213   0.146  14.336 -0.2043  0.1348  0.1388
 9327W        W25221   5.476  13.485   1.185 -0.3460 -0.0832  0.0470
 9328W        W25222  17.676   1.503  12.671 -0.2694 -0.0235  0.1073
 9329W        W25223  14.011   4.285  12.698 -0.1638 -0.1868 -0.3510
 9330W        W25224  14.468  10.656   5.384 -0.1508 -0.0020  0.1089
 9331W        W25225   8.454  10.134   2.127 -0.1155 -0.2460 -0.0124
 9332W        W25226  10.937   8.758  13.617 -0.0545 -0.2726  0.1404
 9333W        W25227  11.695  10.877   2.539 -0.1643  0.0189  0.4106
 9334W        W25228  12.860  17.122  14.779 -0.2433  0.1648  0.1928
 9335W        W25229   0.188   0.715   4.198  0.4781 -0.2008 -0.0426
 9336W        W25230   3.972   2.818   1.793  0.3456  0.0934  0.0345
 9337W        W25231   2.071  13.182   3.215 -0.0074  0.1693 -0.1423
 9338W        W25232   4.452   8.886  12.960  0.0293 -0.5363 -0.4552
 9339W        W25233  17.725  17.066  13.526 -0.2927 -0.1192 -0.1080
 9340W        W25234  15.094  18.543   2.202 -0.3489  0.2563  0.1469
 9341W        W25235  18.688  14.152   5.590  0.0754 -0.0297  0.1138
 9342W        W25236  12.607   5.872   3.917  0.1864 -0.2507 -0.1186
 9343W        W25237  18.460   0.031  12.926  0.2525 -0.0650  0.2124
 9344W        W25238  17.834  10.745  10.661  0.2729  0.1457 -0.0253
 9345W        W25239   7.121  18.601   2.029 -0.0299 -0.1971  0.0797
 9346W        W25240   1.372   8.950  13.907 -0.1939  0.1088 -0.0532
 9347W        W25241  13.639   5.206  11.411 -0.0466  0.1403 -0.1576
 9348W        W25242  14.581   0.502  14.504 -0.1734 -0.0714 -0.0844
 9349W        W25243  11.621   7.100   2.063  0.2649  0.0303 -0.2229
 9350W        W25244   6.874   7.617   5.099  0.1552 -0.1619  0.2267
 9351W        W25245  17.322   9.574  12.367  0.0852 -0.2255  0.1651
 9352W        W25246  19.155   3.034  14.832 -0.3925 -0.0909  0.0441
 9353W        W25247   6.563   7.183   4.112 -0.0564  0.2494 -0.6195
 9354W        W25248   8.511   3.811  12.899 -0.0076  0.0467 -0.2226
 9355W        W25249   6.826   0.485  11.468  0.1962  0.1241  0.4989
 9356W        W25250  15.204   8.561   0.150 -0.1421  0.0338 -0.0264
 9357W        W25251  19.044  17.892  11.702 -0.4883  0.0957 -0.0502
 9358W        W25252  12.020   8.617   9.770  0.1727 -0.1315 -0.0398
 9359W        W25253  12.588   5.109  10.376  0.1948  0.2845  0.0806
 9360W        W25254   2.469  14.819  10.483  0.1550 -0.0021 -0.2510
 9361W        W25255   8.699  13.557  11.816  0.0866  0.2075  0.0123
 9362W        W25256  13.457   6.607   0.762 -0.3957  0.1896 -0.2687
 9363W        W25257   8.709   9.480   3.556 -0.0107  0.1805 -0.1399
 9364W        W25258  16.945  16.117   0.518 -0.0874 -0.1172 -0.0934
 9365W        W25259   0.080  13.454   0.012  0.0184 -0.1581  0.0408
 9366W        W25260   8.997  10.656  10.406 -0.1675 -0.1276  0.1385
 9367W        W25261  18.156  15.021   2.194  0.0212  0.2122 -0.1279
 9368W        W25262  14.356  18.383  10.364  0.2483 -0.1012  0.1789
 9369W        W25263   9.119  18.609   0.275 -0.2760  0.0152  0.1981
 9370W        W25264  13.798  11.718   1.727 -0.0426  0.1497 -0.0465
 9371W        W25265  16.557  10.043   3.812 -0.0896 -0.0805 -0.1347
 9372W        W25266  18.431   3.187   4.954 -0.3818 -0.1838  0.1507
 9373W        W25267  10.153  18.937  12.203 -0.3187  0.0236  0.2221
 9374W        W25268   9.864  11.000   9.887 -0.1841  0.2962 -0.2886
 9375W        W25269  13.468   4.871   3.932 -0.2303  0.2733  0.0426
 9376W        W25270   2.252   9.512  13.898  0.1247  0.0719 -0.0669
 9377W        W25271   1.009  18.032   1.288 -0.1965 -0.1458 -0.1415
 9378W        W25272  15.111   7.345  12.922 -0.2546  0.0430  0.1675
 9379W        W25273   9.084  14.044  12.173 -0.4396  0.0543 -0.0752
 9380W        W25274   3.740   4.540   5.553  0.1843  0.0812  0.1264
 9381W        W25275  10.661   9.811   0.653  0.3234  0.2047 -0.0331
 9382W        W25276   2.034   5.778  10.994 -0.2592 -0.2049 -0.2763
 9383W        W25277   2.260   5.523  11.996 -0.2420  0.1368  0.1465
 9384W        W25278   0.521  13.481  12.123  0.1717 -0.0809  0.1935
 9385W        W25279  18.953  17.652   3.736 -0.0726  0.0213  0.1749
 9386W        W25280   1.692   1.371  11.628  0.0836  0.1519 -0.1888
 9387W        W25281  15.979  15.982   0.082 -0.1360  0.0589 -0.3750
 9388W        W25282  11.607   0.866   4.917 -0.2081  0.4958 -0.0541
 9389W        W25283   5.814  13.322   0.417 -0.0879  0.3816 -0.1890
 9390W        W25284  13.554   1.667   0.964 -0.0796  0.0020  0.0376
 9391W        W25285  17.500   3.832   2.490  0.0804  0.1487  0.2454
 9392W        W25286  11.253   1.482  13.384  0.0667 -0.1258 -0.3373
 9393W        W25287   7.557   8.436   2.054  0.0178 -0.0398 -0.2964
 9394W        W25288  14.535   4.528   9.569  0.4848 -0.3449 -0.1081
 9395W        W25289  12.790   1.082  12.922  0.0596 -0.2104 -0.1837
 9396W        W25290   0.543   4.114  13.256  0.0309  0.0225 -0.0354
 9397W        W25291  15.333   9.795  12.823  0.1029  0.0692  0.2228
 9398W        W25292   4.570  16.032   3.813 -0.0552 -0.1772  0.1272
 9399W        W25293   5.739  14.822  15.037 -0.0268  0.1526  0.0802
 9400W        W25294  14.826   5.633   0.633 -0.4414 -0.1206  0.2159
 9401W        W25295  16.313  15.575   4.212  0.0099 -0.0560 -0.1350
 9402W        W25296   6.226   0.625   2.650 -0.1498  0.0139 -0.0577
 9403W        W25297  14.457  14.259   2.610  0.0201  0.1715 -0.4087
 9404W        W25298  13.470   6.424  13.034 -0.2783 -0.1238  0.2272
 9405W        W25299   0.524   8.528   4.773 -0.0625 -0.1311 -0.3730
 9406W        W25300   6.638  11.487  13.043 -0.0384  0.0402  0.1854
 9407W        W25301  18.698   7.760  14.818  0.0994 -0.2555  0.0010
 9408W        W25302   2.366   9.411  14.596 -0.0715  0.0321 -0.2676
 9409W        W25303  14.888  15.751  13.857  0.0024  0.0717 -0.1665
 9410W        W25304  18.112   6.916   6.068  0.1682  0.2184 -0.0542
 9411W        W25305   4.716  13.180   0.213  0.0897  0.0119  0.2096
 9412W        W25306  10.575  12.169   0.288 -0.2457 -0.4110  0.1328
 9413W        W25307   9.760   1.638  13.323  0.5341 -0.0390  0.2501
 9414W        W25308   0.193  11.149  11.655  0.0150 -0.3420 -0.2718
 9415W        W25309  15.704  13.425  12.756  0.0558 -0.1580  0.1129
 9416W        W25310  15.859   5.783   0.814  0.1770  0.1834 -0.0711
 9417W        W25311   8.546  18.748  12.536 -0.0589  0.2228  0.0894
 9418W        W25312   0.797   8.210   2.793  0.3759  0.1204 -0.3449
 9419W        W25313  10.593   3.793   0.756 -0.0456 -0.0995  0.1833
 9420W        W25314  16.884  15.951   5.922 -0.0223  0.0248  0.0839
 9421W        W25315  19.072  17.570   1.467 -0.0467  0.1614 -0.1594
 9422W        W25316   4.138   1.178  14.878  0.1507 -0.2552 -0.1191
 9423W        W25317  13.294   4.513  11.164  0.2470  0.0730 -0.2054
 9424W        W25318   0.844   9.282   4.693  0.2488  0.4817  0.0066
 9425W        W25319   3.250   0.203   5.734  0.2262 -0.1829 -0.0426
 9426W        W25320   7.544  14.549  11.277  0.3266  0.0458  0.0583
 9427W        W25321   8.446   5.819   2.411 -0.0074  0.0739 -0.0772
 9428W        W25322   4.208  12.303   0.613  0.2757 -0.0930  0.2060
 9429W        W25323   6.002   6.591  14.492  0.0473 -0.2499 -0.1344
 9430W        W25324   3.241  11.411  12.509  0.0775  0.4021  0.3492
 9431W        W25325  18.278  18.778   2.597  0.0379 -0.1387 -0.0784
 9432W        W25326  18.993   5.406  11.589  0.1515 -0.0069 -0.1070
 9433W        W25327   5.124   6.244  14.466  0.4935 -0.1207 -0.3474
 9434W        W25328   8.085   4.030  13.036 -0.0370 -0.0019  0.2661
 9435W        W25329   7.394  12.317   1.010 -0.0040 -0.2001  0.0039
 9436W        W25330   9.664   3.392  11.964  0.2169  0.1549 -0.1534
 9437W        W25331   7.285   9.192  14.145  0.2391  0.1311 -0.1804
 9438W        W25332   7.774  15.451   3.285 -0.1899 -0.0652 -0.3777
 9439W        W25333   1.324   4.037  12.663  0.1351  0.0221  0.4191
 9440W        W25334   4.946   6.750   4.903  0.1909 -0.3221 -0.0512
 9441W        W25335  10.668  15.191  14.336 -0.3028 -0.2450  0.0054
 9442W        W25336   9.333   2.396   0.598 -0.0469  0.3195 -0.3747
 9443W        W25337   1.520   8.096   4.573  0.2041  0.0905  0.1067
 9444W        W25338   6.839   0.206  12.457 -0.0095  0.0444  0.0910
 9445W        W25339  11.403   9.981  14.629 -0.0575 -0.0345 -0.1847
 9446W        W25340   7.532  18.066  10.001 -0.1955 -0.2133  0.0903
 9447W        W25341   6.823  13.618   4.561  0.0755 -0.0311 -0.2047
 9448W        W25342  15.332   9.876   2.545  0.0306  0.0747  0.3458
 9449W        W25343   4.917  14.907   0.766 -0.0057  0.1294  0.0074
 9450W        W25344   8.943   0.965   0.277  0.1611 -0.1285  0.4692
 9451W        W25345   2.396  16.177   2.612 -0.0559 -0.3724  0.2780
 9452W        W25346   7.130  17.808  10.263  0.2082 -0.3441 -0.1667
 9453W        W25347  16.655  15.200   4.454 -0.1573  0.0967  0.0928
 9454W        W25348  17.553  10.321  10.297  0.2535 -0.1171 -0.0851
 9455W        W25349   6.243   0.272   1.035  0.1752  0.2959  0.0311
 9456W        W25350  19.132  16.430  14.978 -0.1440  0.1206 -0.3708
 9457W        W25351  14.603   2.711   2.527  0.1557  0.0695  0.1004
 9458W        W25352   2.950  18.945   1.861  0.0883  0.0084 -0.0881
 9459W        W25353   6.817  11.178   2.753  0.0697  0.0382 -0.1329
 9460W        W25354   5.524  18.181  13.660 -0.1890 -0.2240 -0.2664
 9461W        W25355  14.294   0.462   4.330  0.1503 -0.1122  0.0180
 9462W        W25356   7.447  18.004  11.587  0.1564 -0.0804 -0.1849
 9463W        W25357  14.351   1.227  13.887  0.1864  0.0799 -0.2355
 9464W        W25358   2.948   3.523  12.040  0.4998  0.0069  0.2341
 9465W        W25359  10.282  11.313  13.347  0.3952 -0.0171  0.3077
 9466W        W25360  17.825   8.244   1.170 -0.1090  0.0892 -0.2230
 9467W        W25361   8.589  11.016  12.834  0.2355 -0.1296  0.3292
 9468W        W25362   7.943   8.036  14.242  0.0522 -0.2266 -0.1549
 9469W        W25363  17.141   8.694   9.751  0.0849  0.2288 -0.1599
 9470W        W25364   1.286   6.676  11.772 -0.4673 -0.0646  0.2630
 9471W        W25365   2.239  14.162   0.169 -0.0087  0.2104 -0.0337
 9472W        W25366  11.737   4.436   3.327  0.0361 -0.2889  0.0242
 9473W        W25367   5.755   5.484   2.703  0.4007 -0.2925 -0.0686
 9474W        W25368   4.800  11.354  12.238  0.1433  0.1120  0.0295
 9475W        W25369   2.293  14.523  10.922  0.1119  0.1389 -0.0560
 9476W        W25370   5.431  14.341   3.619 -0.2066  0.0702  0.0847
 9477W        W25371  17.268   3.969  13.205  0.0055 -0.0865  0.0870
 9478W        W25372  16.577   9.562   0.551  0.1145  0.0957 -0.2716
 9479W        W25373   2.189   1.467  10.573  0.0399 -0.0775  0.2697
 9480W        W25374   1.830  10.899   4.722 -0.0872 -0.0432  0.1712
 9481W        W25375  15.328  15.055   4.745  0.1777  0.0814 -0.1339
 9482W        W25376   3.603   5.669  14.619  0.0315  0.2804 -0.0626
 9483W        W25377  10.409  11.056  14.734  0.1826 -0.1944  0.1126
 9484W        W25378  15.531   8.452   9.513  0.0172 -0.3163 -0.1878
 9485W        W25379  18.265   9.852   0.876  0.2836 -0.2572 -0.0202
 9486W        W25380  14.191  15.159  12.968  0.1511 -0.0566  0.2942
 9487W        W25381  11.633   2.702   4.659 -0.1124 -0.0880  0.0787
 9488W        W25382   9.529  18.425   5.004  0.0795  0.0425 -0.2574
 9489W        W25383  16.106   2.487   1.765 -0.2458  0.1439  0.1244
 9490W        W25384   3.769  12.886   3.089  0.0348 -0.0373  0.0036
 9491W        W25385  11.991  12.843   1.681  0.0801  0.1918  0.3540
 9492W        W25386  17.540  11.815  15.076  0.1897 -0.0867 -0.0155
 9493W        W25387   8.703   9.766  11.875  0.1058  0.0687  0.0876
 9494W        W25388  13.226  12.243   3.223 -0.0513 -0.0783  0.0154
 9495W        W25389  10.477  10.068   3.509 -0.3773  0.1459  0.2677
 9496W        W25390  14.191   7.815  11.277 -0.2928  0.1803  0.1726
 9497W        W25391  17.466   4.312   1.461  0.0580  0.0622 -0.1289
 9498W        W25392  17.689   7.650   0.998  0.0995 -0.1361  0.3000
 9499W        W25393  13.052  12.642  10.026  0.0948 -0.0008  0.1604
 9500W        W25394  11.472   1.741   4.656 -0.1103  0.0502 -0.3857
 9501W        W25395   7.487   2.207  11.279 -0.1453 -0.0848  0.1528
 9502W        W25396   4.557   1.965   3.609  0.0476 -0.0380  0.0984
 9503W        W25397   8.496   3.036  13.673 -0.1852 -0.4713  0.0749
 9504W        W25398   6.268  16.097  14.556 -0.1186 -0.5101 -0.1227
 9505W        W25399   7.640  17.761   3.632  0.1637 -0.0417  0.3562
 9506W        W25400   9.788  17.376   2.823 -0.1067  0.0749 -0.0416
 9507W        W25401   4.269  10.566   4.301  0.5064  0.0481 -0.0090
 9508W        W25402  18.614  16.165  12.888  0.1197  0.1465 -0.0787
 9509W        W25403   0.451  13.550   1.868  0.2684 -0.0134  0.1405
 9510W        W25404  17.316  17.966  10.086 -0.1283  0.3010  0.0246
 9511W        W25405  14.129   2.458  11.790  0.1679  0.0524 -0.1044
 9512W        W25406  11.559  16.762   4.456  0.0363 -0.1569 -0.0320
 9513W        W25407   9.625   1.831   3.801 -0.0274  0.1080  0.1441
 9514W        W25408   3.800   5.422  12.689 -0.5464 -0.3144  0.1486
 9515W        W25409  13.920  13.784   1.589  0.0330 -0.2470  0.3088
 9516W        W25410   3.377  10.889  12.650  0.0471  0.0724 -0.0190
 9517W        W25411  16.181  11.837   1.380 -0.1678 -0.0135  0.2471
 9518W        W25412   7.990  17.503   0.626 -0.1516 -0.2488  0.1510
 9519W        W25413   4.766  15.305   4.496 -0.0069 -0.0239  0.0103
 9520W        W25414   7.179  17.344   0.148  0.0423  0.2736 -0.1653
 9521W        W25415  17.227  12.801  12.496 -0.1954  0.1044 -0.4141
 9522W        W25416  16.112   9.146   0.410  0.1442 -0.0192 -0.0742
 9523W        W25417   1.869  11.679   2.634 -0.5414 -0.0157 -0.0755
 9524W        W25418  10.761  16.434  11.433 -0.3136  0.0242  0.2248
 9525W        W25419  10.293  17.796   1.065  0.1417 -0.0368 -0.0536
 9526W        W25420   9.528   6.860   4.986 -0.0380  0.0180 -0.3053
 9527W        W25421   2.700  17.848   4.703 -0.1816  0.0304  0.0669
 9528W        W25422   6.803  15.040   4.045 -0.0972  0.1942 -0.1802
 9529W        W25423   3.602  10.562   2.471  0.2875 -0.0054 -0.0368
 9530W        W25424  15.128  15.217   2.020  0.1557  0.1568  0.1510
 9531W        W25425   3.178   3.574  10.761 -0.0568  0.3946  0.3644
 9532W        W25426   2.025   9.037   5.337  0.3604  0.0421 -0.1363
 9533W        W25427  12.695  16.951   4.280  0.1182  0.0650  0.0606
 9534W        W25428  18.824  15.269  10.320  0.2168  0.1050 -0.0872
 9535W        W25429   8.190   7.098   3.269  0.0046 -0.1496  0.1058
 9536W        W25430   4.941  19.192   3.979  0.2255 -0.1673 -0.2451
 9537W        W25431  19.031   1.162   0.491 -0.2860 -0.0459 -0.0003
 9538W        W25432  14.677  19.188  12.214 -0.2587 -0.4174 -0.0285
 9539W        W25433   1.236   1.079  12.377  0.1372  0.1370 -0.0609
 9540W        W25434   6.363  14.792   4.222  0.1527  0.2753  0.3680
 9541W        W25435   6.159   1.997   2.269  0.0313 -0.0463 -0.0136
 9542W        W25436  10.953   8.998  11.066  0.4793  0.0155 -0.2536
 9543W        W25437   8.684  19.015   2.752 -0.2690  0.0145 -0.4045
 9544W        W25438   0.550  16.338  12.301 -0.2467  0.1452 -0.2261
 9545W        W25439   8.894  14.740  12.782 -0.0138  0.1955 -0.1294
 9546W        W25440   5.309  12.343   4.556 -0.2540 -0.1296  0.1720
 9547W        W25441  12.350   0.425   2.615  0.0839 -0.0968 -0.3255
 9548W        W25442   6.050  16.184  13.759 -0.2314  0.1402 -0.1455
 9549W        W25443   7.647   8.198  11.510 -0.3431  0.5264 -0.2710
 9550W        W25444  13.919   1.067   3.566 -0.0458 -0.0479  0.1275
 9551W        W25445  12.425   1.832  12.691  0.0006 -0.2210  0.1925
 9552W        W25446   6.892  15.719   3.237  0.0115 -0.1699 -0.2342
 9553W        W25447  17.527  12.157  12.847  0.6693 -0.2000 -0.1816
 9554W        W25448  13.943  16.234  13.562  0.0684 -0.1258  0.2379
 9555W        W25449   0.924  18.683   0.388  0.0275 -0.1069  0.1681
 9556W        W25450  11.770  15.347   4.483  0.0517 -0.0948  0.3121
 9557W        W25451  10.532  11.774  13.157 -0.0792  0.2299 -0.0422
 9558W        W25452  14.510  12.182   3.517  0.2550  0.1335 -0.1822
 9559W        W25453  12.051   4.150  13.527  0.1907 -0.3192  0.2842
 9560W        W25454  16.721  14.400  11.990  0.2272 -0.0900  0.1785
 9561W        W25455  17.359  11.081   2.971  0.1919 -0.1203 -0.1697
 9562W        W25456   4.031   5.062   2.807 -0.0956  0.1389  0.0228
 9563W        W25457   6.072   4.987  12.837 -0.3138  0.4309 -0.0893
 9564W        W25458  18.347  15.092   0.690 -0.2821 -0.0613 -0.0961
 9565W        W25459   3.223   7.876  14.327  0.2688  0.1216 -0.2396
 9566W        W25460   0.828   3.233   1.310  0.0353 -0.0209  0.1331
 9567W        W25461  15.956  13.710   4.842  0.1207 -0.0106 -0.1398
 9568W        W25462   6.520  12.153  10.287 -0.2725  0.0204  0.3025
 9569W        W25463  18.954   5.169  13.539 -0.2158 -0.3112  0.0399
 9570W        W25464   6.687   6.919   5.102  0.2573 -0.1206 -0.2006
 9571W        W25465  17.477   5.470   2.348 -0.1478 -0.0577  0.0923
 9572W        W25466   3.585  13.902  15.071  0.0083  0.1028  0.3733
 9573W        W25467   9.096   2.184  11.310 -0.2320  0.0306  0.2100
 9574W        W25468   9.458  10.272  14.200 -0.1471  0.1096 -0.0547
 9575W        W25469  17.409   2.257  13.179  0.2051 -0.2130 -0.2708
 9576W        W25470   8.391  15.589   4.487  0.2375  0.0515  0.0075
 9577W        W25471  11.206   4.278   0.004 -0.1491 -0.0936  0.0245
 9578W        W25472  11.953  14.446  13.305  0.0539 -0.3203 -0.0403
 9579W        W25473  14.675   1.979   0.768  0.1389  0.1972 -0.0359
 9580W        W25474   5.162  17.515   4.587 -0.3322  0.0844  0.2725
 9581W        W25475  13.764   2.813   3.909 -0.2021 -0.3227 -0.0921
 9582W        W25476   6.546   6.217   1.376  0.0517 -0.0180  0.0864
 9583W        W25477  15.715   8.067   2.926  0.0882 -0.2831  0.2132
 9584W        W25478  18.057   3.779  13.634  0.0050  0.2595  0.0471
 9585W        W25479  12.537  11.592   1.480 -0.2715 -0.2392 -0.1170
 9586W        W25480   2.020  12.687   3.905  0.0064  0.0814 -0.1791
 9587W        W25481   3.411  15.051  11.476 -0.0252  0.1174  0.1482
 9588W        W25482  15.132   6.462   0.347  0.1121 -0.2822 -0.0075
 9589W        W25483   4.224   3.861  12.113  0.1782  0.0173  0.1769
 9590W        W25484   3.842   4.365  11.496 -0.1480 -0.2930  0.1057
 9591W        W25485  11.856  15.491  13.940 -0.0993  0.0140  0.2706
 9592W        W25486   1.283  10.364  11.476 -0.4180  0.1016  0.1550
 9593W        W25487   4.129  12.658   3.390 -0.2508 -0.1350 -0.2916
 9594W        W25488   0.625  12.925   2.478  0.0777  0.0776  0.0111
 9595W        W25489  13.039  10.814   2.055 -0.1010 -0.0951  0.1740
 9596W        W25490   5.198  18.228   5.667 -0.1339 -0.0128  0.0044
 9597W        W25491   5.446   9.276  13.292 -0.0947 -0.1488  0.2777
 9598W        W25492   5.103  16.612   0.439 -0.3557 -0.1710 -0.0081
 9599W        W25493  12.517  11.111   2.802  0.0189 -0.3271  0.1430
 9600W        W25494   3.023   2.384  14.727 -0.1005  0.0855  0.1016
 9601W        W25495   1.917  11.448   0.904  0.5257  0.3441  0.0950
 9602W        W25496   3.246  12.189  14.071  0.0250  0.1499  0.2044
 9603W        W25497   9.313   7.305  12.304  0.0134 -0.0886  0.0494
 9604W        W25498  15.221   2.338   1.402  0.2091  0.1156 -0.0149
 9605W        W25499  10.205   7.792  12.102 -0.0881 -0.2144  0.2032
 9606W        W25500  12.210   4.836  11.686 -0.0493  0.3749  0.0776
 9607W        W25501  14.390   9.469  12.900  0.0359  0.1578 -0.1278
 9608W        W25502  16.463   7.684  13.041 -0.0769 -0.3145  0.0952
 9609W        W25503   9.803  11.011  14.452 -0.1122  0.0249 -0.3244
 9610W        W25504   9.023   5.108  14.244  0.3061 -0.2968 -0.2311
 9611W        W25505   1.919  17.883  13.234 -0.2756  0.2897 -0.3700
 9612W        W25506   8.536   9.517   4.505 -0.2393  0.1445  0.0515
 9613W        W25507   7.838  14.835   5.099  0.0280 -0.0346 -0.2068
 9614W        W25508   2.959  10.369   1.447  0.0853  0.1969 -0.0045
 9615W        W25509   6.175  11.599  14.541  0.0774 -0.0549 -0.0724
 9616W        W25510   9.529   6.427   5.337 -0.0574  0.0232  0.1094
 9617W        W25511   8.366   7.705  12.920  0.1654 -0.2512  0.0469
 9618W        W25512  18.876  13.646   1.332 -0.0343 -0.1236  0.2515
 9619W        W25513   2.685   1.702   3.636  0.0835 -0.1305  0.0388
 9620W        W25514  13.844  14.865   1.254  0.0669 -0.2417 -0.0535
 9621W        W25515   4.821  15.756  14.277 -0.0445 -0.2894 -0.4178
 9622W        W25516  11.164   4.492  10.895 -0.4194 -0.1095  0.1426
 9623W        W25517  15.911   8.385   4.452  0.3208 -0.1338  0.2230
 9624W        W25518  14.861   4.274   5.346  0.1931  0.1942  0.0470
 9625W        W25519   8.412  15.897   2.908 -0.1778 -0.0579 -0.1234
 9626W        W25520   2.460  18.834   3.171 -0.1537  0.1692 -0.1041
 9627W        W25521   9.118   1.808  14.843  0.0039 -0.1830  0.0354
 9628W        W25522  18.578   4.042   1.546  0.0215 -0.4733 -0.1398
 9629W        W25523  13.374   2.502   3.728 -0.1798 -0.1970 -0.2478
 9630W        W25524   4.848  15.221  11.291  0.0666  0.1572 -0.0129
 9631W        W25525   6.963   0.907   4.470  0.0233 -0.1355  0.2765
 9632W        W25526  12.830   1.720  14.473 -0.3549  0.1072 -0.1464
 9633W        W25527   2.576   9.666   1.176 -0.1038  0.1494  0.1460
 9634W        W25528  13.361  12.042  11.712 -0.3261  0.0100  0.1944
 9635W        W25529   1.697   4.198   5.521  0.1485 -0.2896 -0.2735
 9636W        W25530   5.959  18.540  10.767 -0.3918 -0.1565 -0.1624
 9637W        W25531   1.572  19.046   2.881 -0.3871 -0.2295 -0.0571
 9638W        W25532   0.012  13.548  10.863  0.1770  0.2006  0.0473
 9639W        W25533  11.685   3.422  12.916  0.0268 -0.3542 -0.1840
 9640W        W25534   1.031   1.797   3.053  0.1610  0.1043 -0.0336
 9641W        W25535   4.603  13.779  14.246 -0.2149  0.0724  0.1408
 9642W        W25536   4.650  15.948   2.077  0.1259 -0.1301  0.0816
 9643W        W25537   7.881   7.764   0.646  0.0439 -0.2919 -0.0459
 9644W        W25538  17.674  17.287   2.117  0.0379 -0.0600  0.1954
 9645W        W25539   9.104  11.620  14.131  0.0111 -0.1206 -0.0576
 9646W        W25540  15.893   5.137   5.101 -0.0635  0.1139 -0.0653
 9647W        W25541   2.964   9.348   3.634  0.0918  0.0734 -0.0846
 9648W        W25542   8.962   7.178   3.905  0.0207 -0.3342 -0.2132
 9649W        W25543   4.986  12.575   4.235 -0.1099 -0.4351  0.2432
 9650W        W25544  14.750  17.870  14.051 -0.3430  0.0563 -0.1813
 9651W        W25545  12.655  12.533  11.236 -0.4207  0.0917 -0.1019
 9652W        W25546   0.641  18.459  14.640  0.0975  0.3760  0.2612
 9653W        W25547   2.850   8.985  11.108  0.2930  0.0350 -0.1527
 9654W        W25548   8.057   8.893   2.597  0.1916  0.1295  0.2839
 9655W        W25549  11.750  16.501   1.154 -0.0851 -0.0266  0.0400
 9656W        W25550  10.574  11.874   3.926 -0.1715 -0.1359 -0.2053
 9657W        W25551  18.631  15.806  14.560 -0.0656  0.1560  0.3171
 9658W        W25552  15.934   3.522  14.476  0.0266  0.2453  0.1367
 9659W        W25553  11.228  16.998  14.128  0.0381 -0.1352 -0.2096
 9660W        W25554   4.590  12.429   2.385 -0.0929 -0.1242  0.0130
 9661W        W25555   8.483   0.835   9.342  0.1054  0.1811  0.0925
 9662W        W25556  16.008   0.074  11.507 -0.0718  0.0134  0.3609
 9663W        W25557  15.092   8.527   3.726 -0.1369 -0.0030  0.0291
 9664W        W25558  14.767  16.605  10.904 -0.4897  0.1154  0.2226
 9665W        W25559   2.951  12.730   9.768 -0.0237 -0.2173  0.0502
 9666W        W25560  15.257   5.625   3.361 -0.2273  0.0297 -0.1764
 9667W        W25561   9.009   6.287   1.785 -0.0463  0.1170  0.1817
 9668W        W25562  15.824  15.946  14.449 -0.1746  0.2030 -0.0782
 9669W        W25563  13.137   2.970  12.523 -0.1286 -0.1154 -0.0031
 9670W        W25564   1.199   6.177   4.393  0.3364  0.1362  0.0785
 9671W        W25565  13.802  18.860   9.258  0.1284 -0.0909  0.1005
 9672W        W25566   1.283   7.130   5.458 -0.0422 -0.0756  0.1503
 9673W        W25567   2.401  15.574   1.881 -0.0496 -0.2638  0.1864
 9674W        W25568  12.269   6.181  13.282 -0.1892 -0.2038 -0.1481
 9675W        W25569  15.190  17.162   4.286 -0.0113  0.0835  0.2376
 9676W        W25570   6.182  18.735   3.629 -0.0367  0.1078 -0.2296
 9677W        W25571   9.168  12.771   1.374  0.0651 -0.1587 -0.4240
 9678W        W25572   0.979   5.679  10.628 -0.0409  0.1247 -0.1638
 9679W        W25573  15.349   8.977   1.866  0.0313  0.0062  0.3884
 9680W        W25574   1.460  13.647  10.931  0.0903  0.1949 -0.1463
 9681W        W25575  13.123   2.923   1.862  0.1506  0.0884  0.1155
 9682W        W25576  11.009  11.017   2.451  0.4310 -0.0932 -0.1865
 9683W        W25577   0.699  17.116  14.749  0.1715  0.5849 -0.0247
 9684W        W25578  16.019  14.733  11.503  0.0221 -0.1267  0.2216
 9685W        W25579  10.982  10.180   1.882 -0.0647  0.1503 -0.1122
 9686W        W25580   0.125  18.146   4.833  0.0557 -0.1673  0.0725
 9687W        W25581   4.716   1.063  12.160  0.0030  0.4187 -0.1105
 9688W        W25582  16.447  15.565  14.949  0.0878  0.1389 -0.2149
 9689W        W25583  11.217   8.142  11.303  0.0700 -0.2409 -0.1774
 9690W        W25584  17.140  11.509  12.050  0.0305 -0.0543 -0.2306
 9691W        W25585  16.791  14.632  14.919 -0.1657 -0.0015  0.2120
 9692W        W25586   7.529   1.262   4.071  0.0476  0.2460  0.2737
 9693W        W25587  19.134  10.711  11.279 -0.1177  0.2372  0.0315
 9694W        W25588  17.555   1.370   0.198 -0.4014 -0.1724  0.1758
 9695W        W25589  12.831  12.188  14.936 -0.2143 -0.1541  0.3039
 9696W        W25590  16.620  16.054  14.368 -0.0685 -0.0814 -0.0449
 9697W        W25591   0.795   3.964  11.734 -0.2728 -0.0777 -0.0839
 9698W        W25592   0.404   4.270   4.587 -0.1049  0.3180  0.1254
 9699W        W25593  19.037  17.267  14.788 -0.0976 -0.3919 -0.1122
 9700W        W25594  18.545  17.392  10.460  0.0776 -0.1243 -0.2677
 9701W        W25595  11.201   5.330  10.746  0.0056 -0.2728 -0.1221
 9702W        W25596  12.401  17.921  13.224  0.0612 -0.1188 -0.0568
 9703W        W25597  10.046   8.389   3.377  0.3892 -0.4412 -0.1296
 9704W        W25598   0.333   0.271   4.387 -0.0863 -0.2798 -0.0116
 9705W        W25599  15.404  10.400   1.758  0.0885  0.0722  0.2685
 9706W        W25600  11.480   2.445   2.724 -0.1181 -0.0952 -0.5038
 9707W        W25601   6.217   8.732   4.441 -0.1430  0.2004  0.0314
 9708W        W25602  14.469  18.412   3.009  0.0167  0.3436 -0.0041
 9709W        W25603   3.767   7.174  13.272 -0.0384  0.0128  0.1749
 9710W        W25604  16.566  13.530  12.209  0.3020  0.0896 -0.0785
 9711W        W25605   4.680   8.623   3.260  0.1522  0.1433  0.2405
 9712W        W25606   3.407  19.202  12.655 -0.0823  0.2504 -0.0159
 9713W        W25607  10.829   2.537   2.307 -0.0127  0.2132  0.2235
 9714W        W25608  13.676  10.782   2.599 -0.2272  0.0448 -0.0287
 9715W        W25609  15.868  17.667   3.237  0.1598 -0.2412  0.2356
 9716W        W25610   8.750  16.272   3.161 -0.0329  0.1834  0.0609
 9717W        W25611   3.273   4.497   4.070 -0.1924  0.3135 -0.3867
 9718W        W25612  11.741  17.281   4.590  0.0350 -0.0118 -0.2726
 9719W        W25613   5.904   6.958  14.965 -0.1757  0.0092  0.2382
 9720W        W25614  16.358  17.524  14.425  0.1767  0.1398  0.3019
 9721W        W25615  11.713  11.076   1.055 -0.1108  0.2324  0.2403
 9722W        W25616   9.507  15.332  12.873 -0.0533  0.1026 -0.0964
 9723W        W25617  12.993  18.631  13.763  0.3284  0.0029  0.2442
 9724W        W25618   7.130  11.470   2.273  0.0325 -0.1460 -0.1432
 9725W        W25619  16.244   1.707   3.643 -0.0372 -0.3549 -0.2616
 9726W        W25620  13.307  16.457   3.611 -0.1713 -0.1376  0.0984
 9727W        W25621   0.181   5.590   2.472  0.3614  0.0730 -0.1195
 9728W        W25622   7.757   3.929   3.029 -0.2738 -0.4642 -0.4773
 9729W        W25623  13.454   9.492  11.301 -0.0107 -0.1159 -0.0091
 9730W        W25624  13.703   1.015  14.607 -0.0711 -0.0066  0.0836
 9731W        W25625  14.912   0.809   2.521  0.0748 -0.2516 -0.3465
 9732W        W25626  12.990  18.716  11.390 -0.1777 -0.0715  0.1464
 9733W        W25627  12.484   7.463  10.597  0.2855  0.0507  0.0196
 9734W        W25628   0.771  14.072  12.878  0.2957 -0.0186 -0.4269
 9735W        W25629  18.918   8.504   4.867 -0.1162 -0.3678  0.2811
 9736W        W25630   9.069  16.342  12.190  0.0407  0.0452  0.1248
 9737W        W25631   6.556  13.210  11.961  0.1594 -0.2001 -0.1288
 9738W        W25632  15.872  17.892   3.752  0.1448  0.0249 -0.3838
 9739W        W25633   1.472   5.955  12.621  0.2100 -0.2373  0.1304
 9740W        W25634   3.050   4.064  12.232 -0.1448  0.0733  0.1303
 9741W        W25635   3.605  16.420  12.536 -0.0456 -0.0376  0.0439
 9742W        W25636   8.641   4.853   5.367  0.2082 -0.2451  0.1670
 9743W        W25637   8.137  13.905  12.633  0.2280 -0.1118 -0.2499
 9744W        W25638  15.888   6.799   3.505  0.0041 -0.1096 -0.0700
 9745W        W25639   1.201  17.311   0.811  0.3085 -0.1316  0.0561
 9746W        W25640  13.909  11.713  12.484 -0.2421  0.2615 -0.2471
 9747W        W25641   7.240   9.522   2.498 -0.3412  0.0139 -0.2052
 9748W        W25642  15.046   1.980  12.469  0.1151  0.1328  0.3217
 9749W        W25643   3.171   3.331   3.425  0.1875  0.0056  0.4666
 9750W        W25644   2.891  14.820   1.969  0.3767  0.1695  0.1035
 9751W        W25645  10.477  18.161   5.079 -0.1106  0.1702 -0.0092
 9752W        W25646  14.481   2.784   4.438  0.4775 -0.0817 -0.1192
 9753W        W25647  11.356  15.160   1.851  0.1276  0.0862 -0.0397
 9754W        W25648  14.822  19.106  13.925 -0.3374  0.1571  0.1376
 9755W        W25649  13.229   0.154  14.789 -0.1427 -0.3866 -0.0076
 9756W        W25650   3.310   2.453  13.840  0.1657  0.4058  0.0739
 9757W        W25651  12.743   9.467   3.468 -0.3067  0.1653 -0.0465
 9758W        W25652  10.048   3.349  11.654  0.0940  0.3198 -0.2349
 9759W        W25653   9.848  17.856   1.642  0.0465  0.0131 -0.2753
 9760W        W25654   2.794  12.828  10.275 -0.0871 -0.2197 -0.4295
 9761W        W25655  17.072  13.767  10.963  0.0025  0.1330 -0.2531
 9762W        W25656  11.746  14.091  14.294 -0.2773  0.1163 -0.1547
 9763W        W25657  10.229  10.157  10.425 -0.1364  0.2229 -0.1458
 9764W        W25658  15.819  10.353   0.620  0.1497  0.3657 -0.0893
 9765W        W25659   4.104   9.562  11.388  0.0534  0.2435  0.0157
 9766W        W25660  13.208   7.504  14.984 -0.0440 -0.1818  0.0531
 9767W        W25661  12.751  16.381   3.594  0.0563 -0.2255  0.1770
 9768W        W25662  10.206  15.324  11.906  0.1754  0.3601 -0.0275
 9769W        W25663  11.871   5.636   2.192 -0.1057 -0.2801  0.0363
 9770W        W25664   9.670   9.349   0.917  0.1966 -0.0394 -0.1202
 9771W        W25665   1.183  11.574   3.071  0.0381 -0.2043 -0.1116
 9772W        W25666   5.781   2.919   0.160 -0.0641 -0.2082 -0.1041
 9773W        W25667  13.985  15.500   9.529 -0.0441 -0.0080 -0.3208
 9774W        W25668  17.939   7.292  14.497 -0.4690 -0.0335 -0.7353
 9775W        W25669   2.375  14.827   9.652  0.1575 -0.3917 -0.0294
 9776W        W25670  13.986   5.461   0.865  0.1124  0.3775  0.0884
 9777W        W25671  16.493   5.078   3.848  0.0307 -0.0731 -0.0803
 9778W        W25672   5.251   7.328   4.386 -0.0624  0.2198 -0.2006
 9779W        W25673   3.225  15.362   0.787 -0.0429  0.0984 -0.2240
 9780W        W25674  11.474   6.948   3.315  0.1575  0.0243 -0.0877
 9781W        W25675  13.316  10.843   4.015 -0.1879 -0.0828  0.0988
 9782W        W25676   5.947  18.937   1.662 -0.2933 -0.1231 -0.2554
 9783W        W25677   0.039   3.528   1.420 -0.4113  0.0948  0.2734
 9784W        W25678  14.054   2.754   1.595  0.1941 -0.1414 -0.2676
 9785W        W25679   9.318   3.760  10.611  0.2509  0.2960  0.1217
 9786W        W25680   9.409   0.899   3.551  0.1287 -0.0622  0.0735
 9787W        W25681  16.984   1.281   1.576  0.0775 -0.1117 -0.2704
 9788W        W25682   8.466   6.401  14.783  0.1091  0.4432 -0.2302
 9789W        W25683   0.213  16.653   0.738  0.0830  0.0846  0.0146
 9790W        W25684  10.669  15.481  12.728 -0.0438 -0.1098  0.2610
 9791W        W25685   0.644  18.940   0.773  0.1546 -0.0019 -0.2885
 9792W        W25686   5.734  19.199   0.827  0.1587 -0.1837 -0.2301
 9793W        W25687   5.036  15.509  11.716 -0.2124  0.1299 -0.1226
 9794W        W25688  10.460   3.878   2.305 -0.0364 -0.1732 -0.1322
 9795W        W25689  11.821  12.467  11.356  0.1186  0.2847 -0.1362
 9796W        W25690  16.538  18.300   0.811 -0.1645  0.2999 -0.2718
 9797W        W25691  10.932   7.272   3.592  0.2933  0.0778 -0.2459
 9798W        W25692  14.231   4.789  12.050  0.0061 -0.0602 -0.2416
 9799W        W25693  12.698   2.466  10.249 -0.0236 -0.0464  0.2362
 9800W        W25694   1.257  11.855  11.705  0.1153 -0.2061 -0.0217
 9801W        W25695   2.052  10.429   1.741  0.1819  0.1529 -0.1025
 9802W        W25696   2.091  11.135  12.458 -0.2542  0.1038 -0.0260
 9803W        W25697  11.445   2.415  12.059  0.0689 -0.0675 -0.2127
 9804W        W25698  13.554  16.036  14.543  0.0568 -0.0574 -0.0429
 9805W        W25699   9.587  16.459   3.390  0.0886  0.3726  0.0981
 9806W        W25700  10.597  17.538   3.920  0.0036  0.1053  0.2946
 9807W        W25701  14.200  13.409   2.307  0.1590  0.0750  0.1410
 9808W        W25702  13.199  14.938  14.147  0.1033  0.0818 -0.2505
 9809W        W25703   8.212   6.537   1.466 -0.2357  0.0724 -0.0352
 9810W        W25704  17.370   4.657   2.970 -0.0372  0.2544 -0.0216
 9811W        W25705  13.594  13.208  12.419  0.1198  0.2843 -0.2103
 9812W        W25706  10.842   5.584  14.035 -0.1668 -0.2079 -0.2110
 9813W        W25707  14.066  14.600   0.808 -0.0482  0.0526  0.0380
 9814W        W25708  18.949   6.533   2.846 -0.1084 -0.1057  0.2017
 9815W        W25709  17.061   7.641   2.698 -0.2985 -0.2068  0.2366
 9816W        W25710  12.333   1.067  14.519  0.2188  0.3842 -0.2860
 9817W        W25711  12.726  14.577   3.135 -0.1806  0.2081 -0.1758
 9818W        W25712  12.634   8.173  14.321  0.0922 -0.0148  0.0636
 9819W        W25713   0.524  15.428   4.986 -0.3501  0.2120  0.0199
 9820W        W25714   2.993   3.733   4.527  0.2074 -0.1283 -0.0426
 9821W        W25715  18.000   7.026   3.017 -0.2739  0.0410  0.0191
 9822W        W25716   0.592   8.653   5.785 -0.1027  0.1781  0.2239
 9823W        W25717   1.585  17.411   5.060  0.0906 -0.2076 -0.1366
 9824W        W25718  10.455   9.919   5.672 -0.2173  0.0864  0.1435
 9825W        W25719   9.314  18.535  10.954 -0.0588 -0.3193  0.2044
 9826W        W25720   8.297   2.643   3.967 -0.1376 -0.1624  0.1267
 9827W        W25721   9.925  12.890   2.211  0.2534  0.0912  0.0982
 9828W        W25722   3.769   7.063  11.353 -0.0719  0.3193  0.0244
 9829W        W25723   2.823  11.524  12.109 -0.2755 -0.0862  0.3844
 9830W        W25724   7.711   2.665  11.210 -0.4081 -0.0006  0.0140
 9831W        W25725  16.387  17.304  12.429  0.0498 -0.1328  0.2466
 9832W        W25726   1.338   5.313   2.161 -0.0130 -0.1316  0.0122
 9833W        W25727   4.426   2.055   0.208 -0.1824 -0.0911 -0.0978
 9834W        W25728   5.326  17.028   2.439 -0.0782  0.2210 -0.0484
 9835W        W25729   3.229  17.757  10.836  0.4413  0.0336  0.3107
 9836W        W25730   4.449  18.094  12.508 -0.0238 -0.0092 -0.0798
 9837W        W25731  11.385  16.967  12.693  0.1170  0.1204 -0.1302
 9838W        W25732  10.112   9.875   3.256  0.1835  0.0167 -0.0220
 9839W        W25733  18.766  13.443  11.071 -0.1502  0.2527  0.2819
 9840W        W25734  12.607   2.803   9.912  0.1556 -0.1351  0.0817
 9841W        W25735  16.970   7.374  14.895  0.3221  0.1434  0.3706
 9842W        W25736   0.818   0.419  11.366  0.1238 -0.0092  0.1649
 9843W        W25737   8.842   1.736  12.732  0.0572  0.2319  0.2094
 9844W        W25738  12.491  16.926   3.437 -0.1303  0.5111 -0.0190
 9845W        W25739  14.294   3.469   3.310  0.0118 -0.1802  0.2403
 9846W        W25740   3.633   8.029   0.546 -0.0313  0.2188  0.3469
 9847W        W25741   3.865  13.403   2.963  0.0956  0.1547  0.0848
 9848W        W25742  12.017  13.946   9.936  0.2182 -0.1109  0.3275
 9849W        W25743   8.729   4.476   2.157 -0.2885  0.0222  0.1520
 9850W        W25744  14.074  15.330  14.078  0.0232  0.1071  0.0661
 9851W        W25745   5.125  11.940  11.237 -0.0164 -0.1299  0.0178
 9852W        W25746   2.177  11.731  13.392  0.0866 -0.0128  0.1064
 9853W        W25747   0.659   5.749   2.584  0.1705 -0.0216 -0.0682
 9854W        W25748   4.540   0.267   4.889  0.1798 -0.3906 -0.0074
 9855W        W25749   9.059  14.204   1.329 -0.1749 -0.0334  0.0760
 9856W        W25750  18.428   6.972  11.400 -0.2629  0.1728 -0.1464
 9857W        W25751   3.872   7.973   2.053  0.1119 -0.1118 -0.4171
 9858W        W25752   5.630   5.446   4.114  0.4127 -0.0702 -0.0407
 9859W        W25753   1.196   5.126  10.490  0.3098  0.0014 -0.2113
 9860W        W25754   8.781  16.270  10.846  0.1394 -0.1287  0.1922
 9861W        W25755   7.070  18.039   3.591 -0.0042  0.0960  0.0025
 9862W        W25756  15.373   0.376   4.211 -0.2627  0.4149  0.1889
 9863W        W25757  13.902   4.300  14.322 -0.0812 -0.1636  0.0641
 9864W        W25758  12.426   0.766  13.863 -0.0682  0.0467 -0.1680
 9865W        W25759  13.012  14.844  14.654  0.0301  0.0644 -0.1401
 9866W        W25760  10.241   4.757   1.618  0.2145 -0.2446 -0.1883
 9867W        W25761  18.120   2.196   0.492  0.1869  0.1362 -0.1702
 9868W        W25762   7.531   3.023   5.343  0.0412  0.1953 -0.1712
 9869W        W25763  11.627   7.293   5.405  0.1354 -0.3550  0.2194
 9870W        W25764   5.935   6.594  12.119 -0.3653  0.1905  0.1579
 9871W        W25765   6.248   4.314   0.060 -0.1121 -0.3085  0.0241
 9872W        W25766   3.293   0.547  15.073 -0.1569 -0.2523  0.1582
 9873W        W25767  10.681  11.735   1.976 -0.2233  0.2321 -0.1442
 9874W        W25768   7.753  17.191   4.342  0.0749 -0.1295 -0.1861
 9875W        W25769  15.471  17.458   3.580  0.0393  0.1485  0.0628
 9876W        W25770   7.554   7.028   5.152 -0.0080  0.1130  0.5021
 9877W        W25771  18.234  13.722  13.292 -0.0842  0.2308  0.1583
 9878W        W25772  11.676  15.686   3.517  0.2178  0.0608 -0.3451
 9879W        W25773   7.470   0.116   4.489 -0.0208 -0.2602 -0.0715
 9880W        W25774  10.575   6.145   9.222  0.0793  0.0756 -0.0206
 9881W        W25775  17.424  10.504  13.076 -0.0178 -0.1543 -0.1428
 9882W        W25776  11.448  19.146   9.992  0.1304 -0.0330  0.0365
 9883W        W25777  11.690   9.719   0.300  0.3041  0.1881  0.1619
 9884W        W25778  13.086  10.364   0.287 -0.2040  0.1009  0.0086
 9885W        W25779  12.866   1.236  14.381 -0.4299  0.1743 -0.0052
 9886W        W25780   0.442   9.060   0.084 -0.0342 -0.1461  0.2217
 9887W        W25781   4.027   8.104   1.581  0.1383  0.3615  0.2761
 9888W        W25782   2.366   7.299  14.061 -0.1426  0.0984  0.1575
 9889W        W25783  17.496   7.501  14.002  0.1890 -0.2007  0.0598
 9890W        W25784  16.649  16.936   4.339  0.0651  0.1818  0.0518
 9891W        W25785  10.674   1.121  14.301  0.0236  0.1375 -0.5091
 9892W        W25786  10.220   7.702   2.504 -0.1370 -0.1838  0.1352
 9893W        W25787   9.859  15.709  14.170 -0.0643 -0.1050  0.0624
 9894W        W25788  13.696   6.954   2.307 -0.1058  0.0922 -0.0138
 9895W        W25789   1.421  11.635   5.082 -0.1767 -0.0919 -0.1104
 9896W        W25790  18.179   3.835  14.412 -0.2715  0.1789 -0.3385
 9897W        W25791  11.558  18.709  13.476  0.3675  0.0707  0.0189
 9898W        W25792   9.547  17.048  13.203  0.2240 -0.0575  0.0377
 9899W        W25793   8.149   2.706   2.431 -0.0435 -0.3681 -0.0759
 9900W        W25794   4.223  17.176  10.794  0.1347 -0.2703 -0.0887
 9901W        W25795  15.705  18.292  10.402  0.4199  0.1423 -0.0273
 9902W        W25796  16.704  12.734  12.588 -0.0494 -0.1065  0.0605
 9903W        W25797   5.106   7.890   3.551 -0.2572 -0.0819 -0.3096
 9904W        W25798  18.659  14.748   4.544  0.2505  0.2265 -0.1469
 9905W        W25799   9.514  10.517   2.743 -0.0816 -0.2555 -0.3345
 9906W        W25800   5.898  18.285  14.866  0.1038 -0.1172 -0.0164
 9907W        W25801   1.903  10.653  12.432 -0.0120  0.0386 -0.1718
 9908W        W25802   3.662  14.069   2.766  0.2369  0.0964 -0.1248
 9909W        W25803   0.667   4.081   5.006  0.1946  0.0570 -0.0107
 9910W        W25804   5.172  17.590  12.177 -0.1441  0.0929 -0.0150
 9911W        W25805   5.052  12.669  14.626 -0.1909  0.0841 -0.2028
 9912W        W25806  15.785  13.831  14.055  0.0543  0.3601 -0.0124
 9913W        W25807  10.564   0.369  10.829 -0.0280 -0.1883  0.1621
 9914W        W25808   1.216   4.743  11.797 -0.2017  0.1074 -0.0901
 9915W        W25809  14.245   7.817   4.341 -0.0606 -0.0945 -0.1012
 9916W        W25810   3.160  17.315  14.423  0.0027  0.0960  0.0483
 9917W        W25811  12.803  11.698  14.864  0.2129  0.0150  0.0701
 9918W        W25812   0.907   9.389   3.985 -0.0471 -0.1262  0.0346
 9919W        W25813  17.222   1.558   2.076 -0.0069 -0.0359 -0.0552
 9920W        W25814   5.410   2.216   0.313 -0.0275  0.1218 -0.0995
 9921W        W25815  12.204  19.097  14.469 -0.1240 -0.1576  0.2342
 9922W        W25816  17.318   3.718   0.851 -0.1340  0.0160  0.1785
 9923W        W25817  19.155   9.720  14.688 -0.2281 -0.0617  0.1649
 9924W        W25818   2.849   5.399   5.255  0.2991  0.0853  0.2591
 9925W        W25819   4.843   4.575   2.953 -0.1138  0.1098  0.1297
 9926W        W25820   5.319   2.545   3.999  0.0443  0.2366 -0.0674
 9927W        W25821  18.182  10.949  10.345 -0.0477 -0.3176  0.2282
 9928W        W25822   8.000   3.679   4.159  0.2050  0.2951  0.1528
 9929W        W25823   0.460   7.124  12.126 -0.1055 -0.2500  0.0505
 9930W        W25824   1.387   8.072  11.264  0.0594  0.2912  0.0107
 9931W        W25825  14.826  15.704   3.770  0.0877  0.0512 -0.0096
 9932W        W25826   0.704   8.440   1.514  0.2426 -0.0435 -0.2518
 9933W        W25827  11.907  14.458   4.964  0.0234 -0.0306 -0.1876
 9934W        W25828  14.525   7.108   5.716 -0.0590  0.2667  0.1254
 9935W        W25829  17.149   2.708  10.306  0.0568  0.2258 -0.1387
 9936W        W25830   9.281   0.661  10.681  0.4454  0.3013  0.1692
 9937W        W25831  12.748   1.839   2.737  0.0236  0.3049 -0.0461
 9938W        W25832  16.520   2.847   4.447  0.2779  0.1528 -0.0890
 9939W        W25833  13.416  16.472  13.353  0.1101 -0.1317 -0.0267
 9940W        W25834  15.923  15.684   3.361 -0.2736  0.1561 -0.3357
 9941W        W25835  17.688  12.256   0.106  0.1639 -0.0200  0.2625
 9942W        W25836  12.042   5.879   0.863 -0.0484  0.0502 -0.1009
 9943W        W25837   4.441  12.357  12.954  0.0208 -0.0563 -0.0285
 9944W        W25838  14.022   2.264   3.941  0.1768 -0.0900 -0.1751
 9945W        W25839  19.099   3.199  11.163 -0.1482  0.0702  0.4578
 9946W        W25840   1.696   1.905   3.252 -0.3320 -0.1221 -0.3377
 9947W        W25841   0.170   7.067   1.131  0.2156 -0.1325  0.3672
 9948W        W25842  13.366   2.976   2.674  0.2992 -0.0973  0.2143
 9949W        W25843   5.534  17.222  10.693  0.0414  0.0290 -0.0133
 9950W        W25844   6.894  10.057   4.121 -0.1541  0.2991  0.0558
 9951W        W25845   6.748  18.351  11.277 -0.0922 -0.1439  0.1204
 9952W        W25846  14.543   7.395  11.223 -0.0228  0.1482  0.1716
 9953W        W25847   1.106  10.394  14.876  0.2890 -0.1777  0.1256
 9954W        W25848  16.219  18.058   1.121  0.3352 -0.0837 -0.2575
 9955W        W25849  17.992   4.494   3.071  0.2669  0.0262  0.0970
 9956W        W25850   6.673   3.781   5.401 -0.2075 -0.0069 -0.3424
 9957W        W25851   7.203  10.849  11.873 -0.3231  0.2410  0.0076
 9958W        W25852  18.477   0.706   4.000  0.2489 -0.2576  0.0411
 9959W        W25853   4.256  16.638  14.385  0.0017 -0.2156  0.2602
 9960W        W25854   4.969  12.302  13.150  0.2052 -0.1518  0.2279
 9961W        W25855   6.564  12.396   2.815 -0.2305 -0.1088 -0.0691
 9962W        W25856   2.711   5.364  13.317  0.0417  0.3002  0.1305
 9963W        W25857  10.397  12.489  11.025  0.0900 -0.0239 -0.0487
 9964W        W25858  14.723  11.908   4.397  0.2991  0.0832  0.0390
 9965W        W25859   7.702  13.216   3.731 -0.0512 -0.2550 -0.3487
 9966W        W25860   6.614  14.681   0.559 -0.4236 -0.1482  0.5750
 9967W        W25861  14.172  16.698   4.947  0.1011 -0.0921 -0.1045
 9968W        W25862  11.943   8.127  12.503 -0.1939  0.1723  0.1104
 9969W        W25863  14.228  15.240   1.811 -0.1379  0.2407 -0.1087
 9970W        W25864   6.374   8.572   0.767 -0.1991  0.2331 -0.0748
 9971W        W25865   2.920   7.027  12.184  0.4317  0.2769  0.1881
 9972W        W25866  18.100  10.362   3.222 -0.0324 -0.2560  0.3532
 9973W        W25867  13.062  15.398   1.163 -0.1419  0.0839 -0.1771
 9974W        W25868   0.827  16.412  12.711  0.0434  0.1133 -0.0091
 9975W        W25869  15.673   9.860   0.388 -0.0191 -0.1695  0.1914
 9976W        W25870   3.598  12.946  12.979 -0.1331  0.0864 -0.3170
 9977W        W25871  18.201  11.189  14.667 -0.0447 -0.1733 -0.0567
 9978W        W25872   8.386   0.045   2.112 -0.0591  0.0330 -0.1233
 9979W        W25873  18.627   4.102   5.404 -0.3576 -0.1094  0.0897
 9980W        W25874   3.502   5.812  13.727  0.0587  0.2045 -0.0760
 9981W        W25875   1.756   9.574   3.018  0.1004 -0.2027 -0.1008
 9982W        W25876   5.101   7.777  13.288 -0.3187 -0.1180  0.2893
 9983W        W25877   0.366   2.908  14.402 -0.2287 -0.2188 -0.2987
 9984W        W25878   3.171   0.170  13.092  0.0333 -0.1188  0.0325
 9985W        W25879   5.880   8.466   2.880  0.3668  0.2670 -0.0274
 9986W        W25880  11.801   5.042   0.946  0.0066 -0.0336  0.0804
 9987W        W25881   4.371  15.643  14.186  0.2066  0.0321 -0.2226
 9988W        W25882  15.739   4.013  13.133  0.1434  0.0269  0.2925
 9989W        W25883   2.834   4.307  11.474 -0.0704 -0.1678  0.1273
 9990W        W25884  12.302  17.608  11.807  0.1330 -0.2212  0.0178
 9991W        W25885   6.374  16.116  10.781 -0.2168 -0.1476 -0.1635
 9992W        W25886  11.610   5.450   2.581 -0.2570 -0.2644 -0.0240
 9993W        W25887  10.333  16.111   3.872 -0.3440 -0.3381 -0.1141
 9994W        W25888   3.853   7.620  12.402 -0.1447  0.3154  0.1285
 9995W        W25889   1.146  18.916   3.599  0.3482  0.0640 -0.0787
 9996W        W25890   6.416  14.924   9.968  0.2242  0.2995  0.1216
 9997W        W25891  13.504   0.225   4.213  0.1697  0.1080 -0.1372
 9998W        W25892   7.657   9.026   0.775  0.2529  0.4495 -0.0147
 9999W        W25893   7.727  14.905   4.592  0.2526  0.1821  0.1826
10000W        W25894  11.791   9.204   3.370 -0.1574 -0.0279  0.1285
10001W        W25895  14.120   4.361  13.372  0.1918 -0.6409  0.1553
10002W        W25896   7.313  10.755  12.917 -0.0627  0.0416 -0.4466
10003W        W25897   4.334  16.655   5.237 -0.3365 -0.1377 -0.2869
10004W        W25898  11.947   1.341  10.385  0.2546 -0.0113  0.2620
10005W        W25899  13.174   8.929  10.521 -0.0633 -0.0450  0.0560
10006W        W25900   2.992  17.231  10.941 -0.0306  0.1591  0.1412
10007W        W25901  17.691  14.673  14.876 -0.4535  0.3446 -0.0774
10008W        W25902   0.378  13.021   1.835 -0.1570 -0.0896  0.1904
10009W        W25903  16.974  17.364  10.545  0.0079  0.2550 -0.1331
10010W        W25904   6.997  16.317   2.335  0.0793  0.1855 -0.2554
10011W        W25905  10.456   7.996   1.532  0.2975 -0.0767 -0.0579
10012W        W25906  14.022   6.943   3.495  0.1259  0.2600  0.1585
10013W        W25907  11.153  18.174   1.099 -0.3167 -0.1456 -0.2155
10014W        W25908   1.004   8.349   1.047 -0.0000  0.0621 -0.2274
10015W        W25909   7.538  14.814  13.266  0.5909 -0.1610 -0.1167
10016W        W25910   6.207  13.818  12.567 -0.0559  0.1970 -0.0503
10017W        W25911   6.792   6.018  13.885  0.0717 -0.2640 -0.1034
10018W        W25912  18.327   9.554  13.387 -0.2602  0.1031  0.0777
10019W        W25913   5.325   9.743   3.853  0.2687 -0.3225  0.1749
10020W        W25914   8.672   6.450   4.958  0.0129 -0.3278 -0.1422
10021W        W25915  16.493  15.318  13.690  0.3149  0.0586 -0.2692
10022W        W25916  13.837  13.180  11.719  0.0265  0.0123  0.0830
10023W        W25917  10.185   4.919   5.735 -0.0064  0.2146  0.1011
10024W        W25918   5.039  12.339  13.684  0.0839 -0.0009 -0.2933
10025W        W25919  12.274   3.779   4.596  0.3563  0.1224  0.0151
10026W        W25920   6.715  17.119  10.479  0.0309 -0.0759  0.0162
10027W        W25921   0.721   1.998   2.045  0.3055 -0.1459 -0.0474
10028W        W25922  14.422   7.873  11.822 -0.2660  0.0817 -0.0771
10029W        W25923  12.015   1.126   0.792  0.1819  0.0350 -0.1937
10030W        W25924  10.204  14.665  13.734 -0.1390 -0.2682 -0.0126
10031W        W25925   1.516  10.501  14.573 -0.2717 -0.3622  0.3834
10032W        W25926  13.463   1.224   2.126 -0.3092  0.2369 -0.6689
10033W        W25927  10.993  18.187   2.115  0.1231 -0.0663  0.1897
10034W        W25928   3.502   3.062  13.150  0.0485 -0.1411 -0.0073
10035W        W25929   7.026  10.181   1.828 -0.0378 -0.0630 -0.3432
10036W        W25930   0.254  14.813   2.133 -0.4382  0.3301  0.0588
10037W        W25931   7.836   4.916  12.015  0.2849  0.0027 -0.3691
10038W        W25932  10.067  13.396   5.161  0.0480 -0.2962 -0.1148
10039W        W25933   9.699   6.189  13.556  0.0833 -0.1240  0.0970
10040W        W25934   0.512  15.343   1.358  0.6014  0.2311 -0.0571
10041W        W25935  13.363   4.892   1.142 -0.1978  0.2539  0.0151
10042W        W25936   6.243   8.445   1.966  0.2203  0.1873  0.1266
10043W        W25937   4.620   5.220   4.017 -0.0098  0.0916 -0.0266
10044W        W25938   8.379   7.413   5.211 -0.0035  0.1894  0.4662
10045W        W25939   5.510   6.520   4.234  0.0600 -0.3232 -0.2868
10046W        W25940   4.960  12.534  11.979 -0.2310  0.2478  0.0359
10047W        W25941   4.847   1.828   1.775  0.1418  0.0614 -0.0795
10048W        W25942  12.570  11.344  11.962  0.2819  0.4231 -0.1873
10049W        W25943  18.365  12.707  14.829  0.1196 -0.1027  0.0149
10050W        W25944  16.876   8.290   1.541 -0.0364 -0.1169  0.0123
10051W        W25945  16.575  12.714  10.106 -0.2970  0.0657  0.2339
10052W        W25946  16.446  15.457   2.008 -0.0709  0.0897 -0.1848
10053W        W25947   9.794   5.589  11.735  0.2243  0.4877 -0.2991
10054W        W25948   9.962  10.018  13.442  0.0363 -0.3711  0.1291
10055W        W25949  18.336   7.199   2.465  0.0719 -0.2740 -0.1464
10056W        W25950  12.510  14.219  11.157 -0.1792 -0.0082  0.1516
10057W        W25951  10.561  16.875   3.314  0.0325  0.2895  0.0023
10058W        W25952  17.516   2.904   4.057 -0.1380  0.1153 -0.3865
10059W        W25953   2.230   0.450  13.795 -0.1545 -0.0221  0.2212
10060W        W25954   2.534   1.021   4.771  0.2669  0.3369  0.1697
10061W        W25955  15.622  17.563  10.935  0.3329 -0.0109 -0.0229
10062W        W25956  16.629   7.057  14.730  0.3364 -0.0331  0.4459
10063W        W25957  19.025  15.694   4.584 -0.0403  0.1588 -0.0002
10064W        W25958  12.460  11.358  15.104 -0.1882 -0.1260 -0.1839
10065W        W25959  10.996   4.526   3.820 -0.1338  0.0207 -0.2145
10066W        W25960   5.625   1.079   5.099  0.5551  0.1810  0.0438
10067W        W25961  10.519   2.335  12.336  0.0025  0.1728  0.2848
10068W        W25962  17.675  15.175  12.613 -0.0405  0.0260 -0.1436
10069W        W25963  18.201   2.669  11.837 -0.3155  0.1947  0.0660
10070W        W25964  10.660   8.201   0.194  0.1880 -0.1080 -0.1848
10071W        W25965  18.910   5.806   4.849  0.0961  0.0232 -0.0003
10072W        W25966   3.685   8.687   2.423 -0.0195  0.0220 -0.0047
10073W        W25967   9.660  17.297  15.029  0.0291  0.0834  0.0329
10074W        W25968  10.434   0.113  15.080  0.2605  0.0317 -0.0417
10075W        W25969  19.096  11.246  12.167  0.2534  0.2543  0.1372
10076W        W25970   6.084   2.090   3.643 -0.1261 -0.1264 -0.1410
10077W        W25971   6.545   0.602   4.680  0.3595  0.0971  0.1651
10078W        W25972   0.500   7.402  12.845 -0.1723 -0.2352 -0.2435
10079W        W25973  15.001  11.199  10.502 -0.2058 -0.1890 -0.2706
10080W        W25974   0.245   0.255  12.024  0.1726  0.1044  0.2666
10081W        W25975   4.819  11.479   3.602 -0.2122  0.0993 -0.2541
10082W        W25976  12.038  10.992   4.916 -0.3320  0.2203 -0.0196
10083W        W25977   3.583  17.225   4.703 -0.0071  0.0963  0.1863
10084W        W25978  16.027  16.935   4.154  0.0858 -0.0582 -0.0642
10085W        W25979   0.375  11.162  14.800  0.1960 -0.0711  0.3132
10086W        W25980   4.831   7.052   2.116  0.0666 -0.0300  0.0090
10087W        W25981   6.742  18.665   4.785  0.0102  0.2900  0.0989
10088W        W25982   0.083   6.762  12.152  0.2452  0.0412 -0.1639
10089W        W25983   7.039  18.894   3.304 -0.0032 -0.5191  0.2125
10090W        W25984   8.602   9.762   2.471 -0.1724 -0.2047  0.0066
10091W        W25985  16.358   0.738   3.625  0.1092 -0.1870 -0.2597
10092W        W25986  13.928  18.959  14.805  0.0995  0.1195 -0.0709
10093W        W25987   8.763  18.598   2.478  0.2243 -0.1973  0.2363
10094W        W25988  12.975   8.053   1.795  0.0067  0.1040  0.4429
10095W        W25989   6.459  12.652  12.997  0.4592 -0.3993 -0.3553
10096W        W25990  17.206   7.485   0.286  0.3973  0.5544 -0.1543
10097W        W25991  16.065   1.237   1.245 -0.1104 -0.2409 -0.2068
10098W        W25992  13.895  17.591   2.542 -0.4051  0.2386 -0.1027
10099W        W25993  12.774  12.870   0.468  0.2099 -0.0079 -0.0019
10100W        W25994  15.142  14.095   4.733  0.0512  0.0924  0.2587
10101W        W25995  14.814   0.464  13.517  0.1990 -0.1416 -0.2799
10102W        W25996  16.877  12.457  14.782  0.1820 -0.2867 -0.0904
10103W        W25997  16.097   6.187   0.617 -0.1017 -0.1545  0.0875
10104W        W25998  10.186  14.963   1.475 -0.3707  0.2085 -0.0540
10105W        W25999  15.567   2.806   9.631 -0.0765  0.0073 -0.1981
10106W        W26000  14.733   7.361   1.760 -0.1461  0.2093 -0.1102
10107W        W26001   5.444   3.391   4.172  0.1110  0.1424 -0.2701
10108W        W26002   4.295   4.988   2.233  0.0712 -0.0396 -0.0508
10109W        W26003   7.435  18.948   3.663  0.0752 -0.0770 -0.2018
10110W        W26004   9.745  15.022   1.758  0.2483 -0.0699 -0.0924
10111W        W26005  11.317  13.130  10.759  0.1924 -0.1044 -0.2227
10112W        W26006   5.730  13.378   3.416 -0.2626  0.3628 -0.2261
10113W        W26007   0.459  18.357   0.445  0.2779 -0.1748  0.0719
10114W        W26008   6.473   2.726   5.614  0.0055 -0.3663 -0.0666
10115W        W26009  14.669   5.698  14.050  0.0791 -0.0184  0.2273
10116W        W26010  11.850   0.597  12.103  0.1315  0.1434 -0.0043
10117W        W26011   6.979  16.490   1.505 -0.0197  0.2364  0.4680
10118W        W26012   2.309   8.757  11.683  0.0170  0.0985 -0.1227
10119W        W26013  11.246   1.747  14.042  0.1742  0.1960  0.1807
10120W        W26014  15.116   6.953   2.879  0.1737  0.0683 -0.2936
10121W        W26015   4.309   9.756   2.250  0.0224 -0.0220 -0.0477
10122W        W26016  13.694   6.552  14.440 -0.0237 -0.3824 -0.5893
10123W        W26017  12.614   6.156   5.467  0.0704 -0.2217  0.0422
10124W        W26018   8.437  12.235   4.771  0.0922  0.2912  0.0168
10125W        W26019  17.479   8.272  11.017  0.1456 -0.1323 -0.2698
10126W        W26020  15.584   5.942   4.894 -0.1314 -0.2014  0.2680
10127W        W26021   3.988   7.379  10.006  0.0479 -0.3336 -0.1236
10128W        W26022   2.718  17.674  11.042 -0.0672  0.2020  0.0252
10129W        W26023   2.025  19.106  15.071 -0.1426 -0.2056  0.2470
10130W        W26024   7.099  10.534   4.299 -0.2944  0.0276  0.0679
10131W        W26025  12.316  16.845  12.977 -0.0743 -0.4970  0.0153
10132W        W26026  13.660   9.072  13.395  0.1240 -0.2084  0.0154
10133W        W26027   4.373   0.744  10.854 -0.0081 -0.0128 -0.1376
10134W        W26028  17.301  10.681  10.578  0.0299  0.4119  0.1617
10135W        W26029   9.049   2.305  12.974 -0.0661  0.0152 -0.0856
10136W        W26030   9.281   7.173   0.437  0.2734 -0.0026  0.3656
10137W        W26031  14.619   7.972   9.693  0.1381 -0.3727  0.4886
10138W        W26032  17.643   1.550   2.778  0.1191  0.0204 -0.1945
10139W        W26033  11.014  15.732   4.487 -0.0163 -0.0724 -0.1478
10140W        W26034  13.093   3.278  13.920 -0.0128 -0.2741 -0.1518
10141W        W26035   2.602   9.850  13.791 -0.2710 -0.0265 -0.1938
10142W        W26036   0.930  14.856   1.482  0.0127 -0.4317  0.1371
10143W        W26037   7.283  11.261  10.103  0.2227 -0.1064  0.0373
10144W        W26038   9.750   1.334  12.928 -0.2491  0.0242  0.2030
10145W        W26039  16.705   8.502   5.927  0.2517  0.0970 -0.4589
10146W        W26040   1.377  16.016  14.409  0.2732  0.0663 -0.0294
10147W        W26041  16.390  13.055   4.002  0.4171 -0.1359  0.0790
10148W        W26042  11.207   6.440  11.007  0.2205  0.1532  0.0864
10149W        W26043  18.302   7.598  14.225  0.0080 -0.3172  0.0473
10150W        W26044  18.616  16.912   4.075 -0.1971 -0.3545 -0.0381
10151W        W26045   4.966   9.502   0.502 -0.0799  0.0248 -0.1848
10152W        W26046  18.993  12.999   4.349  0.0664 -0.0741  0.0643
10153W        W26047  17.935  17.371   1.737  0.1488 -0.1514  0.0598
10154W        W26048   6.741   9.283   2.379 -0.1852  0.2736  0.1055
10155W        W26049  17.442   8.765  15.042 -0.2293  0.2132  0.0196
10156W        W26050  10.850   4.429  10.481 -0.1285 -0.1899 -0.3508
10157W        W26051  18.171   7.567   0.470  0.0866  0.0236 -0.0889
10158W        W26052   5.696  14.163   0.241  0.3729 -0.2147 -0.0707
10159W        W26053   0.615  15.927   4.480  0.1695 -0.0245 -0.0381
10160W        W26054  17.162   1.045  12.419 -0.0803 -0.0045  0.2360
10161W        W26055  16.239  11.842  12.322  0.0537 -0.4238  0.0783
10162W        W26056   8.983   4.089  11.595 -0.4140 -0.1777  0.0553
10163W        W26057   5.663   7.896   5.647  0.4419 -0.0261 -0.0065
10164W        W26058   3.129  10.106   1.054 -0.0924  0.3848  0.0725
10165W        W26059  13.025   2.659   5.346 -0.0074 -0.0305  0.0389
10166W        W26060   1.871  11.009   2.921  0.0836 -0.0466 -0.1567
10167W        W26061   3.847  17.119   5.747  0.3415  0.1103 -0.0101
10168W        W26062   4.691   6.010   1.299  0.1656 -0.0973  0.3326
10169W        W26063  13.348   1.730   3.347  0.1192  0.2432 -0.3994
10170W        W26064   4.272  18.839   0.868 -0.0772 -0.1291  0.0338
10171W        W26065  17.847  15.400   1.897 -0.0130 -0.0277 -0.0535
10172W        W26066   3.648  14.409  15.044 -0.3648  0.0660 -0.1238
10173W        W26067   2.351   6.808   4.647  0.0314 -0.0597 -0.0370
10174W        W26068  10.282  11.532  14.928 -0.3210  0.1731 -0.2308
10175W        W26069   4.958  18.595  10.931 -0.0203  0.1259  0.2993
10176W        W26070   9.278   4.355  12.935  0.0173  0.3235 -0.1182
10177W        W26071  16.063   1.946  13.892 -0.2375  0.0785 -0.0478
10178W        W26072  11.894   0.728  13.978 -0.2116  0.2408 -0.2206
10179W        W26073  10.446   6.621  13.009  0.5049 -0.2873 -0.3185
10180W        W26074   3.430  11.698   4.239  0.1739 -0.1754  0.0005
10181W        W26075   4.570   3.352   4.538 -0.0817 -0.1798 -0.3482
10182W        W26076   8.363   3.522   3.753 -0.0818  0.0475  0.0653
10183W        W26077   6.780  11.159  10.691 -0.1921  0.0707  0.0938
10184W        W26078  13.584  12.996  10.796  0.1060 -0.1761  0.1691
10185W        W26079   1.446  19.098  11.874  0.0941 -0.2281 -0.1554
10186W        W26080   9.396   5.064  11.350 -0.0200  0.1050 -0.3527
10187W        W26081  14.257  15.769  10.737  0.1288 -0.0078 -0.1837
10188W        W26082  17.420  11.761   1.597  0.4715  0.0620  0.1136
10189W        W26083   4.271  12.353  14.007  0.0197 -0.5660 -0.1138
10190W        W26084  12.457  15.782   5.149 -0.0020  0.0447  0.1563
10191W        W26085  13.955   8.267   0.772 -0.0255  0.4083  0.0483
10192W        W26086   0.351  17.688   1.316  0.2392 -0.1080  0.2355
10193W        W26087  17.007   0.181   3.858 -0.1884  0.0568  0.1295
10194W        W26088  11.556   2.299  13.201 -0.1819 -0.0857 -0.2364
10195W        W26089   2.292   7.675   1.653 -0.2491 -0.2369  0.1738
10196W        W26090  11.734  15.441  10.055  0.1747  0.3718  0.0064
10197W        W26091   9.947   1.268   0.082 -0.0866  0.2439  0.2600
10198W        W26092  17.816   9.770  12.529  0.1563 -0.1027  0.1948
10199W        W26093  18.584   2.422  14.575  0.2951 -0.0528 -0.0550
10200W        W26094  18.690   4.997  11.616 -0.0418 -0.3137  0.3413
10201W        W26095  13.458   9.687   6.157 -0.0300 -0.0490  0.0498
10202W        W26096  16.314  13.142   2.022 -0.1303 -0.2508  0.2087
10203W        W26097   9.541  18.965  11.319 -0.1634  0.0784  0.0074
10204W        W26098  15.487  18.778   3.547 -0.1347 -0.2538 -0.1796
10205W        W26099   6.197   6.277   2.668 -0.0606  0.1388  0.1446
10206W        W26100   9.669  10.729  14.086 -0.4944  0.0694 -0.0763
10207W        W26101   8.000  18.509  10.623  0.1395 -0.0446  0.2129
10208W        W26102   5.908  10.872  10.781  0.0619 -0.1833  0.0208
10209W        W26103  13.091  16.838  13.321 -0.0186  0.0280 -0.1513
10210W        W26104  10.670   5.364   3.181  0.0709 -0.1726  0.2021
10211W        W26105  10.302  10.585   5.279  0.2258  0.1690 -0.5018
10212W        W26106  10.889   8.483   4.856  0.1425 -0.0271 -0.1820
10213W        W26107  14.031  12.615  13.835 -0.0003 -0.1615  0.2550
10214W        W26108   0.456  18.511   2.074  0.2996  0.1244  0.0718
10215W        W26109  10.072   1.116   1.865  0.4033 -0.1431 -0.1163
10216W        W26110  11.129   7.339  11.865 -0.0610  0.1193  0.0724
10217W        W26111  13.084  12.549  13.202 -0.1182  0.0145  0.1380
10218W        W26112  15.718   4.018  12.392  0.0966  0.0587  0.0975
10219W        W26113  18.651  15.102  14.105  0.1046  0.2251 -0.1629
10220W        W26114  11.331   8.257   4.887  0.1762 -0.2864  0.0714
10221W        W26115   2.930   8.991   1.921  0.0678  0.0943  0.0296
10222W        W26116  15.661  11.951  10.686 -0.1651 -0.1283  0.0460
10223W        W26117   4.782   1.442   1.446  0.3733  0.0148 -0.0094
10224W        W26118   0.286   5.780  11.140  0.1001  0.3282  0.4704
10225W        W26119  11.476   4.674  13.255 -0.1260  0.3626 -0.0023
10226W        W26120   9.636   7.112   4.552 -0.0063 -0.2279 -0.1585
10227W        W26121  12.884  18.431  14.219  0.2330  0.1578  0.1690
10228W        W26122   2.217   4.832   0.266 -0.0158 -0.1219  0.1016
10229W        W26123   5.726   2.100  13.658  0.1380  0.1760  0.1014
10230W        W26124   7.438  12.435   1.610 -0.2800 -0.1207  0.1926
10231W        W26125   2.025  13.790  14.347  0.0928 -0.1027  0.1072
10232W        W26126   8.182  18.701   2.552  0.2957  0.0916  0.0917
10233W        W26127   1.240  15.509  13.396  0.0927  0.0121  0.0234
10234W        W26128   5.477   2.191   1.247  0.2407 -0.2219 -0.2905
10235W        W26129  17.673  13.383  14.619  0.4470  0.0354 -0.2002
10236W        W26130   2.296  14.136   0.662 -0.2180  0.1269 -0.0627
10237W        W26131  17.603   1.142  10.589 -0.3008  0.1505  0.0655
10238W        W26132   6.364   8.269   1.260 -0.5140 -0.4645  0.0963
10239W        W26133   5.212  10.569   4.230 -0.2605  0.2978 -0.3670
10240W        W26134  14.645   8.305   3.076  0.1027  0.2446 -0.0622
10241W        W26135  12.878  15.639   3.123 -0.2240  0.1932 -0.1728
10242W        W26136   1.089  16.467   5.912 -0.0622  0.1328 -0.0466
10243W        W26137   2.413   7.997  15.059  0.3438 -0.1152  0.1825
10244W        W26138  11.371   8.903   1.212 -0.0724  0.2079 -0.0205
10245W        W26139  15.425  12.398   3.741 -0.1013 -0.3150 -0.0421
10246W        W26140  13.336  13.015   4.695 -0.0381  0.0855 -0.0566
10247W        W26141   6.316  15.055   9.465 -0.0372 -0.0679 -0.1636
10248W        W26142  19.200  14.378   1.962  0.0928 -0.0093  0.1466
10249W        W26143  18.908   6.939   0.263 -0.0469 -0.2387  0.1298
10250W        W26144   4.272   8.566   3.650  0.1160  0.3373 -0.0933
10251W        W26145   2.863   0.656   0.147  0.0145  0.1125 -0.4776
10252W        W26146   4.010  18.671   1.692 -0.0446  0.2088  0.1517
10253W        W26147  10.595  14.184  11.324 -0.0106  0.2170 -0.0320
10254W        W26148  10.646  18.794  12.107 -0.0402  0.3256  0.1385
10255W        W26149  15.281   5.909   3.798 -0.0604 -0.1316  0.3924
10256W        W26150   3.141   8.274  13.128  0.1144  0.0051  0.1646
10257W        W26151   6.476   5.422  13.099 -0.3525 -0.0464 -0.0847
10258W        W26152   8.272   3.992   4.811 -0.1301  0.2659 -0.2034
10259W        W26153  18.062  16.811   0.512 -0.2104 -0.1365 -0.0092
10260W        W26154   6.074  15.610  14.597 -0.1032  0.1594 -0.2928
10261W        W26155   6.731   9.812  11.367  0.0478  0.2486  0.0362
10262W        W26156  18.855  17.828   2.510 -0.0226 -0.1409 -0.1040
10263W        W26157  13.452   8.255  13.955  0.1482  0.0304  0.0019
10264W        W26158   2.760   7.607   2.589  0.0837 -0.3594  0.4851
10265W        W26159   2.413   4.358  14.195 -0.0320  0.0664  0.2239
10266W        W26160   3.278   5.028   3.140  0.1456 -0.1271 -0.1004
10267W        W26161   9.536   5.665   2.410 -0.0452 -0.0589 -0.2611
10268W        W26162   7.610  10.825   1.180  0.3292 -0.1107  0.2018
10269W        W26163   2.076  13.173   4.022  0.2002 -0.1343  0.2739
10270W        W26164  14.007  17.533   3.205 -0.1712 -0.1128 -0.0679
10271W        W26165   5.141   4.689   0.704  0.4740  0.2373  0.1930
10272W        W26166  16.315   1.245   3.801 -0.0775 -0.3276  0.1418
10273W        W26167  19.174   8.535  11.227 -0.1849 -0.0206  0.0016
10274W        W26168   0.207  17.318  13.572  0.2605 -0.1393 -0.2222
10275W        W26169   2.307  14.678   3.051 -0.1979  0.0917 -0.3575
10276W        W26170   1.267   5.707  12.220 -0.0087  0.4418  0.2621
10277W        W26171  17.740   6.946  11.870  0.0245  0.0604  0.0370
10278W        W26172  15.805  13.240   4.594 -0.1037  0.2512  0.5371
10279W        W26173  12.212  18.101  11.819  0.0133 -0.2042 -0.2331
10280W        W26174   8.997   6.661   0.515 -0.0026 -0.0436  0.0967
10281W        W26175  17.968  13.782  11.337 -0.1450 -0.4795 -0.0755
10282W        W26176   4.768   4.160  12.127  0.0249  0.0615 -0.0488
10283W        W26177  15.022   7.718   2.197  0.2323  0.2522  0.0272
10284W        W26178   2.449  12.549   1.286  0.1514 -0.2321  0.2058
10285W        W26179  18.039  15.292   3.384  0.5092 -0.2245  0.1569
10286W        W26180   1.741   3.171  11.813 -0.0505 -0.2048  0.0984
10287W        W26181  13.657  19.158   3.829 -0.0706 -0.0064  0.1350
10288W        W26182   3.742   3.453   2.250  0.1516 -0.1531 -0.2507
10289W        W26183   8.672   1.283  10.651 -0.2343 -0.0502  0.0224
10290W        W26184  10.639   2.321  14.147  0.3703  0.1310  0.1260
10291W        W26185   0.687   4.336  11.413 -0.1158  0.1467  0.1344
10292W        W26186  16.753  13.835   1.406 -0.0704 -0.0988 -0.3754
10293W        W26187   6.852  10.708   2.837 -0.1245  0.0670  0.0956
10294W        W26188  10.407  16.666  13.207 -0.3605  0.0820 -0.1753
10295W        W26189  15.582  17.347  15.019  0.0083  0.1808 -0.1016
10296W        W26190   9.566  16.066  12.062 -0.0832 -0.1689 -0.0678
10297W        W26191   8.673  16.320   1.273 -0.1452 -0.0448  0.2505
10298W        W26192  16.447   3.670  11.017  0.0176 -0.3451 -0.0311
10299W        W26193  11.172  12.005   1.367  0.2718  0.1318 -0.0348
10300W        W26194   7.055   0.349   2.451 -0.1669  0.0689  0.2304
10301W        W26195   6.799  14.729   4.451  0.0864 -0.4120 -0.1835
10302W        W26196  14.761  13.118   1.500  0.0652  0.1419  0.0541
10303W        W26197  16.538   9.136  11.876  0.0391  0.0150 -0.3475
10304W        W26198  17.011  14.962   3.469 -0.1792  0.2615  0.0088
10305W        W26199   2.236  15.033  13.138 -0.0789  0.0237 -0.2555
10306W        W26200   0.025   8.070   1.158 -0.1003 -0.1170 -0.2056
10307W        W26201  12.547   7.885   9.948  0.0180 -0.4575 -0.1659
10308W        W26202  12.690  12.558  13.993 -0.1934 -0.0611 -0.0229
10309W        W26203   4.233  13.040   3.122  0.2172  0.1046 -0.0121
10310W        W26204   1.577  12.724  12.253  0.0323  0.0008 -0.2849
10311W        W26205   9.858   6.400  12.034  0.1515 -0.0759  0.0666
10312W        W26206   1.688  12.749   0.533  0.1450  0.1051  0.2550
10313W        W26207  18.756   6.345   1.955 -0.3010  0.2415  0.4477
10314W        W26208  12.138  17.308   4.902  0.1059  0.0734 -0.1034
10315W        W26209  13.852  14.070   9.220  0.1946  0.2589 -0.0045
10316W        W26210   7.294   7.885   1.429 -0.0329  0.0256 -0.0818
10317W        W26211  13.055   7.154  12.135 -0.1115 -0.2927 -0.3339
10318W        W26212  18.575   2.196  12.036 -0.0665  0.1835  0.3699
10319W        W26213  10.722   8.622   5.696 -0.0619 -0.2315  0.3131
10320W        W26214  12.376   5.665   2.813  0.0128 -0.1991 -0.1445
10321W        W26215   1.559  12.081   2.573  0.1841  0.1172  0.1794
10322W        W26216   7.246   9.793   3.905  0.1378 -0.0765 -0.0659
10323W        W26217  10.911   7.743  13.636 -0.2355  0.2573 -0.1523
10324W        W26218   5.470  14.143   2.252  0.2547  0.1390 -0.0639
10325W        W26219  11.401  18.340  13.810  0.1304  0.0278 -0.1246
10326W        W26220  10.549   3.914  11.227 -0.2207 -0.2716  0.2038
10327W        W26221   0.890  17.863  12.970 -0.0533 -0.4380 -0.1514
10328W        W26222  14.025  15.661   0.335  0.1431  0.1395 -0.1138
10329W        W26223   7.074   6.226   1.213 -0.0945 -0.0117 -0.0539
10330W        W26224   4.561  10.902  12.668  0.4250  0.0094 -0.2211
10331W        W26225   9.200  10.366  10.798  0.0479  0.0507  0.0154
10332W        W26226   0.742  16.165   0.120  0.3874  0.0368  0.0803
10333W        W26227  17.345  18.639  10.564 -0.0257 -0.0245 -0.0617
10334W        W26228  10.904  18.207   1.621  0.0755 -0.0379 -0.1227
10335W        W26229  10.754   4.057   2.718 -0.1286  0.0997  0.1110
10336W        W26230  15.413  15.492   3.217 -0.0735  0.0892 -0.1545
10337W        W26231   6.277  14.764   1.057  0.1109  0.0472 -0.0448
10338W        W26232   8.716   4.860  13.396  0.3770  0.0933 -0.1076
10339W        W26233   9.836  17.661   4.314 -0.1671  0.3385 -0.0000
10340W        W26234  11.242   5.657   3.737 -0.2107  0.2120  0.2356
10341W        W26235  18.411   6.894  12.690 -0.0424 -0.1285 -0.2685
10342W        W26236  14.126   8.338  13.886  0.3514  0.0683 -0.0380
10343W        W26237   5.640  11.934   1.969 -0.4547  0.1157  0.0500
10344W        W26238   9.606  13.281  13.724  0.2420  0.1408  0.0482
10345W        W26239   2.394  12.069  12.796 -0.1803  0.3112 -0.0285
10346W        W26240  18.791  13.779  12.227 -0.1295  0.3235  0.0634
10347W        W26241   0.441  16.808  13.588  0.0458 -0.0792 -0.2365
10348W        W26242   4.354  17.463  14.143 -0.0301  0.0564  0.3461
10349W        W26243   8.773  17.385   8.954 -0.0902  0.1321  0.0846
10350W        W26244  15.139   1.796   3.786  0.0309 -0.2096 -0.0379
10351W        W26245  14.834   5.387  12.045 -0.2617 -0.1907  0.0474
10352W        W26246   7.997  15.072  14.102 -0.2405 -0.3308  0.2399
10353W        W26247  17.443  18.075  10.597  0.2741  0.1829 -0.1452
10354W        W26248  13.699   1.696   2.968 -0.0096 -0.0608  0.0620
10355W        W26249  14.466   6.368  12.069  0.1699  0.3735  0.1369
10356W        W26250  15.943  12.765  14.296  0.1637 -0.1509  0.0882
10357W        W26251   8.575  15.364  14.309 -0.0759  0.1218  0.0812
10358W        W26252  12.812  11.809   2.015 -0.1960 -0.1133  0.1076
10359W        W26253  18.781   9.011  10.650 -0.1236 -0.0223  0.2732
10360W        W26254  11.287   5.480  14.339  0.1336 -0.0762  0.0613
10361W        W26255  11.525   8.903  13.851  0.2918  0.0881  0.0137
10362W        W26256   3.501   7.341  11.750  0.1084  0.3723  0.2092
10363W        W26257  17.142  11.487  10.390  0.1924 -0.1202 -0.2832
10364W        W26258  10.843   5.987  13.718  0.2277 -0.2290 -0.4755
10365W        W26259  11.606  11.681  11.652  0.1020 -0.1500  0.2050
10366W        W26260   3.270   3.714   6.008  0.0300 -0.0575  0.2739
10367W        W26261  10.814  16.241   2.558 -0.0085  0.1228  0.1850
10368W        W26262   7.663   6.087  14.184 -0.0642  0.0373  0.3465
10369W        W26263  11.906   0.225  13.208 -0.2551  0.0712  0.1144
10370W        W26264  16.443   7.555   4.786  0.1771 -0.4904  0.0618
10371W        W26265  14.712  15.983  10.708  0.2132  0.0797  0.4144
10372W        W26266   6.434  14.288   3.246  0.4241 -0.0959 -0.1261
10373W        W26267  19.079   9.825  11.091 -0.1698 -0.1912  0.3288
10374W        W26268   5.728   5.899  11.398  0.0399 -0.1055 -0.0609
10375W        W26269   0.253   6.937   5.412 -0.0499  0.1934 -0.2019
10376W        W26270   1.927   3.984   4.710 -0.0993  0.0387 -0.2467
10377W        W26271   1.025  18.533  10.722  0.0134  0.0774  0.1928
10378W        W26272   7.864   3.723  11.048 -0.2728 -0.0801 -0.0619
10379W        W26273   3.678   6.798  12.872 -0.2049  0.0579  0.1801
10380W        W26274  11.281   5.939  14.043  0.1070 -0.1712 -0.0306
10381W        W26275   1.206   3.911  14.861 -0.1616 -0.2253 -0.3532
10382W        W26276  14.303  14.716   2.550  0.1270  0.0486  0.0464
10383W        W26277   5.617   4.165   3.666  0.1131  0.1693 -0.1766
10384W        W26278   5.084   7.024   3.526 -0.1771 -0.2371  0.3081
10385W        W26279   9.294  16.892  14.591  0.2266 -0.3196  0.1259
10386W        W26280  10.749   1.612  11.679 -0.0343  0.0401 -0.1040
10387W        W26281   7.645  18.486   4.189 -0.2249 -0.3933  0.0346
10388W        W26282  13.819   8.532   1.587 -0.1428 -0.2057 -0.0945
10389W        W26283  12.402  18.287  10.883 -0.0386  0.3899 -0.0619
10390W        W26284  12.413   7.305   3.372  0.1325 -0.1208  0.1685
10391W        W26285  15.739  10.083   3.193  0.3149 -0.1188  0.0223
10392W        W26286  16.662  11.906   4.071  0.0737  0.0672 -0.2982
10393W        W26287   9.168  19.095   1.315  0.0875  0.0331 -0.2071
10394W        W26288   4.456  17.615  12.141  0.2521  0.3433 -0.0729
10395W        W26289   1.711  19.055   4.319 -0.0374  0.2016 -0.0720
10396W        W26290  11.536   5.046   4.414  0.0615  0.5448 -0.1019
10397W        W26291  14.228  15.901  13.137 -0.2114 -0.2560  0.1508
10398W        W26292   9.553  18.487   0.583 -0.3191 -0.2403 -0.3412
10399W        W26293   7.910  18.173  11.921 -0.0611  0.0288 -0.1812
10400W        W26294  14.417   3.258  13.403 -0.0093  0.1445 -0.2768
10401W        W26295   7.112  12.348   4.923 -0.2215 -0.1262 -0.1935
10402W        W26296  11.921  18.908   4.502 -0.1838  0.0209 -0.0684
10403W        W26297   6.618  16.496  11.699  0.1302 -0.2410  0.2526
10404W        W26298  16.131  12.687   2.286  0.3057  0.1650  0.0386
10405W        W26299   0.115  10.899   1.577 -0.0827 -0.0039 -0.0675
10406W        W26300  12.481  18.848  13.100 -0.0094 -0.1798  0.2593
10407W        W26301   5.653   6.126   1.336 -0.2239  0.3588  0.2922
10408W        W26302  18.637   2.285   1.810 -0.0335 -0.1375  0.0974
10409W        W26303  15.472  12.346   0.794  0.1772  0.1621  0.1042
10410W        W26304  10.301  17.851   0.546  0.0011  0.2499  0.1930
10411W        W26305  16.862   8.608   1.003  0.0567 -0.0643  0.0296
10412W        W26306  16.102   5.403   2.776  0.0741 -0.1740 -0.2057
10413W        W26307  12.972   9.073   1.720  0.0429 -0.0079 -0.0949
10414W        W26308   7.496  18.952   1.110  0.1696 -0.0619 -0.5373
10415W        W26309   8.409  18.173  11.245  0.3080 -0.1182  0.3174
10416W        W26310   4.003   4.851  11.588  0.0386 -0.1686 -0.0344
10417W        W26311  19.159   9.298  13.806 -0.1836  0.4340 -0.0058
10418W        W26312  12.673   0.021   0.134  0.0053  0.1536  0.3467
10419W        W26313   6.389  10.420  12.276  0.2764 -0.0669  0.1771
10420W        W26314   5.810  11.101  13.116 -0.0091  0.0842 -0.0691
10421W        W26315   6.166  12.932  10.412 -0.0323 -0.1232 -0.1362
10422W        W26316  14.699   2.354  12.632 -0.1194  0.0386  0.3701
10423W        W26317   0.348   0.012   2.723  0.1523  0.1998  0.2064
10424W        W26318  10.875  13.270   2.280 -0.2189  0.1862 -0.1838
10425W        W26319  14.293   1.307  12.517 -0.1148  0.2030  0.0241
10426W        W26320  14.607  16.126   2.506  0.1846 -0.2818  0.0315
10427W        W26321  16.966  12.348   5.378  0.0642 -0.0412 -0.1470
10428W        W26322  12.164  14.673  10.379 -0.4321 -0.0399  0.1214
10429W        W26323  18.787  13.303   3.136 -0.0380 -0.1872  0.0754
10430W        W26324  14.232  14.879  13.841 -0.3710 -0.2280 -0.1281
10431W        W26325  18.396   4.798  14.551  0.1637  0.2246  0.2010
10432W        W26326  14.232   7.203  10.003 -0.0904  0.3014 -0.1007
10433W        W26327  18.606  12.731  12.572 -0.1369 -0.1239 -0.0431
10434W        W26328   1.273  14.113   4.173  0.0795  0.1024  0.3841
10435W        W26329  13.492  15.952  10.978 -0.1098  0.1638  0.1636
10436W        W26330   8.808  12.805  13.773 -0.0837 -0.2580 -0.1938
10437W        W26331  16.763  16.058   4.761 -0.1764 -0.2312 -0.1487
10438W        W26332  12.564  16.828   2.802  0.0818 -0.0252  0.0366
10439W        W26333  14.672  19.180   3.661  0.0623 -0.0264  0.1225
10440W        W26334  13.966   0.996  10.029 -0.0307 -0.0244  0.0549
10441W        W26335   1.511   7.653   4.260  0.1488  0.0879  0.0220
10442W        W26336   1.938   2.340  12.102 -0.1440  0.2715 -0.1019
10443W        W26337   1.186   9.145  14.407  0.1126 -0.0925 -0.1598
10444W        W26338  14.493  11.505  13.536 -0.0996 -0.1383  0.2199
10445W        W26339   3.830  15.415  12.572 -0.0990  0.0605  0.0596
10446W        W26340   4.505  14.641   2.725  0.1200  0.1466  0.3854
10447W        W26341  11.777   5.238   1.928  0.1523 -0.1256  0.3119
10448W        W26342  13.394   6.016  10.876 -0.1809 -0.1425  0.2850
10449W        W26343  10.706   3.981   3.278  0.0755  0.0711  0.1421
10450W        W26344  17.735   1.305  11.876 -0.2368 -0.2230 -0.2627
10451W        W26345  14.209   5.420  14.253 -0.2041  0.1192  0.0056
10452W        W26346   9.315   5.376   1.039  0.2234 -0.1661 -0.1205
10453W        W26347  15.036  16.015  11.974 -0.1619 -0.4265 -0.0123
10454W        W26348  17.897   9.021  11.998  0.0640 -0.0118 -0.1640
10455W        W26349  17.192   1.585   3.993  0.2360 -0.0258  0.0359
10456W        W26350   8.486   3.737  11.811 -0.0475  0.3134  0.3373
10457W        W26351  10.580   5.744  12.828 -0.0028 -0.0454  0.0565
10458W        W26352  12.237  13.786  13.499 -0.1674  0.0039  0.0089
10459W        W26353   0.914   0.886   5.098  0.1773 -0.2843  0.2286
10460W        W26354  12.362   0.362  11.331 -0.1648  0.1536 -0.0005
10461W        W26355   9.380  12.231  13.642  0.0249 -0.2262 -0.1723
10462W        W26356   4.189  17.356   2.545 -0.4016  0.3896  0.2687
10463W        W26357   8.637  18.532  14.319  0.2018  0.0261  0.0918
10464W        W26358   0.828  19.059  10.685  0.3106  0.3028  0.2410
10465W        W26359  15.167  10.646  10.657 -0.0247  0.2951 -0.1372
10466W        W26360  18.905   9.195   1.227 -0.2390 -0.3966 -0.1774
10467W        W26361  11.070   1.840  10.557 -0.1811  0.1433 -0.2727
10468W        W26362   5.756   5.727  12.457  0.1703  0.2533 -0.2489
10469W        W26363   0.310   3.135  11.384 -0.4268 -0.1288  0.4398
10470W        W26364   9.080  16.772  11.892  0.2045  0.1850 -0.0633
10471W        W26365   8.902  11.687   0.034  0.0245 -0.2861  0.0507
10472W        W26366  15.624   2.948   3.853 -0.0659  0.0176 -0.0016
10473W        W26367   2.641  15.959   2.255 -0.3902  0.0849 -0.0143
10474W        W26368  18.570   2.954  12.757 -0.3832 -0.1166  0.3065
10475W        W26369   1.603   2.849   2.345  0.0129  0.2811  0.3551
10476W        W26370  10.535   7.180  12.664 -0.1317 -0.0487  0.5299
10477W        W26371  17.943   4.592  10.370  0.0362 -0.1079 -0.1349
10478W        W26372  15.590  18.102  10.895 -0.0710 -0.1236 -0.4448
10479W        W26373  11.569   0.334  12.862 -0.0844  0.1160 -0.0134
10480W        W26374  13.148   6.110   3.017  0.0921 -0.0976  0.2582
10481W        W26375  18.436   4.460   0.785  0.0561  0.1519 -0.1483
10482W        W26376  19.218  16.818  10.932  0.0657 -0.2275 -0.0005
10483W        W26377  11.416   5.890  12.113  0.2090  0.2006  0.1938
10484W        W26378  12.207   2.118  10.383 -0.0965 -0.0007  0.0684
10485W        W26379  12.049   5.193   2.958  0.0471  0.0991 -0.4993
10486W        W26380   2.655  12.122   1.091 -0.0750 -0.0790 -0.0950
10487W        W26381  14.925  17.223   4.930 -0.1855  0.2119  0.0017
10488W        W26382   1.044  14.607   5.423 -0.2699 -0.1105 -0.2278
10489W        W26383  13.515   4.401  13.449 -0.3656  0.0440  0.0246
10490W        W26384   7.588  12.330  13.799  0.1513  0.2580 -0.0515
10491W        W26385   6.117   3.506   5.467 -0.0250  0.2599 -0.0875
10492W        W26386   4.709   5.808   5.331  0.1745 -0.2131 -0.1660
10493W        W26387   9.109  17.224   3.716 -0.2727  0.3957  0.0893
10494W        W26388  16.117  12.530   3.289 -0.0566 -0.1060  0.0537
10495W        W26389  17.056  15.589  11.192 -0.0931 -0.0234 -0.1833
10496W        W26390  14.869  18.600  14.317 -0.4976 -0.0644 -0.0499
10497W        W26391  14.186   0.160   2.594 -0.1894  0.3306  0.0755
10498W        W26392   5.846   5.639   6.205 -0.1189 -0.2556  0.0940
10499W        W26393   4.438   0.562  13.830  0.3533  0.1315  0.3688
10500W        W26394  14.932   5.943   2.350 -0.0971  0.1874  0.3493
10501W        W26395   3.118   3.611   0.126  0.2244 -0.1141  0.2917
10502W        W26396   5.396   3.008   6.070 -0.0406 -0.0724  0.1734
10503W        W26397  12.155  15.960  12.811 -0.1590 -0.3061 -0.1513
10504W        W26398  13.075  11.335   4.210 -0.0191 -0.3600 -0.0276
10505W        W26399  10.414  11.723   2.829  0.0273 -0.2401 -0.2636
10506W        W26400  16.479   2.227  14.224 -0.1474 -0.1573  0.0509
10507W        W26401  17.703   8.209   4.790  0.2321  0.0212 -0.0028
10508W        W26402  10.209   3.015  12.206 -0.1085 -0.2439  0.2943
10509W        W26403  18.323  15.806   1.766 -0.1115 -0.1178 -0.0573
10510W        W26404  13.294  13.409  10.373 -0.0263 -0.0563 -0.0367
10511W        W26405   3.302  18.789   2.693  0.0250  0.0868 -0.2410
10512W        W26406   0.373   7.120  13.248 -0.3427  0.2414 -0.3428
10513W        W26407  13.125   1.949  10.690  0.1675  0.1817 -0.3131
10514W        W26408   8.392   3.319   1.331 -0.1834  0.2446  0.2423
10515W        W26409   8.795  12.647   3.055  0.1908 -0.1491  0.3261
10516W        W26410   7.900  12.848   3.967 -0.2071  0.3198  0.1445
10517W        W26411   0.606   7.724  13.644  0.1306  0.2668  0.1274
10518W        W26412   0.056   9.120  13.353  0.2886  0.0293 -0.0989
10519W        W26413   4.797  10.877   2.848  0.4922 -0.0329  0.1344
10520W        W26414   9.605  17.790   1.172 -0.0641 -0.1470  0.3680
10521W        W26415   7.414  14.763  10.049  0.2832 -0.1358  0.0399
10522W        W26416   8.636   3.118  15.062 -0.1117  0.2081  0.0551
10523W        W26417  14.702  10.986   0.359  0.0039  0.1923 -0.1729
10524W        W26418  11.172   6.885  12.833 -0.0478  0.3891  0.1911
10525W        W26419  16.476   3.498  11.549  0.1343 -0.1838  0.0239
10526W        W26420  10.945   6.381   4.003  0.0678  0.1726  0.3297
10527W        W26421  16.674  11.075   2.896  0.1782 -0.0713 -0.0363
10528W        W26422   9.916  15.340  14.498  0.0298 -0.0850  0.0794
10529W        W26423  13.024  11.235  11.017  0.1412  0.1140  0.0909
10530W        W26424   0.679  12.279   2.339  0.1244 -0.1073 -0.0676
10531W        W26425  11.404   1.331  11.253  0.1778 -0.1212 -0.2228
10532W        W26426   1.717   3.378  13.540  0.0461 -0.2076  0.2257
10533W        W26427  10.203   5.433   5.983  0.0022  0.0592 -0.0901
10534W        W26428  13.830   6.097  11.000 -0.3952  0.2478  0.3074
10535W        W26429   0.877   5.575  13.056  0.0970 -0.1540 -0.0539
10536W        W26430  16.832  15.788  10.713  0.1502  0.1916 -0.1998
10537W        W26431  12.020   4.471  12.442 -0.0705 -0.1937 -0.0672
10538W        W26432  13.885  12.370   2.243 -0.0533  0.3917  0.2140
10539W        W26433   6.755   6.255  13.188 -0.2384 -0.4453  0.0289
10540W        W26434   0.986  10.352   0.258 -0.2105 -0.1336  0.4627
10541W        W26435  14.153   8.012   2.784  0.0597 -0.2610  0.1897
10542W        W26436  18.479   8.487   1.944 -0.2699 -0.3536  0.0366
10543W        W26437  17.635  17.749  12.227 -0.1334  0.3618  0.0828
10544W        W26438  19.111   1.034   5.228  0.0199 -0.3010  0.1537
10545W        W26439  10.890   6.635  10.382 -0.1727  0.2291  0.2199
10546W        W26440   9.122   4.340   9.526 -0.0529 -0.3502 -0.2798
10547W        W26441   3.008   9.652   1.992  0.0401  0.1170 -0.1504
10548W        W26442   6.168   2.180   3.109  0.0082 -0.5714 -0.2738
10549W        W26443   7.448  12.063  11.227 -0.2472 -0.0183  0.0957
10550W        W26444  17.378  14.666   4.795  0.1444 -0.1445 -0.1059
10551W        W26445  11.806   6.110  13.374  0.4482 -0.1904 -0.3569
10552W        W26446  13.900  13.254  14.858  0.0171  0.2401 -0.1623
10553W        W26447   3.331  18.473  13.182 -0.4531 -0.1938  0.2622
10554W        W26448   9.940   5.585  13.742 -0.1448 -0.2061 -0.1677
10555W        W26449  15.895  16.810  14.378  0.0874 -0.0058 -0.2218
10556W        W26450   6.755  16.127   4.487 -0.2690  0.2261  0.0360
10557W        W26451  16.591  15.608  12.743  0.1884  0.2149 -0.0151
10558W        W26452   2.360   5.511   3.318  0.1529  0.0450  0.1316
10559W        W26453   2.731   4.442  12.905  0.2419  0.0582 -0.1856
10560W        W26454   4.513   1.600   0.604 -0.1742  0.1490 -0.1848
10561W        W26455   0.217   3.210  12.220 -0.0840 -0.0968  0.6344
10562W        W26456  15.308   3.950  10.132  0.0083 -0.0603  0.1638
10563W        W26457   6.700  14.271   0.229 -0.1609  0.2460  0.1984
10564W        W26458   8.849   9.949   4.400 -0.0036 -0.0311  0.1911
10565W        W26459  14.072   0.526  12.803  0.0872 -0.0336  0.3382
10566W        W26460  14.599  10.832  10.538  0.0907 -0.2470 -0.2505
10567W        W26461   2.021  12.175   3.597  0.1266  0.1812 -0.0703
10568W        W26462  14.724   2.306  12.102 -0.0417  0.0044 -0.1227
10569W        W26463   8.274  17.594   3.102  0.1669 -0.0789  0.0194
10570W        W26464   9.002  12.345  13.990 -0.3564 -0.1664  0.0690
10571W        W26465  15.808  16.637   3.165  0.0114  0.0668 -0.3657
10572W        W26466   6.833  17.248   3.253  0.1346  0.4133 -0.0915
10573W        W26467  17.828  18.486  10.531 -0.0582  0.1343 -0.3666
10574W        W26468   6.669   3.469  12.135  0.0668  0.2162  0.0880
10575W        W26469  11.171   5.036   3.956  0.1026  0.0226 -0.3211
10576W        W26470   1.024   5.980  13.823  0.0950  0.0325  0.0876
10577W        W26471   6.428  18.902   0.230 -0.0026 -0.1382  0.0670
10578W        W26472  15.003   7.642   3.562 -0.1513 -0.0872 -0.2707
10579W        W26473  12.469   3.849  12.448 -0.4420  0.1945  0.1019
10580W        W26474   6.705  17.920   5.473  0.0157  0.3316  0.1668
10581W        W26475  13.998  15.247  11.209  0.1456  0.1457  0.2389
10582W        W26476   0.124   6.375   3.620 -0.0799 -0.0845 -0.0497
10583W        W26477  10.282   9.065  14.471 -0.0390 -0.0861  0.0202
10584W        W26478   8.686  12.317   4.086 -0.1144 -0.1282  0.4134
10585W        W26479   9.373  11.960   4.388 -0.3297 -0.0832  0.1129
10586W        W26480   8.907   0.392   3.291  0.2050 -0.1804  0.1703
10587W        W26481   8.164   8.075   0.265 -0.0108 -0.1107  0.2107
10588W        W26482   2.880   4.423  13.912 -0.2430  0.2942 -0.0150
10589W        W26483  10.968  11.202   5.004  0.0004 -0.1303  0.1095
10590W        W26484  12.757   4.905  14.679 -0.1189 -0.0548  0.0295
10591W        W26485  13.339   8.866   5.136  0.0748 -0.2407 -0.2113
10592W        W26486   7.208   7.047  12.704  0.0420  0.0312 -0.0803
10593W        W26487  16.641   6.232   2.033 -0.1026 -0.0314 -0.1552
10594W        W26488   4.865   8.892   3.823  0.3065 -0.1534  0.0875
10595W        W26489   3.752  18.264   2.930  0.2120  0.2235  0.1215
10596W        W26490   6.268   5.955  13.718 -0.1635  0.2217 -0.4252
10597W        W26491   4.654  10.517   5.392  0.0300  0.1468 -0.0957
10598W        W26492  18.473   7.603   3.562 -0.0358 -0.4137  0.0141
10599W        W26493   6.558   1.329  11.061  0.1808 -0.2722  0.2788
10600W        W26494  16.899  13.871  11.995 -0.0568 -0.1263 -0.0732
10601W        W26495   3.741  16.702   2.085 -0.1327 -0.0252 -0.0532
10602W        W26496  16.913  13.487   0.070  0.2846 -0.2072  0.0611
10603W        W26497  11.768   2.819  12.879 -0.1397 -0.2653 -0.0323
10604W        W26498   5.703  10.659   3.769  0.0432 -0.0230 -0.0849
10605W        W26499   2.368  15.661   2.786  0.2364 -0.0395 -0.2259
10606W        W26500  10.007   4.758   4.118 -0.0359 -0.1096  0.1922
10607W        W26501  14.751   9.771   3.404  0.2127 -0.4562  0.1083
10608W        W26502   0.623  17.962   3.838  0.0202 -0.4426  0.0559
10609W        W26503  10.302  16.142  11.209 -0.0619 -0.0832  0.1043
10610W        W26504  17.421   6.212  13.854  0.0467 -0.2101  0.0919
10611W        W26505   6.331  12.103  10.784 -0.2554  0.1119  0.0259
10612W        W26506  11.695  17.553  14.822 -0.2507 -0.1166  0.0078
10613W        W26507   2.462   8.324   5.532 -0.2248 -0.1069  0.0275
10614W        W26508   2.014   6.872  11.139 -0.2576  0.0088 -0.0553
10615W        W26509   1.475   4.196   0.696  0.1493  0.1050  0.1392
10616W        W26510   8.715   7.420  10.595 -0.2085  0.2972 -0.0133
10617W        W26511   6.053   8.974  12.835  0.3817  0.1308 -0.4630
10618W        W26512  12.212  18.002   2.326 -0.2372  0.0262 -0.0658
10619W        W26513  10.866  10.723  14.062 -0.1561 -0.1218  0.0402
10620W        W26514   8.386   8.495   0.568 -0.3033 -0.1157  0.1792
10621W        W26515   7.464   8.581   5.290  0.2234  0.1935  0.1957
10622W        W26516  18.634   9.809   4.135  0.1749 -0.0087 -0.1870
10623W        W26517   2.524   9.567   0.359  0.2383  0.1811 -0.2355
10624W        W26518  16.940   9.976  12.184  0.2655  0.2815 -0.0901
10625W        W26519   8.294   9.583  12.093  0.1994 -0.1851  0.0814
10626W        W26520   2.380   3.607   5.211 -0.0533  0.0503  0.0690
10627W        W26521  16.756   5.502  14.696 -0.1323  0.0460 -0.0099
10628W        W26522   1.877   3.750  10.928 -0.3068 -0.1264 -0.2807
10629W        W26523   5.572   0.065   4.118  0.0270 -0.1660  0.1472
10630W        W26524  16.888  16.832  11.136 -0.3456 -0.1499  0.0355
10631W        W26525   6.871   2.589  11.967  0.2021 -0.0233 -0.1051
10632W        W26526   0.271  18.924  11.328  0.1216 -0.1293  0.1848
10633W        W26527   0.572  17.578  13.950 -0.2156 -0.2131  0.1936
10634W        W26528   8.742   6.496   0.180 -0.2131  0.1153  0.1071
10635W        W26529   9.231   0.194   0.620 -0.0161 -0.0748 -0.1946
10636W        W26530  12.665  14.725  11.200 -0.0386 -0.1393 -0.3118
10637W        W26531   2.241  15.243   0.302  0.0730 -0.1566  0.5976
10638W        W26532  12.112   0.929   5.099 -0.2868  0.0779  0.0586
10639W        W26533   2.283   0.147  14.213 -0.1894  0.2094 -0.0739
10640W        W26534  11.054   7.410  13.314 -0.1076 -0.1074  0.0085
10641W        W26535  17.509   8.322  13.082  0.1969  0.0974  0.3212
10642W        W26536  13.644   3.525   5.651 -0.1020 -0.0090 -0.1982
10643W        W26537   4.264  12.150  12.028  0.0128  0.1208 -0.2969
10644W        W26538   2.465  13.577  10.328 -0.1224 -0.1736  0.0819
10645W        W26539  15.645   0.190  10.255 -0.1669 -0.0594  0.1053
10646W        W26540   8.895   2.440  12.514 -0.1853 -0.0282  0.1491
10647W        W26541  15.834   2.128   4.116  0.0118  0.3655 -0.1255
10648W        W26542   4.368   3.790   4.567  0.0663 -0.1187  0.1011
10649W        W26543   2.117  13.011   1.794 -0.4666  0.2098 -0.1112
10650W        W26544  12.709   0.132   1.071  0.3885 -0.3749 -0.1246
10651W        W26545   9.964   6.771   0.542  0.1692  0.2066 -0.1736
10652W        W26546  13.628  15.914  11.467 -0.2108  0.1880 -0.3336
10653W        W26547  10.304   5.151   1.249  0.1056  0.0723 -0.2488
10654W        W26548   0.502  14.469   3.481 -0.1076  0.2685 -0.1565
10655W        W26549  13.700  18.454   4.792  0.3013  0.2107  0.0838
10656W        W26550  18.293   4.370   3.543  0.2223 -0.1935 -0.1169
10657W        W26551   5.677   6.909   2.452  0.0721  0.0224  0.1186
10658W        W26552  12.887  15.930  10.916 -0.0442  0.0299  0.4791
10659W        W26553   3.300   4.352  14.538  0.4860 -0.1962  0.1138
10660W        W26554  13.946   0.353   2.981  0.4868  0.0247  0.1728
10661W        W26555  13.597  14.866   3.775 -0.0544  0.0395 -0.1638
10662W        W26556   0.070  14.268   2.411 -0.0288  0.1483 -0.1376
10663W        W26557   9.267   0.992  11.490  0.4379  0.2963  0.2716
10664W        W26558   5.349   1.842   2.607 -0.3968 -0.0345 -0.4485
10665W        W26559   4.224   5.548   2.810 -0.2539  0.0990 -0.1277
10666W        W26560  10.205  12.024   2.408 -0.1861 -0.5080 -0.2875
10667W        W26561   1.235   5.425   4.861 -0.1068 -0.3200  0.2229
10668W        W26562   1.274   6.891   3.062 -0.2171  0.1758 -0.0227
10669W        W26563  15.490  12.386   4.626  0.0843 -0.0944 -0.2141
10670W        W26564   9.569   6.145  12.935 -0.2723 -0.2349  0.0854
10671W        W26565   3.152  14.800   5.687 -0.0809 -0.2583 -0.0930
10672W        W26566  17.659   2.030  12.836 -0.2260  0.0556  0.2138
10673W        W26567   4.087  10.319   3.199  0.1824 -0.0613 -0.0699
10674W        W26568  19.106  14.535   3.042  0.2433 -0.2959  0.2380
10675W        W26569   0.067  16.449   1.216 -0.0192  0.0202  0.0128
10676W        W26570  14.746   4.929  11.284 -0.2631  0.1443 -0.1916
10677W        W26571   7.519  11.762   2.133 -0.0163  0.0933 -0.6781
10678W        W26572   3.357  15.317  14.680  0.0915 -0.2908  0.0319
10679W        W26573  18.332  18.412  11.349 -0.0157 -0.1668 -0.2137
10680W        W26574   9.373  14.834   0.657  0.1223  0.0961 -0.0071
10681W        W26575  16.375  16.021  13.093  0.1864 -0.0499  0.0616
10682W        W26576   7.438   5.041   2.173 -0.2262 -0.2761 -0.5465
10683W        W26577   2.348  10.271  13.509  0.1040 -0.2435 -0.1430
10684W        W26578  10.282   4.253  11.464  0.4295  0.0892 -0.1519
10685W        W26579  10.143   1.524   2.728 -0.2866  0.0669 -0.2226
10686W        W26580  11.414   5.039   4.927  0.0447  0.1403 -0.1122
10687W        W26581  15.502  13.223  13.720 -0.1045  0.4015  0.1929
10688W        W26582  10.015   0.573  14.611  0.1376  0.0267 -0.4806
10689W        W26583  16.608   9.508   3.941 -0.1857 -0.2157 -0.3688
10690W        W26584   4.803   5.242  12.490  0.1214 -0.1364 -0.0170
10691W        W26585  14.708  16.211   1.109  0.0218 -0.1286 -0.3047
10692W        W26586  13.734   9.153   3.438 -0.2934  0.0593 -0.1384
10693W        W26587   6.358  13.117   1.603  0.1019 -0.0220 -0.2700
10694W        W26588  11.892   9.618   3.090  0.2696 -0.2277  0.1515
10695W        W26589  16.839   8.202   4.409  0.1355 -0.1031 -0.2434
10696W        W26590   1.701   3.876  15.041  0.0976 -0.1129 -0.3967
10697W        W26591  16.205  17.125   2.445 -0.0346 -0.0566 -0.1454
10698W        W26592  13.132   1.307  12.693 -0.1891  0.0795 -0.1989
10699W        W26593   4.873  15.610   2.927 -0.1056  0.3105  0.1855
10700W        W26594   8.413   9.003   1.325  0.3675  0.2583 -0.0254
10701W        W26595   4.913  11.183  14.707  0.0857  0.1777 -0.0672
10702W        W26596   6.869  18.812  11.475  0.0769  0.3677  0.2457
10703W        W26597  11.351   0.253   0.590 -0.1388  0.0739  0.1367
10704W        W26598  12.647  13.891  10.786  0.1348  0.0784 -0.2789
10705W        W26599   6.135   3.740   4.453  0.1583  0.1892 -0.2778
10706W        W26600   7.774   5.896   1.699 -0.0174  0.0270 -0.4963
10707W        W26601  11.163  17.736   0.002 -0.2236  0.2714 -0.0790
10708W        W26602  16.585   1.276  11.700  0.1383  0.0070  0.1828
10709W        W26603  13.292   5.573  12.559 -0.0950 -0.0466  0.0484
10710W        W26604  10.367   8.755  12.835 -0.2286 -0.0032 -0.2546
10711W        W26605   4.173   2.590   2.500 -0.1426  0.2698  0.0459
10712W        W26606   4.163  15.006   1.978 -0.4324  0.1825  0.0054
10713W        W26607   5.567  10.371  12.533 -0.0074  0.1830 -0.1440
10714W        W26608   4.555  12.257  14.456 -0.2412  0.2790  0.0304
10715W        W26609   4.046   5.015   0.770 -0.1068  0.1764  0.1632
10716W        W26610   9.999  11.961  10.540  0.0655 -0.1674  0.0959
10717W        W26611  12.643  18.580  11.831 -0.0260 -0.2050 -0.0924
10718W        W26612   7.029   0.340   4.171  0.1513  0.3617  0.1659
10719W        W26613   1.367   4.409   2.161  0.1167 -0.0841 -0.0326
10720W        W26614  17.431   9.218   1.038  0.1513  0.6248 -0.0221
10721W        W26615   6.412  11.070  14.552  0.0499  0.2185 -0.0648
10722W        W26616  16.787   7.865   0.560 -0.0461 -0.3205  0.2402
10723W        W26617  15.890   2.214   0.882 -0.3970  0.0227 -0.1459
10724W        W26618   0.546  17.656  10.994 -0.2167 -0.0485  0.2106
10725W        W26619  14.922  15.712  10.284 -0.2230 -0.0475 -0.0875
10726W        W26620  15.592  17.194  14.533 -0.2155  0.1450 -0.0195
10727W        W26621   2.653   5.416   2.865  0.1557  0.2437 -0.0872
10728W        W26622   8.752   6.441  11.936 -0.2296 -0.1792 -0.1054
10729W        W26623   8.687   1.270  14.032 -0.1193  0.1107 -0.1099
10730W        W26624  18.737  12.093  10.613  0.3300 -0.2953 -0.0176
10731W        W26625   2.888  17.124   5.506  0.1832 -0.2641 -0.1129
10732W        W26626  13.651   4.011  11.378  0.0619 -0.1663  0.1231
10733W        W26627   7.221   5.781  14.603 -0.1610  0.0090  0.2783
10734W        W26628  10.461  16.147  12.239 -0.2471  0.1544 -0.0484
10735W        W26629  17.168  16.945  14.606  0.3691  0.0413 -0.0488
10736W        W26630  18.004   8.543  12.880  0.3811 -0.1363  0.1459
10737W        W26631  14.882   0.258   2.390 -0.1546 -0.3111 -0.3653
10738W        W26632  17.145  12.179  14.488 -0.0003 -0.0134  0.1511
10739W        W26633   4.407   1.477   1.078  0.0379 -0.1718  0.0510
10740W        W26634  10.729  10.531  11.729 -0.3573  0.2773  0.1997
10741W        W26635  10.729  18.881  15.007 -0.1852  0.4487  0.1059
10742W        W26636  11.866   2.585   2.035  0.0231 -0.2340  0.0839
10743W        W26637   2.603   5.621   0.986 -0.1278  0.1394 -0.1951
10744W        W26638  14.940   6.775   2.243  0.0679 -0.0181  0.2320
10745W        W26639  14.435   0.190  11.866  0.0546  0.0495  0.2024
10746W        W26640   2.360   8.290  11.438  0.0580 -0.4973 -0.2797
10747W        W26641   0.812  12.905   4.509 -0.0843 -0.1708 -0.1049
10748W        W26642  17.499  16.775   4.929 -0.0097  0.0906 -0.0395
10749W        W26643   0.699   2.721   0.372 -0.0240 -0.0966  0.3436
10750W        W26644   9.877   1.741  14.257  0.0562  0.2866 -0.3958
10751W        W26645   5.205   7.104  12.233 -0.2498  0.3065 -0.0815
10752W        W26646   1.149   2.822   4.766 -0.1844 -0.0654  0.0191
10753W        W26647  14.891  16.376   9.369 -0.1461 -0.0788 -0.0317
10754W        W26648   3.838   3.491  13.099 -0.0889 -0.1593 -0.0812
10755W        W26649   8.139   4.358  14.935  0.2207  0.2511  0.0581
10756W        W26650  18.356  17.274   2.875  0.0492  0.2652 -0.0305
10757W        W26651   3.381   5.716   1.710  0.1199 -0.2189  0.0461
10758W        W26652   6.595  10.654  14.799 -0.0849  0.2020  0.3581
10759W        W26653   2.194   3.923   3.567  0.2686 -0.0364  0.1059
10760W        W26654  13.957   3.109   3.552 -0.1038  0.0307  0.2791
10761W        W26655  11.183  18.708   3.697  0.2985 -0.0348 -0.4577
10762W        W26656  15.252   8.015   3.831  0.3277  0.0272 -0.1741
10763W        W26657   1.658  10.421  13.817  0.2893  0.0791  0.2639
10764W        W26658   0.094   2.067   5.220  0.0344 -0.0484  0.0867
10765W        W26659   7.748  10.723   4.993  0.5335  0.0585 -0.0516
10766W        W26660  15.196  14.511  13.514  0.4072 -0.0880 -0.2092
10767W        W26661   8.711  14.577   2.069  0.3860  0.0090  0.0068
10768W        W26662  11.872   0.024  12.416  0.1613  0.1507 -0.2041
10769W        W26663  10.037   2.794   2.485  0.0535  0.2627  0.2020
10770W        W26664  11.280  16.395  13.913 -0.1765 -0.1556  0.1425
10771W        W26665  15.384  12.820   0.793  0.1159 -0.0705 -0.1308
10772W        W26666   1.559   9.319   5.460  0.1825 -0.0727  0.2818
10773W        W26667  18.359   9.311  12.065 -0.2835  0.2628  0.2308
10774W        W26668  15.583  13.480   0.178  0.5202  0.0489 -0.1696
10775W        W26669   3.842   8.479   1.974  0.2276 -0.2628  0.1427
10776W        W26670   1.429  15.631   9.875 -0.1399  0.1469 -0.0347
10777W        W26671  17.566  12.924  14.778  0.4490  0.2338 -0.2387
10778W        W26672   1.954   3.779   1.699 -0.0044  0.2564 -0.0436
10779W        W26673   9.096   8.764   4.106  0.1043  0.3699 -0.0220
10780W        W26674  16.962   8.285  13.170  0.0609 -0.0897  0.2522
10781W        W26675   4.307  18.617  12.745  0.1852 -0.0109  0.1610
10782W        W26676  18.951  12.981   3.792 -0.0777  0.2379 -0.1510
10783W        W26677   2.752  18.151  11.256 -0.1003 -0.0706  0.2166
10784W        W26678  13.655  14.743   0.033 -0.0157 -0.0287 -0.2161
10785W        W26679  13.537  18.254  11.790 -0.1025  0.1272 -0.1077
10786W        W26680  15.089  14.699   0.321 -0.1565  0.0847  0.2938
10787W        W26681   4.477   9.242  11.260 -0.0879 -0.1364 -0.0172
10788W        W26682   5.394  13.306   0.675 -0.0575  0.3643 -0.0563
10789W        W26683   1.078  16.193  13.516  0.0231 -0.1085  0.1435
10790W        W26684   8.797  12.023  14.286 -0.1576  0.0223  0.3309
10791W        W26685  17.612  13.573   1.274  0.0386 -0.2118  0.4696
10792W        W26686   0.067  14.470  14.096  0.0729  0.2139  0.0207
10793W        W26687   5.350   7.488   3.370  0.2606 -0.0774 -0.2219
10794W        W26688   9.915  10.831   0.232  0.2344  0.0545 -0.6196
10795W        W26689   9.042  15.836  11.775  0.1149 -0.2052  0.1386
10796W        W26690   8.923  17.462   9.625 -0.2406  0.0704  0.0991
10797W        W26691   0.009   9.975   1.346 -0.3270 -0.2120  0.0525
10798W        W26692  15.447  18.578  11.961 -0.0909  0.1362  0.1634
10799W        W26693   8.460   1.785  13.800  0.2251 -0.1701 -0.0123
10800W        W26694  18.455  18.578  13.794 -0.0876 -0.3075 -0.3163
10801W        W26695   8.789   1.591  11.855  0.1131  0.2357 -0.2771
10802W        W26696   8.009   3.920   3.432 -0.2144  0.1025  0.1887
10803W        W26697   9.161  16.840  10.859  0.1287  0.2426 -0.2079
10804W        W26698  16.593   3.398   1.473  0.1955 -0.0887  0.0106
10805W        W26699  16.711  19.047  14.161 -0.2544  0.1909  0.3537
10806W        W26700  13.266  14.575   2.981  0.0472  0.0047 -0.1893
10807W        W26701  11.802  15.152   4.947  0.1924 -0.0805  0.0063
10808W        W26702  18.500   4.684   5.917 -0.3988  0.1775 -0.0516
10809W        W26703   0.599   0.488   4.950  0.0879 -0.1160  0.2801
10810W        W26704  13.302   8.688  14.144  0.0986 -0.2727  0.1366
10811W        W26705  15.267  10.113  14.339  0.1521  0.5503  0.2974
10812W        W26706   1.340   9.998   1.026  0.0317 -0.0990 -0.2586
10813W        W26707  15.718  11.104   1.201 -0.0131 -0.1051  0.3186
10814W        W26708   0.529   8.668   2.816 -0.1406  0.1236  0.1652
10815W        W26709   5.433  12.105   1.009  0.0716  0.2298  0.3412
10816W        W26710   6.690  18.703   1.296 -0.0666  0.1843  0.2381
10817W        W26711   8.629   3.167   5.051 -0.1047 -0.0328  0.3313
10818W        W26712   1.149  14.939   1.984  0.2467 -0.1049  0.1400
10819W        W26713  19.148  12.610   4.560 -0.0675 -0.1205 -0.2126
10820W        W26714  11.044   6.418  14.552  0.0790  0.1791  0.1234
10821W        W26715  17.703  18.472   1.547  0.0887  0.0581 -0.2240
10822W        W26716  18.013  12.332  12.883 -0.2671 -0.2422 -0.0270
10823W        W26717  18.626   3.776  14.609 -0.1703  0.0022 -0.0641
10824W        W26718   2.107   8.880   0.830 -0.0910 -0.1256 -0.2864
10825W        W26719   5.594   1.137  14.764 -0.1994  0.2380 -0.0652
10826W        W26720   4.625   1.151  14.672  0.0188 -0.0709  0.0720
10827W        W26721   2.929   8.473   2.314  0.0814 -0.0780 -0.1312
10828W        W26722  12.501   8.656   4.711 -0.1253 -0.0523 -0.1124
10829W        W26723   3.721  17.270   3.435 -0.2385 -0.1976 -0.0287
10830W        W26724  11.670   4.515   5.459 -0.0968 -0.2604 -0.0450
10831W        W26725   4.051  10.351   0.635  0.0817  0.0978  0.0729
10832W        W26726  14.419  13.044   1.912 -0.0437  0.2692 -0.0063
10833W        W26727  13.945   5.775   4.909  0.1257 -0.0548  0.2762
10834W        W26728   1.029  10.576  13.302 -0.0211  0.1442  0.0674
10835W        W26729   7.916  10.820   3.695 -0.1965 -0.0053 -0.4464
10836W        W26730   4.461  11.300  11.309  0.3039 -0.0069  0.1084
10837W        W26731  15.498  11.644  15.093 -0.1263 -0.0192  0.2563
10838W        W26732   2.236   4.277  12.862  0.0528 -0.1307 -0.2550
10839W        W26733  14.047   2.957  12.932  0.2356  0.1669  0.2152
10840W        W26734  13.949  12.487   0.329  0.1495 -0.0461 -0.1481
10841W        W26735   1.825  18.321   3.146 -0.1361  0.2680  0.2537
10842W        W26736  17.600  15.269  13.086 -0.3558 -0.0741 -0.2173
10843W        W26737  15.077  16.763   9.633 -0.1083  0.1588  0.0836
10844W        W26738   3.238  17.827  14.566  0.2143 -0.3406  0.0741
10845W        W26739   2.815  18.791  11.945  0.2674  0.0445  0.2074
10846W        W26740   7.596   7.197  12.320  0.0467  0.3203  0.0018
10847W        W26741   3.757   0.817   9.653  0.1868 -0.0693  0.1763
10848W        W26742  14.613   6.590   1.010 -0.1194  0.1025  0.5726
10849W        W26743   2.707   0.388  13.448  0.0824 -0.1524  0.0268
10850W        W26744  13.163   2.553   0.024  0.2520 -0.0348  0.3977
10851W        W26745   8.130  13.032  13.368 -0.0235 -0.0358 -0.1986
10852W        W26746   7.325   4.183  12.476 -0.0175  0.1930  0.0264
10853W        W26747   5.487   1.597   1.042 -0.1773 -0.0083  0.2578
10854W        W26748   4.114   1.388  11.658 -0.0433 -0.4194 -0.1302
10855W        W26749  13.048  15.663  13.291  0.3008 -0.0141 -0.0054
10856W        W26750  15.958   1.376  12.905 -0.3364  0.4129  0.1003
10857W        W26751  15.017  17.828  12.086 -0.0244 -0.1310  0.2940
10858W        W26752   2.270   1.815   0.995  0.1757 -0.2940  0.0964
10859W        W26753  16.587  14.289   3.015  0.1550 -0.0302 -0.2555
10860W        W26754   4.560   6.346  14.086 -0.0708  0.1363 -0.1282
10861W        W26755  18.191  14.706  14.882  0.1878 -0.1305  0.2454
10862W        W26756   8.917  15.637   0.946 -0.3032  0.1798 -0.1571
10863W        W26757   0.024  13.639   9.276  0.2413  0.0001 -0.1280
10864W        W26758  13.749  11.660   5.353 -0.1411  0.0145  0.1517
10865W        W26759  16.523   8.301   0.720 -0.1451  0.1655 -0.3064
10866W        W26760   2.816  15.443  12.533  0.0466 -0.1273  0.1025
10867W        W26761   9.143  11.655  11.852  0.2193 -0.2618 -0.1851
10868W        W26762   4.737   6.987   9.753  0.2053 -0.0141  0.1204
10869W        W26763   7.374  19.139  13.351  0.0327  0.2166 -0.1919
10870W        W26764  18.478   3.421   1.083 -0.0991 -0.2422 -0.0651
10871W        W26765   0.318   9.934  14.457  0.0611  0.0107  0.1352
10872W        W26766   9.900   4.228   0.670 -0.2222  0.3846  0.4477
10873W        W26767  18.510   8.763   5.044 -0.1579  0.2042  0.2364
10874W        W26768  14.715   5.735  13.471  0.2367 -0.1573 -0.1950
10875W        W26769   2.058  17.420  11.583  0.1508  0.1727 -0.3200
10876W        W26770   6.933   1.784   0.566 -0.4995  0.0893 -0.2038
10877W        W26771   2.390  14.893  13.661 -0.0448  0.2441  0.1468
10878W        W26772  11.904  11.083  14.548  0.3738 -0.1155  0.1391
10879W        W26773   5.111   6.624   1.174  0.0242  0.2810  0.0572
10880W        W26774   6.390   4.490   3.115  0.2393 -0.1245 -0.0180
10881W        W26775   0.339  10.952   5.327 -0.1027  0.0982  0.1020
10882W        W26776   7.683   2.392   3.236 -0.0861  0.3651  0.1407
10883W        W26777  18.193  12.447  11.857  0.2164 -0.0859  0.1131
10884W        W26778   8.970  11.360   4.422 -0.2607 -0.1457  0.0856
10885W        W26779   6.602   7.690  11.608 -0.0572 -0.4002 -0.0169
10886W        W26780  10.659  14.706  14.015 -0.1800 -0.0222  0.0295
10887W        W26781   0.998  17.009   0.443  0.1854  0.0545  0.0873
10888W        W26782  10.762  15.994  10.879 -0.1548 -0.0002  0.0939
10889W        W26783  11.909   4.601   2.230  0.1103 -0.0915  0.2368
10890W        W26784   0.078   9.523   2.331  0.3193 -0.1405 -0.2906
10891W        W26785   3.620   7.735   4.455 -0.1383  0.0338  0.0251
10892W        W26786   7.968  16.682  11.049 -0.1400 -0.0934 -0.0297
10893W        W26787  11.456  15.535   4.860 -0.1177 -0.0346 -0.0931
10894W        W26788  17.328  16.718   1.220  0.1179  0.0961  0.2643
10895W        W26789   6.341   4.673   1.420 -0.4934 -0.1708 -0.2152
10896W        W26790  19.188   0.079  11.161  0.0238 -0.1856 -0.2303
10897W        W26791   5.749  18.067  14.201  0.3081  0.3238 -0.0502
10898W        W26792   8.733   2.155   4.536  0.2271  0.0327  0.1043
10899W        W26793  18.393   3.116   2.919  0.1270  0.0478 -0.0675
10900W        W26794   5.407   8.931   5.721  0.1625  0.0282 -0.1712
10901W        W26795  14.945   1.606   4.935  0.1369  0.1420  0.1352
10902W        W26796  18.383  11.546  11.777  0.1654 -0.0011  0.0598
10903W        W26797   7.995   9.057   3.171  0.0751  0.3235  0.1436
10904W        W26798  13.727   0.764   0.178 -0.0106 -0.2286 -0.0242
10905W        W26799  13.382   5.586   0.291  0.3714 -0.0848 -0.2260
10906W        W26800   2.337   9.711   3.637 -0.3016  0.0007 -0.2546
10907W        W26801   0.421  16.404  14.878  0.2446  0.1731 -0.0383
10908W        W26802   2.198   6.670   1.763  0.4519  0.3567  0.0278
10909W        W26803  10.631   2.016   5.108  0.2353 -0.0681  0.2011
10910W        W26804  17.378  13.607  13.500  0.0734 -0.2914  0.0814
10911W        W26805  14.132  16.188   4.850  0.0554 -0.0166  0.2827
10912W        W26806   5.150   7.693   4.660  0.4763 -0.1391  0.4269
10913W        W26807   7.590   4.394   5.660 -0.3784  0.2609  0.0486
10914W        W26808   9.566   1.038   3.989 -0.1249 -0.0298  0.4805
10915W        W26809   4.048  16.481  13.881  0.1703 -0.1791  0.1232
10916W        W26810   7.243   0.050   5.582 -0.0708 -0.1580  0.1359
10917W        W26811   1.595  10.305   1.389 -0.1492 -0.0583 -0.3900
10918W        W26812   4.998   2.896  11.440  0.1643 -0.0063  0.4091
10919W        W26813   3.568  17.636  12.297  0.2754 -0.1185  0.0146
10920W        W26814  18.587   7.931   4.066 -0.0129 -0.4050 -0.0014
10921W        W26815   6.946  16.921  14.492 -0.2862  0.1376  0.1004
10922W        W26816  18.606  10.533  11.760 -0.4252  0.2337 -0.0564
10923W        W26817   4.285  16.556   0.150 -0.0673  0.1503 -0.0375
10924W        W26818  15.673   0.766  11.705 -0.0850  0.3076 -0.1778
10925W        W26819   0.434   8.570   0.240 -0.0080 -0.2992 -0.2806
10926W        W26820  16.602  18.796   0.911 -0.2018 -0.1190  0.2037
10927W        W26821   5.881   5.610  14.499 -0.3272 -0.0405 -0.1198
10928W        W26822   5.770  15.693   2.961 -0.0299 -0.1400 -0.0351
10929W        W26823  16.199  16.922   4.641 -0.0396  0.2968  0.3884
10930W        W26824   4.598   8.530   4.056 -0.2538  0.0294  0.1991
10931W        W26825   4.395   7.846   1.095  0.0856 -0.0600 -0.1022
10932W        W26826   1.704   4.419  11.485  0.0099 -0.2082 -0.2649
10933W        W26827  12.235  10.677   3.226  0.3104  0.0735 -0.3523
10934W        W26828  18.844   4.266  13.075  0.2879  0.4737 -0.2704
10935W        W26829  15.272   6.514  14.790 -0.2601  0.0714 -0.0723
10936W        W26830   4.595  10.524   2.449 -0.1343  0.0468 -0.2393
10937W        W26831  16.272  10.463  13.162  0.0592 -0.2801  0.2888
10938W        W26832  17.033  11.155   3.351 -0.0372 -0.1029  0.2851
10939W        W26833  16.623   5.963  11.986 -0.0992 -0.2772 -0.1515
10940W        W26834  15.738  11.788  13.555 -0.1387  0.1038 -0.2891
10941W        W26835   6.063  12.764   2.822  0.3851 -0.2354  0.3026
10942W        W26836   8.642   7.776   1.210  0.1737 -0.2358 -0.3234
10943W        W26837  17.906   5.468  14.251 -0.2817  0.0972  0.1301
10944W        W26838   0.818  18.832  14.244 -0.0482  0.0256  0.0459
10945W        W26839   8.313  17.902   4.774  0.5041  0.0855 -0.0704
10946W        W26840  17.047  17.967   2.767  0.0630  0.3480  0.0795
10947W        W26841  12.943   9.899   0.369 -0.2073 -0.0886 -0.4252
10948W        W26842   6.272   5.190  14.697  0.0903 -0.1224  0.2016
10949W        W26843   8.357  11.123  13.987 -0.1031 -0.1490 -0.1659
10950W        W26844   4.940  14.704   1.267  0.0541 -0.0260 -0.1910
10951W        W26845  10.813   6.968  14.737  0.3828  0.1197 -0.1129
10952W        W26846  13.506  13.818   3.560 -0.2734  0.0308 -0.5644
10953W        W26847  18.499  10.310   0.912 -0.3989 -0.0941 -0.0633
10954W        W26848   8.407  13.429   1.920 -0.0828 -0.1379 -0.1675
10955W        W26849  10.003  12.535   4.224 -0.3150 -0.1217 -0.2192
10956W        W26850   5.121  18.754   3.154  0.2161 -0.2141 -0.2076
10957W        W26851   1.274   4.709  10.293 -0.1547 -0.0303  0.0634
10958W        W26852  14.416   6.781   3.911 -0.1524  0.0272  0.1487
10959W        W26853   0.456   5.319   1.570 -0.0792 -0.4067  0.0870
10960W        W26854  13.521   4.168   4.970 -0.0782 -0.1978 -0.1054
10961W        W26855   8.186  15.730  10.653  0.3023  0.0089  0.2441
10962W        W26856   0.456   5.294  13.050  0.0432 -0.1566  0.1039
10963W        W26857   2.400   9.136   1.129 -0.1825 -0.3075  0.3646
10964W        W26858   6.209  14.608  13.131  0.2872 -0.2798  0.2194
10965W        W26859   5.345  18.108  12.205 -0.1828 -0.2552  0.0810
10966W        W26860   0.170   0.778  11.992  0.0024  0.3600 -0.0866
10967W        W26861   1.664   0.924   1.949  0.4724  0.0864  0.3741
10968W        W26862  18.933   7.678   4.647  0.5500  0.1729  0.5475
10969W        W26863   8.623  18.845   0.227 -0.2256  0.4431 -0.3266
10970W        W26864   1.460  16.632   3.794 -0.1646 -0.1162 -0.0334
10971W        W26865  19.070   9.551   3.322 -0.0451  0.2974 -0.0964
10972W        W26866  16.949  12.922  14.018 -0.2082 -0.3830  0.1202
10973W        W26867  13.031   6.410  13.666  0.1971  0.1135  0.2784
10974W        W26868   1.225   2.972   0.973 -0.2378  0.1344 -0.1890
10975W        W26869  11.582  14.089   0.712 -0.2006  0.3073 -0.1252
10976W        W26870   0.269   4.992  13.482 -0.2146  0.4372 -0.0471
10977W        W26871   5.211   6.385   5.179 -0.1863  0.1010  0.0615
10978W        W26872  16.026  14.027   2.117 -0.1030  0.2002 -0.2352
10979W        W26873   1.788   9.317   2.586 -0.0697  0.2236  0.0784
10980W        W26874  19.105   5.543   0.240 -0.1623  0.2008 -0.1866
10981W        W26875   4.656  13.277  13.607 -0.2608  0.0666 -0.4584
10982W        W26876  18.947  11.037   1.257  0.0446 -0.0255 -0.1329
10983W        W26877   3.143   4.765   2.478 -0.4365  0.1423  0.2218
10984W        W26878   2.920  16.315  14.727  0.1837 -0.0988  0.0604
10985W        W26879   4.641   6.135  14.586 -0.0363 -0.0536  0.0859
10986W        W26880   7.867   2.181  13.099  0.3126 -0.0117  0.1924
10987W        W26881  14.921  18.638  10.194  0.1059 -0.3507  0.0846
10988W        W26882   3.778   4.943   3.840 -0.3014  0.3354  0.1887
10989W        W26883   4.987  16.926  13.379  0.0228 -0.4798 -0.2349
10990W        W26884  13.112  18.817  14.350  0.4112 -0.2107  0.1482
10991W        W26885  16.439   2.453  12.280 -0.3003 -0.1327 -0.1159
10992W        W26886  12.398   7.407  13.795 -0.0345  0.2900 -0.1884
10993W        W26887  10.231  13.321   0.552 -0.2069 -0.0855  0.0470
10994W        W26888  16.869   1.738  10.873  0.3222  0.0308  0.0295
10995W        W26889   0.086  15.333   3.455  0.0648  0.2123 -0.1971
10996W        W26890  17.890   2.257  12.460 -0.2222 -0.1180  0.0764
10997W        W26891  17.885  18.379   0.150  0.4186 -0.2206 -0.2143
10998W        W26892   9.857   2.716  11.132 -0.2978  0.0501 -0.0741
10999W        W26893  13.945   5.362   0.325 -0.0802  0.2330  0.2407
11000W        W26894   1.773  18.844   3.870  0.0111 -0.1312  0.1356
11001W        W26895  12.885  15.290   2.136 -0.0643  0.0362 -0.5170
11002W        W26896  11.343   5.208   1.134  0.0005 -0.0871 -0.0835
11003W        W26897   3.337  13.979  12.603 -0.2503 -0.2416 -0.2954
11004W        W26898  15.330   3.144  13.358  0.0754  0.0013 -0.2765
11005W        W26899  13.538  10.399   4.086  0.3542  0.0946 -0.1690
11006W        W26900   9.359   9.587  13.017 -0.1952  0.1630 -0.1242
11007W        W26901  11.343  10.929  11.057  0.0116 -0.1001 -0.0639
11008W        W26902  15.437   7.788  14.524 -0.0423 -0.2175  0.1814
11009W        W26903   2.504  15.411  10.999 -0.1288  0.2017 -0.1330
11010W        W26904   2.760  15.262   2.678 -0.0252  0.0084 -0.2454
11011W        W26905  17.294  17.223  15.057 -0.2034 -0.4590  0.0514
11012W        W26906  13.119   6.388  11.100 -0.1464 -0.2117 -0.1390
11013W        W26907  10.319   7.265  12.196  0.3858  0.0823 -0.0206
11014W        W26908  19.007   1.089   2.184  0.3243  0.3376 -0.0722
11015W        W26909   1.104   5.822   5.880  0.0559  0.0538  0.4122
11016W        W26910   7.269  14.369  13.163  0.1115  0.1696  0.1710
11017W        W26911   2.769   4.438   2.368  0.1411  0.1324  0.0713
11018W        W26912   2.261   5.661   3.792  0.2716  0.0301  0.1061
11019W        W26913  14.984   2.836  11.464  0.2637 -0.1335 -0.0297
11020W        W26914   6.742   4.770   3.890 -0.1421  0.0295 -0.1295
11021W        W26915  13.075   5.178   0.898  0.2257  0.1141 -0.2554
11022W        W26916  18.269  12.757  12.936  0.2038  0.3107  0.1310
11023W        W26917   3.811  14.638   4.378  0.0535 -0.0937 -0.0795
11024W        W26918   6.581  12.391  14.295 -0.3398 -0.0053  0.2618
11025W        W26919  13.508  15.717   1.841 -0.0677 -0.0742 -0.2107
11026W        W26920   8.310   9.563  11.577 -0.1214 -0.1705 -0.1583
11027W        W26921   8.641   0.884   4.129  0.0124 -0.0577  0.2911
11028W        W26922   1.738  12.974  14.376  0.0094  0.2884 -0.1482
11029W        W26923  10.179  16.097  10.715  0.3267 -0.5846 -0.0041
11030W        W26924  12.212  11.118  10.457  0.2329 -0.1291 -0.0726
11031W        W26925   8.149   3.225   5.137  0.1012 -0.3811  0.0432
11032W        W26926  11.549  19.002  11.089  0.0086  0.0374 -0.2561
11033W        W26927   7.486  17.187   3.752 -0.0937  0.3200  0.1167
11034W        W26928  16.287   2.220  11.870 -0.0240  0.2974 -0.1588
11035W        W26929  11.741   7.877  10.061  0.0638  0.4302 -0.1972
11036W        W26930   9.021   0.214  10.792 -0.1621  0.1927 -0.1667
11037W        W26931  16.258  14.438  13.935  0.2973 -0.0303 -0.0469
11038W        W26932  14.621   3.175  12.619 -0.1215  0.0529  0.1959
11039W        W26933  10.703  15.859   4.932  0.2624 -0.3004  0.0573
11040W        W26934  10.434   1.199   3.475 -0.0624 -0.2615  0.2417
11041W        W26935  16.056   6.214   5.137  0.2003 -0.0619  0.3095
11042W        W26936  11.796   5.780  14.297 -0.0601 -0.0131 -0.0322
11043W        W26937  19.201   0.093  12.736 -0.0111 -0.0429  0.0404
11044W        W26938   1.474  17.447  14.043  0.0639 -0.0924 -0.4337
11045W        W26939  13.715  10.421   3.587  0.1832  0.2615  0.3050
11046W        W26940   4.558   6.783   1.792 -0.0837 -0.0409  0.1858
11047W        W26941   1.902   4.792   0.604  0.2462  0.1542  0.3343
11048W        W26942   4.984   9.433  13.094  0.1769  0.1299  0.0823
11049W        W26943  12.721  16.184   1.247  0.0763  0.0238  0.0408
11050W        W26944  13.692  18.276  14.991  0.1311  0.0425  0.2431
11051W        W26945   3.589  16.331  10.092 -0.0283  0.4044 -0.1872
11052W        W26946  11.774  18.211  13.449  0.2169 -0.3251 -0.1083
11053W        W26947  16.015   8.396  11.936  0.1599 -0.2106 -0.2000
11054W        W26948   3.619   6.520  14.452  0.3449 -0.0577  0.1626
11055W        W26949  12.524   0.351   9.433  0.1535 -0.0649 -0.2853
11056W        W26950   2.407  18.191  12.974 -0.0276  0.0397 -0.2386
11057W        W26951  10.609  13.417  14.276 -0.2546 -0.1109  0.1235
11058W        W26952   9.024   0.062  14.715  0.1171  0.0023 -0.0709
11059W        W26953  17.028  16.280   5.574  0.0490 -0.0294 -0.1645
11060W        W26954  17.514   7.009  14.140  0.2276  0.1198  0.0852
11061W        W26955  18.355   6.518   1.024 -0.0739  0.2513  0.2443
11062W        W26956   6.354   5.821  14.224 -0.1888 -0.0511  0.3496
11063W        W26957  17.650   2.309   2.001  0.1410 -0.2580  0.1373
11064W        W26958   2.464  13.528  12.345 -0.5416 -0.0946  0.2496
11065W        W26959   8.385  10.655  13.181 -0.0775 -0.2712  0.2999
11066W        W26960   5.869  10.166  10.923 -0.2930  0.3728  0.1114
11067W        W26961  18.453  12.785  11.511  0.2309  0.0379 -0.1105
11068W        W26962  18.817   2.089  12.912 -0.1483  0.2028 -0.0683
11069W        W26963  10.921  17.472  10.636  0.1721 -0.3614 -0.0982
11070W        W26964   3.338   9.795  13.052  0.0487 -0.0434  0.1871
11071W        W26965   8.464  11.794  10.570  0.2432  0.0483  0.0558
11072W        W26966  16.090  18.336  10.843  0.0228 -0.3877  0.1915
11073W        W26967   9.441  13.741  12.932 -0.6016  0.3893 -0.3009
11074W        W26968  15.136   1.161  10.906  0.2294 -0.0414 -0.2586
11075W        W26969   9.439   2.894   0.548 -0.0182  0.0367  0.0379
11076W        W26970  14.776  14.923   4.495 -0.1054  0.2334 -0.2304
11077W        W26971   4.480  14.204  14.838  0.1064  0.0465  0.2216
11078W        W26972   9.869  15.660   2.570 -0.0015  0.4150 -0.1020
11079W        W26973  14.428  14.654  11.331  0.2169  0.0477 -0.0725
11080W        W26974  18.543  14.089  13.159  0.0194  0.0741  0.0985
11081W        W26975   6.984  11.791  13.139 -0.1264  0.0082 -0.0282
11082W        W26976   5.361   8.456   5.543 -0.0798  0.0880  0.3866
11083W        W26977  18.035  16.053   0.325 -0.2052  0.0117 -0.2835
11084W        W26978   4.179   9.531   3.767 -0.1237 -0.3405 -0.0428
11085W        W26979  11.078   2.831   3.207  0.4597 -0.3570 -0.0705
11086W        W26980  10.947   8.419   3.307 -0.1791  0.0913  0.0408
11087W        W26981  17.147  14.156   2.201 -0.0433  0.1028 -0.1306
11088W        W26982   8.319  10.404  11.240  0.4069  0.0909  0.0890
11089W        W26983   9.570   2.579   2.324  0.2345  0.1383  0.0603
11090W        W26984  11.991  17.272   3.472  0.1883  0.2174 -0.3754
11091W        W26985  18.332   5.989   5.438 -0.0703 -0.2633  0.1917
11092W        W26986  17.699   3.863   4.290  0.1556  0.4202 -0.0444
11093W        W26987  16.939  17.453  13.613 -0.3667  0.0102  0.0562
11094W        W26988  14.111  17.823  10.334 -0.1332 -0.1282  0.1077
11095W        W26989  16.457   6.235   0.177  0.2490  0.1175  0.0242
11096W        W26990   3.204  18.084  13.722 -0.1452  0.3379  0.0497
11097W        W26991  12.685  16.312   1.738  0.1683 -0.0765  0.3079
11098W        W26992  12.181   4.927  10.182 -0.2917 -0.2468  0.0120
11099W        W26993   0.708  12.776   2.956  0.0083  0.1922 -0.0314
11100W        W26994   4.091   9.003   3.902  0.1269 -0.0238 -0.2087
11101W        W26995  15.600   1.027   9.942 -0.1255  0.0538 -0.4977
11102W        W26996   5.771   1.120   1.064  0.2405 -0.1266  0.0312
11103W        W26997   2.301  14.555  14.993 -0.2666  0.1277 -0.3374
11104W        W26998   0.341   1.094   1.071 -0.0565 -0.0344 -0.1322
11105W        W26999   0.592  19.210  12.892  0.1221  0.4125  0.0330
11106W        W27000   6.990   9.720   4.578  0.2482 -0.0117  0.1456
11107W        W27001   3.095   8.037  14.860  0.0992 -0.0369  0.2366
11108W        W27002  17.538   8.707   4.637 -0.1316  0.2940  0.0295
11109W        W27003   8.576  11.756   0.909 -0.0726 -0.0738  0.4138
11110W        W27004   1.841   5.246   2.149 -0.0953  0.2330 -0.2560
11111W        W27005   9.490   7.650   1.684  0.1112 -0.3016 -0.3005
11112W        W27006  10.126  16.372   0.230  0.0264  0.0529  0.0358
11113W        W27007  17.262   7.323   0.770  0.1516  0.0494 -0.0628
11114W        W27008  18.435   5.916  11.145 -0.1843 -0.1613 -0.2609
11115W        W27009  14.001  11.242   0.990 -0.2371  0.0124  0.1686
11116W        W27010   3.799  16.518   1.495 -0.2523 -0.0507  0.0244
11117W        W27011  18.903  14.576   2.339 -0.2804 -0.3246  0.2193
11118W        W27012   3.158  11.472   4.664  0.0675 -0.0537  0.3110
11119W        W27013   3.843   3.098  12.391 -0.1197  0.0202 -0.3431
11120W        W27014   8.034  10.501  14.910  0.1700 -0.1261 -0.0210
11121W        W27015  11.209   0.852   9.978 -0.0264  0.2153  0.0873
11122W        W27016  11.026   4.738   2.806  0.1660  0.1297 -0.0997
11123W        W27017  11.763  17.412  11.145  0.3705 -0.0842 -0.2588
11124W        W27018  11.568   8.093  10.973  0.0844 -0.1344 -0.3996
11125W        W27019   5.639   5.508   0.392  0.1687  0.4454  0.3169
11126W        W27020   5.166  18.039  14.931 -0.1739  0.1620 -0.2450
11127W        W27021  19.202   2.773  11.464  0.0546 -0.0486 -0.2445
11128W        W27022   2.447   7.014  12.059  0.3104  0.0856 -0.2684
11129W        W27023  14.626  18.700   3.799  0.3750 -0.0329  0.0013
11130W        W27024   6.627   9.893  12.220 -0.2558 -0.1414  0.2597
11131W        W27025   4.460  14.678   0.689  0.1014  0.0184  0.1293
11132W        W27026  16.793  16.903   1.325  0.1973  0.1940 -0.1025
11133W        W27027   6.414  10.046  11.013  0.1959 -0.1338 -0.5083
11134W        W27028  17.826  19.122   0.994 -0.0791  0.1164 -0.3306
11135W        W27029  10.108  14.222  12.482 -0.1031  0.0595 -0.0292
11136W        W27030   0.560   1.811   4.105  0.2298 -0.1501 -0.1580
11137W        W27031  18.234   6.760  14.528 -0.0117 -0.2990  0.0244
11138W        W27032   6.396   8.193  12.375 -0.0237 -0.3954  0.1196
11139W        W27033  16.203  16.508  12.113 -0.1724 -0.1385 -0.0158
11140W        W27034   8.188  14.555   3.487 -0.1205  0.2133 -0.5758
11141W        W27035   6.107   8.893   2.888  0.0108  0.0450  0.2103
11142W        W27036  10.415  10.017  14.875  0.0317  0.1108  0.0315
11143W        W27037  11.591   6.994  15.091  0.0155 -0.0699 -0.5164
11144W        W27038   2.911   4.127  13.509  0.0606 -0.1914  0.0529
11145W        W27039  15.603  10.562  14.544  0.1551  0.0211  0.0092
11146W        W27040  17.832  17.423   3.029 -0.3688  0.0515 -0.0096
11147W        W27041  15.353   2.534   2.952 -0.0144 -0.0172 -0.0211
11148W        W27042   8.570  11.722   4.601  0.2449  0.4477 -0.2096
11149W        W27043   5.213  16.680  15.011  0.1817  0.0363 -0.0172
11150W        W27044   8.834   5.712  12.790  0.1850 -0.0020 -0.0617
11151W        W27045   3.693  11.883   3.762  0.2007 -0.3210 -0.1489
11152W        W27046   7.346  13.043  14.537 -0.1309  0.2020  0.1907
11153W        W27047   0.591   8.009   0.355  0.3611 -0.1151  0.0183
11154W        W27048   7.220  14.640   1.635  0.0398  0.2335 -0.2871
11155W        W27049  13.770  13.152  10.312  0.0157  0.2368  0.1420
11156W        W27050  14.381  18.623  10.841  0.1090  0.2661  0.1468
11157W        W27051  18.031   1.197   4.143  0.0268 -0.1312  0.2470
11158W        W27052   5.506   6.278   3.195 -0.1808 -0.2711  0.0263
11159W        W27053  13.066  13.554   1.644 -0.0475 -0.1373  0.3765
11160W        W27054   2.217   3.655  13.539 -0.1598 -0.0141 -0.0957
11161W        W27055   9.603  13.712   2.622 -0.0726  0.6022 -0.1105
11162W        W27056   5.073  15.672   3.448  0.1418  0.2218  0.3524
11163W        W27057  15.760  15.176  12.260  0.0943 -0.2043  0.0747
11164W        W27058  14.401  10.731   2.227  0.0792  0.1641 -0.0695
11165W        W27059   9.330   3.969  12.540 -0.0646  0.3493 -0.1417
11166W        W27060  13.555   4.613   4.769 -0.1701 -0.0151  0.0167
11167W        W27061   7.212   2.131   5.216 -0.3806  0.0131  0.0121
11168W        W27062   1.907   1.786   4.736 -0.1436 -0.0954  0.2661
11169W        W27063  12.769   6.830   4.899  0.0263  0.1317 -0.0254
11170W        W27064  12.670  10.417  11.131 -0.1748  0.1585 -0.1078
11171W        W27065   4.623  13.523  12.669 -0.0264  0.3710  0.0427
11172W        W27066   8.904   4.667  15.045  0.0904 -0.0153 -0.0146
11173W        W27067   3.392  12.697   1.872 -0.1376  0.3083 -0.3003
11174W        W27068  16.840   9.486   4.483  0.1241 -0.1535 -0.2504
11175W        W27069   9.641   6.720   1.487  0.2715  0.0066  0.1804
11176W        W27070  16.249  10.581   1.456  0.3019  0.1386  0.0560
11177W        W27071   6.862   4.017  12.215 -0.3259  0.0290 -0.0547
11178W        W27072  11.759  13.541  13.223 -0.2394 -0.1995 -0.1353
11179W        W27073  17.636   6.766  12.337  0.0210  0.2715 -0.0572
11180W        W27074   0.648   1.522  12.127 -0.6276 -0.3441  0.1252
11181W        W27075   7.263   2.740   1.909  0.0970  0.2543 -0.0702
11182W        W27076  16.326  13.068  10.805  0.1052  0.0748  0.2356
11183W        W27077   9.272  12.839   9.830 -0.1992 -0.3097  0.1055
11184W        W27078  17.919  13.175   4.374  0.0137 -0.3249 -0.2639
11185W        W27079  10.249   6.931  13.890 -0.0127 -0.0936 -0.3647
11186W        W27080   5.917  16.967   0.473  0.0636 -0.1643  0.1301
11187W        W27081  16.041   7.881  11.006 -0.0918  0.2082  0.0010
11188W        W27082  14.333   2.056  11.960  0.0163 -0.1621 -0.1373
11189W        W27083  11.240  13.397   3.419 -0.2219 -0.1670  0.2780
11190W        W27084  18.341  15.992   0.720 -0.0738  0.1185  0.2375
11191W        W27085   5.813  12.415  10.832 -0.1832 -0.0173  0.2140
11192W        W27086   7.193   2.259  14.858  0.0177 -0.0251  0.4082
11193W        W27087   3.795  14.555  14.140 -0.0078  0.2163  0.2997
11194W        W27088   0.182  10.703  10.887 -0.0630 -0.1527  0.0080
11195W        W27089  16.750   0.306   1.683 -0.0338  0.1051 -0.0088
11196W        W27090  17.165  11.614  13.363  0.0938 -0.0768 -0.3348
11197W        W27091   7.720   5.120   4.337 -0.1738  0.0098 -0.0413
11198W        W27092  18.561  14.718  14.542  0.5367 -0.2895  0.0628
11199W        W27093   4.864  13.964  14.662 -0.1139  0.2321 -0.1294
11200W        W27094  10.596  18.201  12.183  0.0056 -0.2849  0.2901
11201W        W27095   5.811   1.800  10.675  0.0571  0.1820  0.1343
11202W        W27096   0.241   2.071  15.048 -0.0708  0.3327  0.1052
11203W        W27097   0.891  17.912  12.294  0.1901  0.5223 -0.1126
11204W        W27098  10.980  12.441   3.383 -0.1168  0.1205 -0.2681
11205W        W27099  16.139   2.561   0.563 -0.1855  0.1307 -0.0938
11206W        W27100  16.496  18.641   1.845  0.1601  0.2966 -0.0453
11207W        W27101  14.708   6.360   3.635  0.1250 -0.1086 -0.1588
11208W        W27102  19.129  17.840  13.013  0.0627  0.0270  0.1347
11209W        W27103   7.444   2.931  12.730 -0.1448 -0.0266 -0.1303
11210W        W27104  17.679   5.584   5.048 -0.2718  0.1858  0.0610
11211W        W27105  10.151   5.920   1.063 -0.1611  0.3554  0.2716
11212W        W27106  11.642   9.799  11.508  0.2086 -0.2570 -0.1243
11213W        W27107   0.590  19.044   3.176  0.2430  0.1046  0.3081
11214W        W27108  14.083   1.666  12.149  0.1140 -0.4017 -0.1484
11215W        W27109  12.431   1.909   4.260  0.2331 -0.1013 -0.0800
11216W        W27110  11.358   9.889  11.860  0.2031  0.0373 -0.2265
11217W        W27111   1.239   4.584  12.735  0.1930  0.0639  0.1423
11218W        W27112   5.285  16.554  14.517 -0.1087 -0.0558 -0.2921
11219W        W27113  13.752   5.789   1.145 -0.1478 -0.2652 -0.0230
11220W        W27114   2.273  17.549  14.790  0.0347  0.0921  0.0345
11221W        W27115   8.089   4.452  11.858  0.4221 -0.1893  0.2216
11222W        W27116  10.696   5.218  12.777  0.0251  0.0717 -0.0178
11223W        W27117  19.180  12.200   0.854 -0.0594  0.4069 -0.0563
11224W        W27118   1.945  18.349   2.160  0.0161  0.2232  0.1781
11225W        W27119  10.742   4.625   0.369 -0.0578  0.4031 -0.2007
11226W        W27120  13.088  12.522   2.684  0.0470 -0.0378 -0.0428
11227W        W27121  13.437   9.126   4.766  0.0297 -0.0330  0.3508
11228W        W27122  12.319  17.462  11.313 -0.0636  0.2287  0.0643
11229W        W27123  14.452   3.744   2.100 -0.1255 -0.3273 -0.1719
11230W        W27124   4.631  11.816  12.673  0.2585 -0.3756  0.2372
11231W        W27125   3.181  18.349   0.345 -0.2997 -0.0866  0.2122
11232W        W27126   8.240   6.927   1.769 -0.0775  0.1592  0.1241
11233W        W27127  12.837  18.881   1.070 -0.0496  0.2111 -0.0235
11234W        W27128   2.763   9.917   0.101 -0.1624  0.1691 -0.1044
11235W        W27129   4.399   6.707   0.774  0.2087  0.1381  0.2485
11236W        W27130  13.622   4.736  10.575  0.0041  0.0005  0.1116
11237W        W27131   3.008  11.568  11.372 -0.0961  0.0827 -0.3139
11238W        W27132  15.450  10.230   0.091  0.0218 -0.1456  0.2349
11239W        W27133   5.927  14.169   3.459  0.0831 -0.2056  0.3486
11240W        W27134   4.942  10.114   1.740 -0.3547 -0.1976 -0.2683
11241W        W27135   1.482   8.577   4.179  0.2032  0.0834  0.0897
11242W        W27136  13.038   3.630   5.437 -0.1385  0.2324 -0.1253
11243W        W27137   9.388   6.677   3.729 -0.1675  0.1144 -0.2801
11244W        W27138   6.271   1.873  14.006  0.1309 -0.0848 -0.0896
11245W        W27139  17.926   6.201   2.535 -0.1890  0.0343  0.0902
11246W        W27140  16.301   9.567  10.617 -0.3093 -0.0588  0.0369
11247W        W27141  15.289   8.396  12.169 -0.5128 -0.1214  0.0382
11248W        W27142   8.876  17.248  13.609  0.0371 -0.0070  0.0038
11249W        W27143  15.443   7.217   1.591  0.0013 -0.0356 -0.0556
11250W        W27144   9.605   3.128   1.005  0.4378  0.0387  0.0581
11251W        W27145  12.590  15.630  15.100 -0.0169  0.0117  0.0948
11252W        W27146   0.319   8.942  14.704 -0.1111  0.1142  0.2819
11253W        W27147  11.556   3.548  11.124  0.1799  0.0343  0.2587
11254W        W27148  11.027  15.976   0.664 -0.0785  0.2636 -0.2806
11255W        W27149   3.902  15.211   5.529 -0.0796  0.3918 -0.0987
11256W        W27150  11.803  16.687   0.009  0.1757  0.0012  0.0033
11257W        W27151  14.467   0.370   3.665 -0.3885 -0.1053  0.3860
11258W        W27152   3.872   6.668  15.015 -0.2688  0.2143  0.1060
11259W        W27153   6.447   4.764  11.805  0.1805 -0.0608 -0.1053
11260W        W27154   4.747   3.013   0.519  0.0901 -0.5171 -0.0775
11261W        W27155  17.555  10.303  14.154  0.2904 -0.1334 -0.1841
11262W        W27156  16.472   3.149   1.977  0.0415 -0.2162  0.1188
11263W        W27157   1.448  15.707  12.066  0.2285  0.2477  0.0407
11264W        W27158   4.278  15.130  11.323  0.0052 -0.1254  0.2837
11265W        W27159  13.889  13.014   0.216 -0.0429 -0.0668  0.2178
11266W        W27160   8.854  14.359   0.179 -0.3958  0.0564 -0.0567
11267W        W27161  14.105  16.371  13.102  0.2375  0.1285  0.1387
11268W        W27162   7.466   7.970  14.025  0.0342  0.1282 -0.1210
11269W        W27163  12.839  14.987   0.512 -0.4288  0.0817  0.1219
11270W        W27164   0.117   0.534   4.765  0.0625  0.0438  0.0171
11271W        W27165   0.217   2.515   3.178 -0.1997 -0.1372  0.0382
11272W        W27166  18.388  17.687   9.725 -0.2381  0.2035  0.0395
11273W        W27167   9.966   5.333   4.764  0.0395  0.1445 -0.1786
11274W        W27168  17.477   5.241   0.507 -0.1033  0.2282  0.2725
11275W        W27169  14.252  15.061  11.615 -0.2429  0.1939 -0.2584
11276W        W27170  12.570   1.635   0.228 -0.3062 -0.1327 -0.1103
11277W        W27171   4.089  15.059   1.379 -0.3710 -0.1507  0.0290
11278W        W27172  10.575  11.507   4.255 -0.0458 -0.1038 -0.0165
11279W        W27173   6.016  15.187   4.453 -0.1379  0.0618  0.1300
11280W        W27174  14.200   5.130   2.008 -0.3243 -0.1416 -0.1382
11281W        W27175  14.654   1.791   0.057  0.0861  0.2403  0.1257
11282W        W27176   8.804   8.266  13.848  0.1058 -0.4475  0.1122
11283W        W27177  18.978   8.400   2.222 -0.0054 -0.3147  0.1215
11284W        W27178  15.661   5.320   4.085 -0.2277 -0.2374  0.1361
11285W        W27179   5.738  12.524   0.798 -0.0657 -0.4248 -0.2766
11286W        W27180   5.487  18.887   2.790 -0.3187  0.1113 -0.2738
11287W        W27181  18.002   5.732   1.399  0.0815  0.0666  0.1802
11288W        W27182   4.415  14.787   5.416 -0.0176 -0.0008 -0.1686
11289W        W27183  13.271   5.520  11.600 -0.2649  0.1463 -0.0722
11290W        W27184   7.406  15.167   4.862  0.1429  0.1303  0.1176
11291W        W27185   3.716  18.407  11.075  0.2483  0.2161  0.0295
11292W        W27186  14.494  10.387   4.700 -0.1454 -0.0118  0.3129
11293W        W27187  16.219   0.656   4.663 -0.0253  0.1245  0.0494
11294W        W27188   1.713   9.153   0.288 -0.0809 -0.0870  0.2421
11295W        W27189   6.055  12.983   0.845  0.2034  0.2418  0.0626
11296W        W27190  17.850  15.891   0.819 -0.0704  0.1856  0.1761
11297W        W27191  11.772  14.017   1.167 -0.1557  0.1279  0.1641
11298W        W27192   8.799   1.333  10.139  0.1896  0.2620  0.1598
11299W        W27193   7.780   8.954  13.895 -0.0600 -0.3025  0.2290
11300W        W27194   3.440   8.849   4.598  0.3811  0.2422 -0.1803
11301W        W27195   8.241   3.037   4.712  0.1413  0.0803  0.0154
11302W        W27196   2.838  14.177   0.775 -0.0454 -0.1239 -0.0914
11303W        W27197  15.546   0.990   3.353  0.2299  0.1231 -0.0682
11304W        W27198  17.056  14.462  12.987 -0.0954  0.2685  0.1281
11305W        W27199  10.687   1.066   1.060  0.0675  0.2715  0.1433
11306W        W27200  13.456  12.146   2.007 -0.3385  0.0105  0.2916
11307W        W27201  14.045  10.046  10.438  0.0308 -0.2286 -0.2498
11308W        W27202  10.224   0.692  10.557 -0.2971 -0.1435 -0.1014
11309W        W27203   6.358   3.394  11.703  0.2170  0.1278  0.3509
11310W        W27204   5.158   6.454  13.404  0.0877 -0.1341 -0.0393
11311W        W27205  16.956  12.896   4.886 -0.0194  0.2391  0.2646
11312W        W27206   6.294   3.297  13.069  0.0115 -0.0634  0.1093
11313W        W27207  13.428   9.878   1.709 -0.0917 -0.1920 -0.3072
11314W        W27208   9.865   0.312   4.143  0.4395 -0.0921  0.0785
11315W        W27209   6.060   1.425   4.918 -0.2678 -0.0748 -0.0449
11316W        W27210   7.150   4.692   0.190 -0.2063  0.2806 -0.0774
11317W        W27211   7.907   7.285  14.670  0.2498  0.0231  0.0590
11318W        W27212   2.144  10.496   1.234  0.1472  0.0296 -0.1262
11319W        W27213  18.173   3.588   0.580 -0.1831  0.0841 -0.0029
11320W        W27214   6.852   7.672   1.400 -0.1969 -0.1336  0.0571
11321W        W27215   2.689   7.323   3.057 -0.2988 -0.1301  0.1538
11322W        W27216   8.379   2.257   4.988 -0.0936 -0.3330 -0.0426
11323W        W27217  13.600   3.547   2.669  0.0511 -0.0772 -0.1761
11324W        W27218   7.637   8.925   2.126 -0.2034  0.1065 -0.1158
11325W        W27219  19.207  14.412  10.256 -0.0950 -0.2725 -0.2408
11326W        W27220   1.627   4.202   2.974 -0.2048 -0.1530 -0.0947
11327W        W27221   9.492   3.330   0.038 -0.2644  0.0981  0.0458
11328W        W27222  16.444  15.081  12.604  0.1155  0.0600 -0.3757
11329W        W27223  17.375   7.247   4.313  0.0584  0.0383  0.0219
11330W        W27224   1.581  11.648  12.111 -0.0242 -0.0125  0.0238
11331W        W27225  14.061   5.128  12.984 -0.0429 -0.1099 -0.0551
11332W        W27226  16.285  13.892   3.138 -0.1762 -0.0348 -0.2486
11333W        W27227   7.220   0.418   5.225 -0.1535 -0.4620  0.0736
11334W        W27228   4.173   6.675  14.168  0.2503 -0.1228 -0.1769
11335W        W27229   0.225  14.397   3.924  0.0583  0.1201  0.3091
11336W        W27230  16.551  11.311   3.358  0.0957  0.1616  0.0780
11337W        W27231   6.763   1.907  14.790  0.0400  0.0745  0.1674
11338W        W27232   7.803   9.317  14.309 -0.1640  0.1368 -0.1468
11339W        W27233  17.011   7.491   3.182  0.0824  0.0658  0.0518
11340W        W27234  17.436  15.606  11.561 -0.3293 -0.0534  0.0635
11341W        W27235   0.720  10.017   3.484  0.1296  0.2998  0.2896
11342W        W27236  16.305   2.156   1.147 -0.2695 -0.2589  0.1636
11343W        W27237   1.347   3.187   1.440 -0.0083 -0.2242  0.0851
11344W        W27238   8.030   1.191   3.967  0.1142  0.0485 -0.0478
11345W        W27239  12.917  13.203   1.919  0.0734  0.0376  0.0637
11346W        W27240  19.163  16.868  13.502  0.0359 -0.0109  0.1074
11347W        W27241  10.976   3.589   2.700 -0.1051 -0.1944  0.4449
11348W        W27242   4.424   7.817  11.184 -0.1802  0.0192 -0.1685
11349W        W27243   5.563   9.015   4.474 -0.1476 -0.2017 -0.3413
11350W        W27244  15.708  18.605   4.492 -0.2741 -0.1856  0.2597
11351W        W27245   2.006  16.590  15.090 -0.1215  0.0004 -0.1032
11352W        W27246   0.090   1.477  10.579  0.1098  0.0374  0.1665
11353W        W27247   8.127  16.106   9.985  0.1192 -0.1583 -0.2502
11354W        W27248  13.175  10.343   4.486 -0.0489  0.1006  0.2672
11355W        W27249   5.922  13.298   1.869  0.0422 -0.3166  0.0598
11356W        W27250   9.501  15.863  13.454 -0.0753 -0.0721 -0.0723
11357W        W27251  10.906   9.342   4.235  0.0888  0.2971 -0.0946
11358W        W27252  13.309   4.679  13.030 -0.0288  0.0257  0.0991
11359W        W27253   0.912   0.964  14.907 -0.0721  0.2606  0.1900
11360W        W27254   0.155   5.071   3.275  0.3566  0.0755 -0.0358
11361W        W27255   7.307   8.574  12.654 -0.0234  0.0500  0.0099
11362W        W27256  12.579   5.238   4.189 -0.3262  0.1034  0.4531
11363W        W27257  13.165   0.272   1.334  0.0450 -0.0997  0.0947
11364W        W27258   2.247   5.493  12.560 -0.2184 -0.3554 -0.1972
11365W        W27259   5.284   8.853  14.850 -0.0149 -0.0318 -0.0459
11366W        W27260   5.132  10.191  10.161 -0.1617 -0.1689 -0.1281
11367W        W27261  12.297  18.688   0.371  0.3907 -0.0372  0.3012
11368W        W27262  14.093  12.595   2.692  0.3674 -0.1565  0.5303
11369W        W27263  15.616   3.449  13.034  0.1348 -0.2423 -0.0177
11370W        W27264   8.066   7.004   4.400  0.2074 -0.0355 -0.0122
11371W        W27265   3.065   6.147  13.662  0.0050  0.2573 -0.1663
11372W        W27266   6.760   4.586  13.554 -0.0366  0.2177  0.1883
11373W        W27267  15.912   5.531   0.350 -0.1134  0.2172  0.0547
11374W        W27268  12.511   7.457  12.784  0.0237  0.2120 -0.4009
11375W        W27269  17.850  14.799   1.883 -0.0401 -0.3259 -0.0473
11376W        W27270   2.370   6.085   4.095 -0.1977  0.0052 -0.0835
11377W        W27271  18.620   2.020   0.479  0.2184  0.2132 -0.0806
11378W        W27272   9.627   8.287  11.195 -0.0009 -0.2838  0.3522
11379W        W27273   5.896  12.541   0.298  0.3658  0.2883 -0.1101
11380W        W27274  16.776  18.604  12.631  0.0060  0.1942 -0.3008
11381W        W27275   5.456  16.963   0.671  0.2457 -0.1778  0.2242
11382W        W27276   6.389   6.840   3.017 -0.0349 -0.3199 -0.1916
11383W        W27277   5.344  16.453   1.649  0.3293  0.0777 -0.2355
11384W        W27278  16.244   5.346  12.916 -0.3077  0.0195  0.0655
11385W        W27279  18.095  11.454   0.483 -0.4102  0.1478  0.0230
11386W        W27280   0.140  10.321  14.767  0.0720  0.0358 -0.0193
11387W        W27281   1.859  16.287   3.784 -0.2078 -0.0190  0.0712
11388W        W27282  19.017   7.125  12.478 -0.0170  0.1134  0.0032
11389W        W27283   1.343   6.280   5.044  0.0318  0.1050 -0.1256
11390W        W27284   4.926   2.745   5.755 -0.1064  0.3336  0.0100
11391W        W27285   4.245   3.280  13.711  0.0612 -0.0590 -0.1876
11392W        W27286  19.067   1.184  10.178 -0.1261  0.1689  0.1213
11393W        W27287   3.821   2.255  14.478  0.2176 -0.0307 -0.0459
11394W        W27288  18.773  13.571   2.230  0.2910  0.0924 -0.1968
11395W        W27289   4.130   1.791  11.178  0.1781  0.1032 -0.0969
11396W        W27290   9.115   9.092  14.891 -0.0026  0.0066  0.0015
11397W        W27291  10.809  18.844   1.977  0.0060  0.4210  0.1445
11398W        W27292   1.368   7.470   1.460  0.0871 -0.0363  0.2150
11399W        W27293  16.152   7.435  10.788 -0.1677  0.3821 -0.0635
11400W        W27294  18.087   0.216  12.539  0.0034 -0.2938  0.0665
11401W        W27295   3.699  17.010   1.537  0.1911 -0.3704 -0.0131
11402W        W27296  17.608  16.727  13.063  0.0704  0.0879 -0.0792
11403W        W27297  16.225  17.262   0.604  0.4443  0.2510 -0.0571
11404W        W27298  12.820   6.473  11.613 -0.2311 -0.1061 -0.0647
11405W        W27299  10.195  12.975  13.707 -0.1658  0.0005 -0.2075
11406W        W27300   2.860  14.821   4.448  0.0340  0.0044 -0.1228
11407W        W27301  14.147   4.453  10.838 -0.0066 -0.0326 -0.0018
11408W        W27302  14.738   2.300   0.372 -0.4205  0.1127 -0.2984
11409W        W27303   5.074  14.226   1.645 -0.3783  0.1165 -0.2012
11410W        W27304  12.721  13.669   2.036 -0.0590 -0.4362 -0.1014
11411W        W27305   7.991   7.658   3.052  0.1951  0.0970  0.1362
11412W        W27306  14.648   9.836  10.314  0.1593  0.1732  0.2808
11413W        W27307  14.849   4.713  14.385  0.1127 -0.0753  0.1266
11414W        W27308  16.827  10.391   2.570  0.0302  0.1351  0.0583
11415W        W27309  16.348   4.775  14.220 -0.0619 -0.3301  0.1176
11416W        W27310  17.697  14.044   3.143 -0.1472 -0.2009 -0.0387
11417W        W27311  15.128   8.740   1.397 -0.4356  0.1733  0.1515
11418W        W27312  11.228   3.844   0.595 -0.1352  0.0021 -0.2522
11419W        W27313   4.845   0.762   5.730 -0.2208 -0.1533 -0.2470
11420W        W27314  11.227   2.588   4.433  0.0421 -0.2168  0.2053
11421W        W27315  15.762   6.684   4.123 -0.0014 -0.1298 -0.1133
11422W        W27316   1.946   6.933  14.686  0.3296 -0.4580 -0.2071
11423W        W27317   2.877   8.843   5.575  0.0052  0.2289  0.0906
11424W        W27318   3.408   1.003   5.128  0.1104  0.2327 -0.1521
11425W        W27319  18.085  10.505   1.212 -0.3140  0.1025  0.0183
11426W        W27320   4.086   1.265   2.468 -0.1716 -0.0846 -0.3329
11427W        W27321   2.919   4.830   4.229  0.0140 -0.0243 -0.0174
11428W        W27322   1.779  10.279   3.994 -0.0265 -0.1725 -0.1750
11429W        W27323  17.524  17.925  13.146 -0.2481 -0.1685  0.2092
11430W        W27324   1.318   8.365   5.164 -0.0377  0.1139  0.0890
11431W        W27325  10.906   2.880  15.037 -0.0630  0.1843  0.1301
11432W        W27326   7.233   3.266   0.964  0.2019  0.1506 -0.1925
11433W        W27327   5.706   4.674  11.688 -0.1647  0.0818  0.3221
11434W        W27328  13.589  17.873  11.333  0.1298 -0.0390 -0.1803
11435W        W27329   3.813  14.239  10.314 -0.2065 -0.0385 -0.0585
11436W        W27330  15.889   0.082  13.367  0.1071  0.3866  0.0324
11437W        W27331   9.009  13.947   2.252  0.1786 -0.1882  0.1577
11438W        W27332   1.727   1.748  13.504  0.2239  0.0227  0.2532
11439W        W27333   5.767   5.883  13.474 -0.1584 -0.0818  0.0023
11440W        W27334   9.453   2.052  14.521  0.0402  0.1399 -0.2352
11441W        W27335   2.800   3.637   0.509 -0.0438  0.2127  0.0111
11442W        W27336  18.617   2.302   3.460  0.0516  0.0087 -0.0903
11443W        W27337  14.389  10.072   4.112  0.0073  0.0172 -0.0750
11444W        W27338  13.656  16.378   1.063  0.1814  0.3560 -0.0715
11445W        W27339   1.732   9.546  15.079 -0.0819 -0.1980 -0.1977
11446W        W27340  13.051   7.442   0.412  0.2010 -0.2219 -0.0155
11447W        W27341   6.507  17.598   2.229  0.2610  0.0920 -0.1382
11448W        W27342   4.725   5.040   4.560  0.0058  0.2175 -0.2703
11449W        W27343   3.638   6.431   5.116  0.0281  0.0977  0.1751
11450W        W27344   3.023   0.307  10.472  0.0753  0.0692 -0.3189
11451W        W27345  18.180  16.010   4.787  0.2567 -0.2925 -0.1529
11452W        W27346   1.312  16.803   4.425  0.0613  0.1245 -0.0993
11453W        W27347   9.738   0.169   0.650  0.0770 -0.2444 -0.0844
11454W        W27348   2.195  16.150  10.515 -0.1431  0.1325  0.1864
11455W        W27349   7.386  18.165  13.671  0.1628  0.4338  0.1019
11456W        W27350  15.877   1.922  12.122 -0.1326 -0.4544 -0.1838
11457W        W27351  12.965  15.905  14.463  0.2937  0.3568  0.2358
11458W        W27352   8.665   5.838  13.925  0.3868 -0.1260 -0.0164
11459W        W27353   6.352   7.416  12.772  0.3674  0.0813 -0.0639
11460W        W27354  16.893   4.835  12.524  0.0643 -0.2443  0.2692
11461W        W27355   4.316   7.436  12.181  0.1522 -0.1302 -0.1849
11462W        W27356   7.439  12.794   4.209 -0.1809  0.0971 -0.1986
11463W        W27357  12.807   8.660  11.889 -0.2396 -0.0818  0.1651
11464W        W27358  10.839  10.119  14.580 -0.0433 -0.1258 -0.0325
11465W        W27359  15.198  14.971   2.985  0.0521  0.1901  0.1720
11466W        W27360  18.784   2.590   3.842 -0.0203 -0.2141 -0.0579
11467W        W27361  15.379   0.325   9.307 -0.1491 -0.0605 -0.0090
11468W        W27362  12.934  11.484   3.706 -0.2248 -0.1193 -0.0195
11469W        W27363  14.374   7.857   5.286 -0.1989  0.1653  0.3496
11470W        W27364   2.875   3.607   3.687  0.0108 -0.0843 -0.0157
11471W        W27365   6.311   0.990  14.993 -0.0609 -0.0540  0.1740
11472W        W27366   5.090   3.058   1.611 -0.1978  0.1230  0.0253
11473W        W27367  15.388  18.843   2.772 -0.1274 -0.0837  0.0236
11474W        W27368  13.740  11.727  11.431 -0.0874 -0.1264 -0.0954
11475W        W27369   1.893  15.631   0.467  0.2551  0.0672  0.0562
11476W        W27370  15.872  14.921   2.589 -0.2631 -0.1207 -0.0111
11477W        W27371   7.661  11.468   2.570  0.2413  0.3444 -0.5278
11478W        W27372   3.732   9.428   2.992 -0.0056  0.1428  0.0508
11479W        W27373   5.357   8.114  13.698 -0.1484  0.0526  0.1825
11480W        W27374   7.917  16.207  11.327 -0.2159 -0.3691 -0.0787
11481W        W27375  14.857  14.109   4.275 -0.2914  0.3083 -0.1692
11482W        W27376   7.235   4.821  11.392  0.0044 -0.0366 -0.0912
11483W        W27377   3.120   2.833   0.667 -0.3400  0.0317 -0.3543
11484W        W27378   1.710  17.443  12.368  0.0039  0.3954  0.1242
11485W        W27379   3.381  13.244   3.227  0.0496  0.0905  0.1641
11486W        W27380   2.583  11.534  14.625 -0.1212 -0.1119  0.2068
11487W        W27381   0.210  16.477   2.973 -0.2308 -0.4422 -0.1840
11488W        W27382  10.771  14.390   0.008  0.0310 -0.5131 -0.1399
11489W        W27383  17.534   4.418   4.840 -0.0731 -0.2436 -0.0583
11490W        W27384  14.011  15.199   0.101  0.2547 -0.0012  0.3718
11491W        W27385  18.544  17.257   5.260 -0.1849 -0.1093  0.0244
11492W        W27386   1.908  15.051  11.477 -0.2243 -0.0074  0.3059
11493W        W27387  13.656   2.647  15.056 -0.0002  0.1764  0.2579
11494W        W27388  14.151   8.777  14.953  0.0146  0.2594 -0.4345
11495W        W27389   0.983  11.882  14.653 -0.2275  0.0109  0.2039
11496W        W27390  16.739  16.110  12.127  0.0014  0.2002 -0.0237
11497W        W27391   5.330  15.696  14.200  0.3057 -0.1799  0.1334
11498W        W27392  17.437   7.563   3.481 -0.0371  0.5150  0.0696
11499W        W27393   9.881  17.665   5.408  0.1746  0.0491  0.1041
11500W        W27394   1.924  11.576   5.282  0.1685 -0.0709 -0.2132
11501W        W27395  15.252   1.386   0.412  0.0091  0.0924 -0.1496
11502W        W27396  10.051  11.784  13.310 -0.1086 -0.2223  0.0049
11503W        W27397  17.120  11.220  13.841 -0.0066  0.2971  0.2369
11504W        W27398  11.081   5.053  14.599  0.0272 -0.1644  0.0525
11505W        W27399   8.606  11.215   2.016 -0.0881 -0.2312  0.1324
11506W        W27400  18.565   4.176  10.914  0.1205  0.0923 -0.2197
11507W        W27401   5.841   6.067   3.629  0.2664 -0.0432  0.1281
11508W        W27402   5.695   2.181   2.480 -0.1379 -0.0937  0.1623
11509W        W27403  11.595   2.692   3.113 -0.1003 -0.1271  0.2265
11510W        W27404   3.837   3.961   2.159  0.1166 -0.2099 -0.0938
11511W        W27405  17.407   9.333   5.811 -0.0630 -0.1152  0.0255
11512W        W27406  13.721   2.746  12.557  0.1990  0.1172  0.2176
11513W        W27407   1.360  16.340   2.310  0.0873 -0.0184  0.1349
11514W        W27408  12.366   1.693   3.063 -0.1085  0.0286 -0.0042
11515W        W27409  19.208   7.820  13.684  0.0160  0.1338 -0.2530
11516W        W27410   5.340   5.862   2.842  0.1377 -0.0351 -0.2499
11517W        W27411  16.905  15.375  14.920 -0.0302 -0.1497  0.0891
11518W        W27412   6.433   5.585   4.711 -0.2807 -0.3797  0.0319
11519W        W27413   3.846  16.269  10.601  0.1564 -0.1765  0.1112
11520W        W27414  16.410   8.159  11.749 -0.2721  0.0687  0.1479
11521W        W27415   3.618  15.309  14.166 -0.1832  0.1443  0.2616
11522W        W27416  19.061   3.747   2.378  0.1076  0.0683  0.2110
11523W        W27417  16.799  18.022   1.159  0.2899 -0.2009 -0.0040
11524W        W27418  17.138  17.195  14.142 -0.0497  0.1859 -0.2682
11525W        W27419   1.646   8.552   3.065 -0.3521  0.0268  0.2349
11526W        W27420  13.437   1.332  10.445  0.0045 -0.2265 -0.0635
11527W        W27421  17.623  18.361   2.137  0.2349 -0.0777 -0.2226
11528W        W27422  16.912   4.243   4.643 -0.0052 -0.0735  0.0149
11529W        W27423  14.671   7.779  13.509 -0.0112  0.0011  0.2143
11530W        W27424  10.588   9.564   1.132 -0.2145 -0.1479 -0.1215
11531W        W27425  16.417   1.541   0.937 -0.0182  0.2188 -0.0778
11532W        W27426  14.453   9.364  13.791  0.1443 -0.0163  0.0391
11533W        W27427  15.904   6.362  12.357  0.1482  0.2031  0.0418
11534W        W27428   8.643  16.308   0.764  0.1671  0.1065  0.1094
11535W        W27429   1.703   7.142  11.441  0.1771  0.2979  0.2300
11536W        W27430  11.422  11.605   0.339 -0.1533 -0.1972  0.2642
11537W        W27431  14.053  14.914   2.235  0.5990 -0.0535 -0.0870
11538W        W27432   7.133   2.636   1.303 -0.0704 -0.1507  0.5589
11539W        W27433  10.081  10.503  14.351 -0.4062  0.0331  0.2461
11540W        W27434  16.120   0.225   2.044  0.1350 -0.3412  0.0087
11541W        W27435  11.224   8.726  12.161  0.1344  0.1953  0.0098
11542W        W27436   0.786   8.874   5.010  0.2422  0.0463 -0.0166
11543W        W27437   0.092  14.564  14.621 -0.0659 -0.0036  0.0607
11544W        W27438   1.824   3.269  14.432 -0.0475 -0.0639  0.0552
11545W        W27439   1.015  14.407   3.672 -0.3189 -0.0432 -0.1368
11546W        W27440  18.663   1.297   5.273 -0.0918 -0.4362  0.3004
11547W        W27441   7.602  17.792  12.489  0.5374  0.0960  0.2986
11548W        W27442   0.018   5.047  13.107  0.1269  0.2854 -0.0634
11549W        W27443   7.544  14.183   3.340  0.1260 -0.1693 -0.2125
11550W        W27444  16.911  15.616  13.598  0.4486  0.0300  0.2923
11551W        W27445   4.642   1.362  13.201  0.4926  0.0405  0.2512
11552W        W27446  15.539  17.483  13.973  0.0942 -0.1082 -0.0758
11553W        W27447  13.726  15.309  12.951  0.0251 -0.0957  0.2243
11554W        W27448  16.531  11.083   1.347  0.0925 -0.1620 -0.2483
11555W        W27449   1.695  13.868  10.523  0.4518 -0.2135 -0.0226
11556W        W27450   4.861  14.632   2.266 -0.2395  0.2465  0.4320
11557W        W27451   2.733   0.803  11.163 -0.0655  0.0048 -0.3546
11558W        W27452  16.139  12.510   0.845 -0.0868 -0.0307  0.1418
11559W        W27453  17.213  14.763   0.351 -0.1814  0.1020 -0.0629
11560W        W27454   3.924   3.534   3.220  0.2111  0.2766 -0.5179
11561W        W27455   8.860  12.600   1.749  0.1848 -0.0929  0.2035
11562W        W27456  15.240   5.509   5.518  0.2147  0.0226  0.3182
11563W        W27457   0.569  18.332   4.225 -0.0512 -0.1150 -0.0790
11564W        W27458   5.183   8.397  14.987 -0.2635  0.2458 -0.0326
11565W        W27459   2.526   8.234   1.648  0.1836 -0.3837  0.0694
11566W        W27460  18.956   3.381   1.787 -0.2597  0.3934  0.0487
11567W        W27461  13.441  12.050  10.924 -0.4802 -0.0232 -0.0014
11568W        W27462  11.059  12.335  12.613  0.1293 -0.2848 -0.4673
11569W        W27463  17.379  17.486  10.800  0.0145 -0.0692  0.0944
11570W        W27464   8.713  10.663   3.051 -0.2078  0.4917 -0.1004
11571W        W27465   4.457  12.281   0.188  0.1429 -0.1584 -0.2580
11572W        W27466  13.162  16.053  11.441  0.1165 -0.0355  0.4353
11573W        W27467  11.991  18.984  13.367 -0.1610 -0.1237 -0.3131
11574W        W27468  11.738   7.061   2.575  0.1381  0.0928  0.0322
11575W        W27469   7.378   1.590  13.414  0.1086  0.0314 -0.0662
11576W        W27470   7.935   3.139   0.279 -0.2106  0.1337  0.0390
11577W        W27471  10.773  17.706  12.234 -0.2177  0.0110 -0.1657
11578W        W27472   3.948  15.394  14.707 -0.0753 -0.0449  0.0516
11579W        W27473  12.690   3.852  12.883  0.0840 -0.1328  0.0774
11580W        W27474  18.762   2.686   1.350  0.0865 -0.0057  0.0234
11581W        W27475   9.782   2.352   1.873 -0.1227  0.2399 -0.0670
11582W        W27476  16.417   1.118   9.528  0.1484 -0.1055 -0.2798
11583W        W27477  14.618   0.700   3.236 -0.1106 -0.3724  0.1456
11584W        W27478   5.227  15.751   0.033  0.2228 -0.3735 -0.0352
11585W        W27479   7.818  10.638   1.592  0.0984  0.0537  0.1869
11586W        W27480  12.444   8.202  10.953  0.0133 -0.1058  0.1413
11587W        W27481  17.126   5.668   3.690 -0.0247  0.0861 -0.0129
11588W        W27482   0.029  12.352  14.600 -0.0252 -0.0659 -0.2042
11589W        W27483  11.166  11.108  14.182 -0.0538  0.1113  0.5715
11590W        W27484   2.295  11.133   1.257 -0.1455 -0.1742  0.0845
11591W        W27485   8.415  13.796   3.844  0.0742 -0.0757  0.0983
11592W        W27486  16.741  11.663  12.361  0.1845  0.2775  0.3402
11593W        W27487  15.208  13.249  11.871  0.1654 -0.5941 -0.0264
11594W        W27488   9.934   5.274  11.125  0.1953  0.2007 -0.1363
11595W        W27489   6.094   3.472   4.878  0.1356  0.1909  0.3832
11596W        W27490  12.532  10.847   5.104 -0.5059  0.3087  0.1837
11597W        W27491   1.845  12.759  11.547 -0.3199 -0.2648 -0.0918
11598W        W27492   9.851   9.438   1.328 -0.0024 -0.3009 -0.0693
11599W        W27493  11.926   4.427  11.560  0.0217 -0.0339  0.1289
11600W        W27494   4.042   0.911  13.961  0.2749 -0.4080  0.0492
11601W        W27495  12.800   1.111  11.803 -0.1003  0.1550  0.2301
11602W        W27496  10.532   2.012  11.933 -0.0969  0.0240 -0.1864
11603W        W27497  17.660  14.363   9.904  0.3318  0.2984 -0.2628
11604W        W27498   1.323  12.279  14.347 -0.1697 -0.2171  0.2095
11605W        W27499  12.338   2.189   2.904  0.4497 -0.0745  0.0383
11606W        W27500  12.422   2.517  12.095 -0.2518 -0.1636 -0.0230
11607W        W27501   8.015  14.081   3.443 -0.2968 -0.1446 -0.0798
11608W        W27502   7.357  10.104   2.158  0.2513  0.2289  0.0596
11609W        W27503   7.101   0.914   3.970  0.1833 -0.2299  0.0386
11610W        W27504   7.606   6.360   4.197  0.0022 -0.0713  0.0469
11611W        W27505   2.627   6.280   0.557 -0.0604  0.0420 -0.1053
11612W        W27506  13.000   8.527   4.740  0.2890 -0.3167  0.1514
11613W        W27507  11.305  18.152  11.537 -0.4954 -0.0869 -0.0305
11614W        W27508  12.118  10.105  13.322  0.1942  0.1888 -0.2561
11615W        W27509   7.138  18.543   3.775 -0.0350 -0.0827 -0.1913
11616W        W27510  11.817  14.266  12.357  0.2385  0.3504  0.1018
11617W        W27511  17.997  10.952   1.367 -0.0759  0.2100 -0.0341
11618W        W27512   5.312  16.204   0.962 -0.2847 -0.1084 -0.1221
11619W        W27513   4.693   2.532  11.982 -0.3827  0.0067  0.1660
11620W        W27514  13.336  18.254  13.279  0.1366  0.5914 -0.0890
11621W        W27515   3.463   9.170   2.566  0.1543 -0.0205 -0.1049
11622W        W27516  18.334   4.959   1.129  0.2207  0.0477  0.1419
11623W        W27517  12.227  11.004  12.109  0.1435  0.0372  0.0413
11624W        W27518  17.578   4.735  13.387  0.2173  0.0644  0.1507
11625W        W27519   4.810  14.254  11.085  0.2525 -0.1500 -0.0375
11626W        W27520   8.921  10.291  14.119  0.1160  0.0565  0.0647
11627W        W27521  12.181   1.435  14.952  0.0102 -0.0419  0.3732
11628W        W27522   7.494   6.250   2.817 -0.0238  0.3087 -0.0634
11629W        W27523  14.026   6.103   2.988  0.4543 -0.0524  0.1154
11630W        W27524  14.373  13.956   2.235 -0.1061  0.0554  0.1743
11631W        W27525  10.402  10.159  11.422 -0.0279  0.1594  0.0818
11632W        W27526   4.993  11.215   9.922 -0.1556 -0.1599  0.1692
11633W        W27527  14.777  12.439  12.710 -0.0223  0.1200  0.1337
11634W        W27528   4.612  10.176  10.830  0.1989  0.0677 -0.0101
11635W        W27529   4.179  13.958   3.948 -0.1131 -0.0721  0.0923
11636W        W27530   2.740  18.844   5.192  0.4528  0.0690  0.1121
11637W        W27531  11.538  15.134   3.712  0.3887  0.0820 -0.1824
11638W        W27532  13.956   1.025  11.604  0.4156  0.2377  0.1556
11639W        W27533   4.147  10.731   2.627 -0.1673  0.1179 -0.0953
11640W        W27534   6.528  15.209   0.020  0.1752 -0.0524 -0.0946
11641W        W27535   6.994  19.070   2.506  0.0891 -0.1367 -0.0826
11642W        W27536   5.423   5.482  11.291  0.0536 -0.0754 -0.1572
11643W        W27537   7.197  14.273  10.930  0.0576 -0.0022 -0.0223
11644W        W27538   0.588   8.251   6.084  0.0999  0.5301 -0.1668
11645W        W27539  10.467   5.239   2.335 -0.2191  0.0449 -0.3159
11646W        W27540  13.627   3.139   1.641  0.3075 -0.0894 -0.1227
11647W        W27541  15.701  18.658  10.752  0.0742 -0.0040  0.2287
11648W        W27542   0.794  19.196  11.232 -0.0240  0.0795  0.1707
11649W        W27543  18.680  10.073  12.595 -0.3916 -0.1355 -0.1144
11650W        W27544   2.678   5.786  13.537 -0.1043 -0.2294 -0.1791
11651W        W27545   5.696  17.447  14.844  0.0445 -0.0064  0.3828
11652W        W27546   7.452   9.114   2.713 -0.0554  0.2038  0.3162
11653W        W27547   6.286  11.617   9.948 -0.1218 -0.0662  0.1396
11654W        W27548  17.999   7.091  14.051 -0.2590  0.1088 -0.0691
11655W        W27549  18.023   3.992  11.770  0.3848  0.0250 -0.0790
11656W        W27550  12.874   1.408   2.968 -0.0454  0.1259  0.1161
11657W        W27551   4.144   9.844  14.903  0.0668  0.1632  0.1833
11658W        W27552   4.423   5.890   0.082 -0.0434  0.1898 -0.0566
11659W        W27553   7.253   6.880   6.146  0.1518 -0.4386  0.3860
11660W        W27554   8.278  16.417   2.644 -0.2079 -0.0779  0.0917
11661W        W27555   2.831  17.567  10.590  0.0166 -0.0483  0.2308
11662W        W27556   9.037  13.100  14.230 -0.1930 -0.2172 -0.0364
11663W        W27557   6.486  16.979   3.674  0.1821  0.2051 -0.1297
11664W        W27558   3.049   4.482  11.901  0.3622 -0.1369 -0.1433
11665W        W27559   7.479  13.685   4.175  0.3332 -0.0753  0.2953
11666W        W27560  11.301  14.065   2.670  0.2835  0.6149  0.3851
11667W        W27561  15.364   4.494   3.241  0.0185 -0.0260 -0.0089
11668W        W27562  13.918   5.549   2.180 -0.2714 -0.2230  0.1542
11669W        W27563   9.754  17.726   0.216 -0.2319 -0.1287 -0.0002
11670W        W27564  13.498  15.532   1.402 -0.2825  0.0963  0.0077
11671W        W27565  17.748   0.173   4.675  0.5642  0.3478 -0.1505
11672W        W27566  13.336   0.460  13.833  0.0740 -0.0416  0.2963
11673W        W27567   2.485  12.793   9.864 -0.1422 -0.1035 -0.2021
11674W        W27568  12.730   1.204   1.910 -0.0613 -0.0872 -0.2718
11675W        W27569  10.226  11.923   0.084  0.3634  0.1049 -0.0856
11676W        W27570  14.667   4.090   4.877  0.0511  0.0047 -0.1078
11677W        W27571   6.591  10.827   3.655  0.0993 -0.3973 -0.0993
11678W        W27572   2.852  15.615   1.128 -0.0544  0.2513  0.1371
11679W        W27573  15.417  13.052  10.375 -0.1752  0.0310  0.0600
11680W        W27574   8.765  10.609   2.018  0.1408  0.1335  0.3764
11681W        W27575  13.525   7.041   3.344  0.2131  0.1797 -0.1140
11682W        W27576  10.007  14.099   3.346  0.1815  0.2647 -0.0290
11683W        W27577  17.090  15.347  11.961  0.4454  0.0515 -0.1695
11684W        W27578   0.834  11.242  14.832  0.0901 -0.0377 -0.2098
11685W        W27579   4.690  12.310   9.495  0.0202 -0.1058 -0.0347
11686W        W27580   2.622   0.482   3.667 -0.2565  0.0197 -0.0107
11687W        W27581   1.869   1.536  12.661  0.0291  0.1596  0.2483
11688W        W27582  16.873  15.554   1.650  0.0034  0.2400  0.1215
11689W        W27583  14.807  12.128   1.541  0.2655 -0.0048 -0.2898
11690W        W27584   4.575   2.539  13.937 -0.1432  0.0384  0.1592
11691W        W27585  12.570   7.382   2.388 -0.3160  0.0080  0.2775
11692W        W27586  16.558   6.214   0.770  0.1909 -0.4651 -0.2082
11693W        W27587  18.482  13.408  13.991 -0.1239  0.0041  0.0990
11694W        W27588   6.567   2.790  14.576  0.1142  0.2684 -0.0081
11695W        W27589  14.608   3.893   3.545 -0.2290 -0.1501  0.1946
11696W        W27590   6.102  18.111  13.852  0.3189 -0.0465  0.1573
11697W        W27591   1.418  10.029  14.780  0.3012  0.1508  0.0340
11698W        W27592  11.009   2.545   0.330  0.1561  0.0614 -0.1368
11699W        W27593  13.464   3.580  12.222 -0.1868 -0.1516  0.0656
11700W        W27594   1.224   3.619  11.022  0.4006 -0.1550 -0.2113
11701W        W27595  15.691   4.313   1.713 -0.0858 -0.0135  0.0145
11702W        W27596  19.164  18.246  12.711  0.1326  0.1823 -0.0653
11703W        W27597   1.863  14.348   3.452  0.0151  0.0938  0.1165
11704W        W27598   9.364  13.094   2.913 -0.0226  0.0783  0.0381
11705W        W27599  11.758  16.354  10.630 -0.1385 -0.1062  0.1480
11706W        W27600  19.083   3.517  14.581  0.3364  0.2107 -0.0014
11707W        W27601  18.863  11.924  14.638  0.0381 -0.2358  0.4429
11708W        W27602  10.655  11.886  14.165 -0.3652 -0.0919 -0.0367
11709W        W27603   4.114   3.766  13.452 -0.1520  0.0777  0.0033
11710W        W27604   0.457  17.407   4.575 -0.1144  0.1665 -0.1166
11711W        W27605   5.456  18.838  11.957 -0.2475 -0.1209  0.1174
11712W        W27606   3.778   3.485   0.679  0.2018  0.5725  0.4984
11713W        W27607   7.886  13.597   5.053 -0.0968  0.0737  0.0958
11714W        W27608  17.460  10.139  11.425  0.1788 -0.0170 -0.2306
11715W        W27609   7.260   6.776   2.502 -0.0732 -0.2297  0.2880
11716W        W27610   2.044  11.973   1.101 -0.0233  0.0124  0.1510
11717W        W27611   5.582   2.696  13.748  0.5247 -0.0605  0.0869
11718W        W27612  12.200  15.145  10.009  0.0540 -0.0990 -0.1064
11719W        W27613   1.030  11.053  10.279 -0.0545 -0.0375  0.1025
11720W        W27614   6.728   0.447  12.906 -0.0166 -0.1087  0.0902
11721W        W27615   8.058   9.858  11.131  0.0601 -0.3716  0.3971
11722W        W27616  11.077  12.225  13.080 -0.3876 -0.0578 -0.2125
11723W        W27617  13.205  12.424  12.674  0.0318 -0.1745  0.0108
11724W        W27618   8.023  13.755  13.950  0.0113 -0.1367  0.1797
11725W        W27619   1.447   8.545  11.481  0.1094 -0.1059 -0.0960
11726W        W27620   2.226   6.741  15.101 -0.0076  0.1864 -0.1494
11727W        W27621   8.934  12.076  14.754  0.0203 -0.0545 -0.0531
11728W        W27622   8.957  11.537   1.790 -0.0410  0.1517 -0.1412
11729W        W27623  19.085   1.100  12.922  0.1816  0.0670 -0.1164
11730W        W27624   7.973  12.896  11.629  0.0743 -0.1524 -0.0806
11731W        W27625   7.367  12.680  12.825 -0.1476 -0.0453 -0.1747
11732W        W27626   8.129   6.011  11.249 -0.0962 -0.0522  0.6331
11733W        W27627   3.961   8.084   4.652 -0.1544 -0.2152  0.3152
11734W        W27628   1.712  13.377   4.521 -0.1781 -0.2368  0.0931
11735W        W27629  19.220   6.361  11.529  0.1011 -0.0172 -0.0476
11736W        W27630   5.823  12.629  13.082  0.0623 -0.0653  0.2366
11737W        W27631  15.102  17.696  14.812  0.0371  0.1615  0.0171
11738W        W27632   2.766  14.069  11.463 -0.0279 -0.0292  0.0781
11739W        W27633   2.430  12.282   3.312 -0.0100 -0.2894 -0.0540
11740W        W27634   0.697   7.087  10.938  0.0030 -0.0468  0.0982
11741W        W27635   8.526   4.838  11.101  0.0780  0.0718  0.2698
11742W        W27636   0.862  15.130   5.235  0.0362  0.2244  0.1530
11743W        W27637  12.572  13.619   0.542 -0.1200 -0.0193 -0.0874
11744W        W27638  10.574  13.844   1.942  0.4198 -0.0972  0.0665
11745W        W27639  12.928  18.273  10.945 -0.2257 -0.0925 -0.0670
11746W        W27640  16.136  18.817   4.830  0.0567 -0.1749 -0.1255
11747W        W27641   2.197   2.880   0.760  0.1580  0.0971  0.1538
11748W        W27642  17.116   3.556  13.634  0.2849 -0.1089  0.0585
11749W        W27643  14.614  17.076   3.107  0.2621 -0.1786 -0.2517
11750W        W27644   1.459  11.292  13.640 -0.0859  0.2128  0.1426
11751W        W27645   4.114   5.896  12.669 -0.0308  0.0085 -0.0890
11752W        W27646   8.840   1.558   0.572 -0.0439 -0.0390 -0.4577
11753W        W27647   0.691  17.442   1.012 -0.2182  0.1323 -0.0166
11754W        W27648   8.684  11.386   3.118 -0.1942 -0.0075 -0.1198
11755W        W27649   7.240   2.608   3.307 -0.0763 -0.3271 -0.0434
11756W        W27650  13.992   7.478   2.661 -0.0757  0.0364 -0.1088
11757W        W27651   9.904  13.011   3.620  0.1754  0.0024  0.4401
11758W        W27652  18.179   1.594   1.067  0.0925 -0.1018  0.4943
11759W        W27653  13.681   3.032   1.165  0.2004 -0.0535  0.3338
11760W        W27654   5.047   2.740  13.638  0.3243  0.0590 -0.2975
11761W        W27655   9.019  16.492  11.229  0.0631 -0.5250  0.1925
11762W        W27656   2.943   6.168   5.253 -0.1044  0.2509 -0.3826
11763W        W27657  17.050  14.746   2.459  0.3194  0.0685 -0.1590
11764W        W27658  19.112   3.017   3.762 -0.0056 -0.0778 -0.3438
11765W        W27659   2.910  13.734  14.027 -0.1099  0.3243  0.0595
11766W        W27660   3.020  14.990   0.417  0.2385 -0.1810  0.0354
11767W        W27661  10.189   4.270   2.504 -0.2919 -0.2819  0.2903
11768W        W27662   7.544  13.829  13.881  0.3239  0.2871 -0.0870
11769W        W27663   5.652  15.879  11.258 -0.1451  0.2440 -0.2236
11770W        W27664   8.716   9.257  11.872 -0.2766  0.2400  0.1004
11771W        W27665   3.565  12.699   4.689  0.4593  0.0094 -0.1607
11772W        W27666   1.107  17.817   0.764 -0.0731 -0.1122  0.0464
11773W        W27667   3.160  16.532   2.978  0.2987  0.5039  0.0273
11774W        W27668   0.870   1.976  14.321 -0.0234 -0.1968 -0.0573
11775W        W27669   4.290  11.650   1.385  0.1903  0.0787 -0.2473
11776W        W27670   1.146  17.395  14.543  0.0564  0.0144  0.0303
11777W        W27671   3.289   1.587  11.397 -0.2784 -0.1953 -0.0369
11778W        W27672  18.334   7.856   2.784  0.0383 -0.1042 -0.2472
11779W        W27673  12.028  19.136   3.054  0.1083 -0.0875  0.2650
11780W        W27674   5.090   6.842   2.464 -0.0092  0.0839  0.1662
11781W        W27675  18.638  13.293   0.793  0.2615 -0.0767 -0.1230
11782W        W27676  10.932   0.368  13.812  0.0612  0.2097  0.0426
11783W        W27677   9.552   7.478   5.552  0.0113  0.1382 -0.3063
11784W        W27678   9.332  16.221  13.132  0.2154 -0.1306  0.4516
11785W        W27679  12.448  16.995  14.433 -0.0171 -0.1282 -0.1861
11786W        W27680  16.703  14.297  13.306 -0.2426 -0.1354  0.1333
11787W        W27681  11.706   0.515   0.941 -0.0062  0.2005 -0.1217
11788W        W27682  17.512  12.534   1.765  0.0704 -0.0585  0.0781
11789W        W27683   9.470   6.455   1.969  0.1399  0.1319 -0.2339
11790W        W27684   3.721   6.291  13.020  0.1143  0.1857  0.4218
11791W        W27685   7.488   5.387  12.666  0.1872 -0.3567 -0.2686
11792W        W27686   5.999   2.471  13.338 -0.0759  0.1656  0.0024
11793W        W27687   2.267   6.334  12.626  0.0853 -0.0220  0.2788
11794W        W27688   7.141   3.626  12.576 -0.0833 -0.0217  0.2138
11795W        W27689  14.955   0.736   2.056  0.4824  0.4413 -0.0964
11796W        W27690  18.141   2.254  12.902 -0.0976  0.1839 -0.4911
11797W        W27691  11.722  10.496   2.980  0.0086 -0.3196 -0.0807
11798W        W27692  15.177   1.012   4.276  0.0823  0.1192  0.1177
11799W        W27693  13.526  10.256   9.441  0.3370  0.1710 -0.2983
11800W        W27694   7.951   8.279  10.846 -0.1003 -0.0095 -0.1468
11801W        W27695   7.706   1.527   6.148  0.0367  0.0954 -0.2668
11802W        W27696  18.857  18.216  13.095  0.1712 -0.0840 -0.0107
11803W        W27697   6.392   1.527   2.184  0.3914  0.0276 -0.0312
11804W        W27698  11.408   6.045   3.998 -0.1589  0.2019 -0.0614
11805W        W27699   3.441   0.288   3.378  0.3028 -0.1283  0.1397
11806W        W27700   6.629  13.535  10.588  0.2610  0.1073  0.3198
11807W        W27701  15.541   6.902   4.874 -0.0172 -0.3043  0.1539
11808W        W27702  18.157   5.637   5.752  0.1232 -0.0375  0.1177
11809W        W27703  14.048  12.751  13.140  0.4778 -0.0668 -0.1073
11810W        W27704  15.548   9.678  13.962 -0.1797  0.0551 -0.0916
11811W        W27705   8.025   1.256  15.062  0.2546 -0.1455 -0.3675
11812W        W27706  14.786  12.896  14.834 -0.0988  0.0720 -0.1015
11813W        W27707  15.488   6.900   3.234 -0.0068 -0.2276 -0.1883
11814W        W27708   6.080   9.670   3.344  0.3515 -0.1137 -0.2978
11815W        W27709   2.725   6.251  11.452 -0.1977  0.1997  0.1748
11816W        W27710  14.748  18.291   4.028  0.2081  0.0255  0.1160
11817W        W27711   1.986   8.451   4.599 -0.2957  0.0595  0.0581
11818W        W27712  15.195   6.944  10.824 -0.3939  0.1728 -0.2150
11819W        W27713   9.059  11.758   4.741  0.0057  0.0237 -0.1496
11820W        W27714   1.701  17.349  11.231 -0.3383 -0.2344  0.3505
11821W        W27715   1.120   0.724   1.211 -0.0921  0.1445 -0.2043
11822W        W27716   9.990  10.145  12.963 -0.0202  0.1274  0.2400
11823W        W27717   1.288  12.382  13.149 -0.0289 -0.1008 -0.1554
11824W        W27718  16.430  14.675  11.026 -0.1205  0.0211 -0.0060
11825W        W27719  18.079  16.147  13.746 -0.1198  0.5991 -0.1992
11826W        W27720   8.593  18.386   0.119 -0.1541  0.1701 -0.0031
11827W        W27721  19.177  15.688   0.612 -0.4038  0.0159  0.0578
11828W        W27722  14.465   7.035  14.518  0.2378 -0.1159 -0.2920
11829W        W27723   1.981  11.742   3.353  0.3040  0.1096  0.3145
11830W        W27724   7.023  14.241   2.635 -0.2413 -0.0197  0.1840
11831W        W27725  13.747   3.117  12.010 -0.0774  0.0640  0.1859
11832W        W27726  17.741   9.980   2.946 -0.0059 -0.0349  0.0211
11833W        W27727   9.121  10.056   0.683 -0.1596  0.2356 -0.2706
11834W        W27728  10.199  10.431  11.772 -0.1846 -0.2195  0.1573
11835W        W27729  15.366   2.935   2.152  0.1479 -0.2341 -0.0781
11836W        W27730   1.150  18.542  14.633 -0.1624  0.2208  0.2427
11837W        W27731   8.292  17.028  14.956  0.1431  0.1038  0.0260
11838W        W27732   7.646   2.452  12.449  0.3261  0.0738  0.1003
11839W        W27733  11.662  18.034  15.055  0.0715  0.2588  0.0258
11840W        W27734  15.697  15.211  13.830 -0.0503 -0.0217  0.1866
11841W        W27735   9.969  11.926  14.201  0.1733 -0.1287  0.1448
11842W        W27736   6.331   6.263  11.333 -0.1839  0.1123 -0.1355
11843W        W27737   5.096  12.127  14.332 -0.0183  0.1377 -0.2344
11844W        W27738  12.548  12.995   2.778  0.0357 -0.1214 -0.1926
11845W        W27739  15.082   8.556  10.920 -0.1720 -0.2125 -0.2122
11846W        W27740  13.007  10.121   1.508 -0.0335 -0.1473  0.0873
11847W        W27741  16.008   5.426   2.271  0.4098  0.0292  0.2144
11848W        W27742  15.972  11.040  13.860 -0.0223 -0.0555 -0.1157
11849W        W27743   4.661  15.396  10.018 -0.2298  0.3058  0.1529
11850W        W27744  10.764  15.743   1.626  0.2618  0.0650  0.0225
11851W        W27745   0.521   2.764  13.956 -0.1926 -0.4584 -0.1071
11852W        W27746   1.350   1.439  13.514 -0.0413  0.1621 -0.1664
11853W        W27747  10.466   3.906   4.205  0.3713 -0.0819  0.3816
11854W        W27748  17.453  10.304   0.907  0.0489  0.6248  0.0375
11855W        W27749   4.278   2.814   0.570 -0.2387 -0.0841 -0.2339
11856W        W27750   7.709   4.079   1.516  0.0323  0.1493 -0.2101
11857W        W27751  18.524   7.372  12.665 -0.2070  0.0098 -0.0041
11858W        W27752  10.435   0.904  13.387  0.0216  0.1429 -0.4248
11859W        W27753  15.136  19.013   2.339  0.0469  0.1943  0.0779
11860W        W27754   2.718  13.639  10.859 -0.3871  0.0718  0.0525
11861W        W27755   2.211   1.945   1.557  0.1699 -0.3190 -0.0116
11862W        W27756   7.503  14.746  14.898 -0.2643  0.2320  0.2836
11863W        W27757   2.869   8.703   3.830 -0.4784 -0.1922 -0.0398
11864W        W27758  13.018   0.955  11.220  0.0063  0.0979  0.2929
11865W        W27759   3.352  14.413   4.701  0.2548 -0.3449  0.1576
11866W        W27760  11.221   4.153  13.889  0.2240  0.1606  0.4980
11867W        W27761   8.395  18.253   2.301 -0.0785  0.2025 -0.2038
11868W        W27762  16.119  10.356  11.310 -0.2346  0.2197  0.3939
11869W        W27763  14.190  16.239   1.953 -0.3810  0.0462 -0.1950
11870W        W27764   8.691   7.582  12.561 -0.1965 -0.2017 -0.4292
11871W        W27765   0.504  10.414   3.814  0.2274 -0.2491  0.1119
11872W        W27766   9.206   7.769   9.949  0.0012 -0.1454 -0.2105
11873W        W27767  13.149  15.733   2.285 -0.1453 -0.3611 -0.1823
11874W        W27768  18.528  13.719   0.998 -0.1609 -0.0037 -0.2835
11875W        W27769   1.541  15.983  13.333 -0.0438  0.2561 -0.2245
11876W        W27770  17.734  13.268   2.386 -0.1143  0.0594 -0.1988
11877W        W27771  12.990  11.017   2.601  0.1261  0.0415 -0.0677
11878W        W27772   0.112   1.908  12.371 -0.3659  0.3482  0.1157
11879W        W27773   2.800  14.367   2.806 -0.3276 -0.3971  0.1914
11880W        W27774   3.927   9.262   2.310 -0.3149 -0.0727  0.3530
11881W        W27775  13.597  17.384   1.075 -0.2643  0.3176  0.0598
11882W        W27776   9.910   7.264  11.062 -0.1569 -0.3832  0.0167
11883W        W27777  13.953  12.241  15.010  0.2720  0.0709  0.0104
11884W        W27778   5.709  16.210  14.614  0.0306  0.0405 -0.2109
11885W        W27779   4.337   7.035  13.330 -0.1792  0.1669  0.2484
11886W        W27780   1.859  13.240  11.486  0.1250 -0.3361 -0.1205
11887W        W27781   9.349   8.227  10.698  0.3801 -0.1619 -0.2176
11888W        W27782  17.696   2.671   2.385  0.1336 -0.0842 -0.2075
11889W        W27783  12.698   3.513   4.914  0.1728 -0.3890  0.0342
11890W        W27784   5.035   5.426   5.313  0.0387 -0.1266  0.1501
11891W        W27785  13.512  13.501  13.494  0.0352  0.0238 -0.1023
11892W        W27786   6.899  10.850  10.267  0.0276  0.0237  0.2515
11893W        W27787  15.281  16.949   3.823  0.0890 -0.2136 -0.2363
11894W        W27788  17.941   1.274   0.658  0.2615 -0.3589 -0.1674
11895W        W27789  11.472   9.924   4.703 -0.0334  0.2772 -0.1186
11896W        W27790  10.785  11.289  14.944  0.1248 -0.2407 -0.2514
11897W        W27791   1.287   6.442   0.351  0.5078 -0.3422  0.3637
11898W        W27792  18.616   5.690  13.523  0.0563  0.1883 -0.0497
11899W        W27793   2.348  18.565  12.070  0.1630  0.0486 -0.0613
11900W        W27794   0.051   6.710   3.151 -0.1231  0.1153 -0.2307
11901W        W27795   1.624   9.753  13.572 -0.0431  0.0797  0.2230
11902W        W27796  10.485   1.088   4.773  0.1300 -0.3113 -0.0323
11903W        W27797   3.003   5.451   3.635 -0.2615  0.1530 -0.0735
11904W        W27798   5.870   2.721   4.537 -0.0069 -0.2240  0.0075
11905W        W27799  15.545   8.399  10.492  0.1097  0.0130  0.0530
11906W        W27800   6.467   2.455  12.582  0.0630  0.3551  0.0329
11907W        W27801   1.103  10.877   4.068 -0.0169  0.1475 -0.0145
11908W        W27802  17.029  16.476  14.310 -0.0956  0.0663 -0.1129
11909W        W27803  17.793  13.934  13.297 -0.1541  0.3966 -0.2430
11910W        W27804   9.111  19.189  13.984 -0.1524 -0.0937  0.1574
11911W        W27805   9.807   0.439  13.603 -0.2724 -0.0568  0.0381
11912W        W27806  15.172  18.754  13.542 -0.0983 -0.0488 -0.3241
11913W        W27807   3.651  11.697  10.624  0.2744 -0.0523  0.1603
11914W        W27808   2.622   0.540   2.820 -0.1360 -0.2611 -0.0015
11915W        W27809  17.146   2.422   2.444  0.1207  0.1370  0.0600
11916W        W27810  16.683   4.231   9.883 -0.2454  0.2768  0.1640
11917W        W27811   4.763   3.364   1.868  0.2641 -0.3455  0.0618
11918W        W27812   3.231   4.622   4.577  0.0154 -0.0169 -0.1302
11919W        W27813   0.562  15.613   3.941 -0.3523 -0.3314  0.2225
11920W        W27814  18.155   1.363   4.993 -0.1553  0.0706 -0.2734
11921W        W27815  16.036  13.169   5.057  0.1022  0.1276 -0.1714
11922W        W27816  14.218  16.827   2.939 -0.2045 -0.2310  0.1486
11923W        W27817   4.742  17.272   4.419  0.3610  0.0567  0.1124
11924W        W27818   0.162  11.309   2.018  0.2500 -0.0130 -0.0915
11925W        W27819  11.496   2.002   0.780 -0.0629  0.2541 -0.1430
11926W        W27820   5.017   0.158   1.142 -0.2599 -0.3338  0.2193
11927W        W27821   8.023   5.513  14.098  0.2108 -0.0401  0.0002
11928W        W27822  17.067   4.928  13.425  0.0241  0.2003  0.2056
11929W        W27823   1.289   8.144  10.777  0.2001  0.3463 -0.2123
11930W        W27824  17.134   9.816   2.606  0.2583  0.0989  0.1693
11931W        W27825  18.097   7.132  10.775  0.3441 -0.1899 -0.2454
11932W        W27826  10.078  13.796  10.252 -0.0226  0.2280  0.2620
11933W        W27827  11.281  12.537  11.285  0.4694 -0.5240  0.0168
11934W        W27828   0.730   1.051  11.284  0.3218  0.2016  0.1134
11935W        W27829   2.861   1.813   4.830  0.1934 -0.1115 -0.3086
11936W        W27830  17.150   9.949  10.802 -0.2811 -0.1224 -0.1361
11937W        W27831   6.912  10.214   4.592 -0.0951 -0.0309  0.0483
11938W        W27832   3.630   2.688  11.041  0.0906  0.0062 -0.1454
11939W        W27833   1.257  15.579   2.843  0.0080 -0.0592  0.1856
11940W        W27834   2.374  17.205   5.665  0.0725 -0.1127  0.0773
11941W        W27835   3.540   3.177  11.981  0.2217  0.0607 -0.3793
11942W        W27836   1.885  12.473   2.550  0.0036 -0.0860 -0.5347
11943W        W27837   1.786  12.460  10.281  0.0379  0.2596  0.1284
11944W        W27838   2.928  13.700  14.559  0.1023 -0.0140 -0.1057
11945W        W27839  14.722   7.353   0.444 -0.4389 -0.1244 -0.0791
11946W        W27840  13.348   0.179   1.760  0.3286 -0.2853 -0.1483
11947W        W27841   7.119   2.274  13.953  0.1161 -0.1729 -0.1707
11948W        W27842   5.231   5.993  13.516  0.0244 -0.2371  0.0285
11949W        W27843  18.827  16.147  12.041  0.0746 -0.0149 -0.2728
11950W        W27844  10.538  15.762  14.868  0.0525 -0.0169  0.2094
11951W        W27845   6.222  12.647  13.867  0.2175  0.1810 -0.0262
11952W        W27846   2.072   2.847  12.777  0.3300 -0.0480  0.0873
11953W        W27847  11.687  18.455   0.331  0.0401  0.1275 -0.1223
11954W        W27848   7.178  13.637  12.664 -0.0189  0.0781  0.0452
11955W        W27849  16.774  14.408  14.047 -0.0184 -0.1616 -0.3463
11956W        W27850  12.341  16.541   2.259  0.2732  0.3896 -0.4791
11957W        W27851  11.853   6.819  12.673 -0.2711 -0.4493  0.0474
11958W        W27852  16.268   8.814   0.080  0.3932 -0.2069 -0.3850
11959W        W27853  14.167  14.809  14.374 -0.1393  0.1710  0.2294
11960W        W27854   3.366   1.507   5.011 -0.1762 -0.1128  0.0336
11961W        W27855   6.336   0.677  14.492  0.3371 -0.1449  0.0107
11962W        W27856   7.914  12.224   0.827 -0.1707 -0.3176 -0.1829
11963W        W27857   3.343   1.532  14.586 -0.0990 -0.2393 -0.0738
11964W        W27858  15.025  18.126  14.459 -0.0593  0.0990 -0.3803
11965W        W27859  13.350   4.143   9.253 -0.2817  0.0562  0.3421
11966W        W27860  16.918   1.817  14.769 -0.1503  0.0127  0.0931
11967W        W27861  13.523   1.148   1.186  0.2103 -0.0905  0.0850
11968W        W27862   8.758   0.388  12.745  0.1478  0.0185  0.1423
11969W        W27863   2.098  15.772   2.320  0.2430  0.1833  0.2302
11970W        W27864  15.051  16.948  11.719  0.2722 -0.1084  0.2323
11971W        W27865   9.336  16.432   2.967 -0.4532 -0.2193 -0.2422
11972W        W27866  17.626  18.416  10.983  0.2791  0.1409 -0.0466
11973W        W27867   8.900   4.195  12.110 -0.1777 -0.1109  0.0426
11974W        W27868  19.007   1.201   1.039  0.0130 -0.1524  0.1122
11975W        W27869  18.885   7.694  12.949  0.0317 -0.2871  0.0294
11976W        W27870  13.468   1.175   3.567 -0.1116 -0.0480 -0.0818
11977W        W27871   9.096  12.597   0.927 -0.0379  0.1475  0.0171
11978W        W27872  19.132  19.128   0.287 -0.1463  0.3597 -0.4714
11979W        W27873  19.084  18.220  10.820 -0.0534  0.2568  0.2834
11980W        W27874   5.138  15.177   9.968 -0.0613 -0.2794 -0.0885
11981W        W27875   2.936   1.679   4.095  0.1546 -0.0845 -0.3660
11982W        W27876   3.064   8.558   4.704  0.0423  0.0187  0.1625
11983W        W27877   2.881  19.090  12.580 -0.0150 -0.0398 -0.3682
11984W        W27878   5.787  11.881   4.410 -0.1468  0.0773 -0.0638
11985W        W27879   3.625  15.809  10.404  0.1490  0.0645  0.0371
11986W        W27880   1.338  13.775   0.488 -0.0505 -0.2215 -0.2656
11987W        W27881  12.658   3.345  12.686 -0.0304 -0.2895 -0.2529
11988W        W27882  11.632   9.553  12.298 -0.1444 -0.2533  0.3543
11989W        W27883  12.624  17.469   1.010  0.0370 -0.1803 -0.0785
11990W        W27884  13.331  16.306   3.076  0.0479 -0.2168  0.0890
11991W        W27885   6.862  15.481  12.033 -0.1137  0.1718  0.1656
11992W        W27886  14.270   5.571   1.772  0.1435  0.2096  0.1157
11993W        W27887   0.372   3.574  11.105  0.1680 -0.3705 -0.4408
11994W        W27888   5.156   7.536  15.086  0.1991  0.0187  0.2147
11995W        W27889   9.475   4.491  11.966  0.0860  0.2050 -0.0345
11996W        W27890   1.843   2.351  12.595  0.1612 -0.1735 -0.1872
11997W        W27891   1.533  12.945   3.132 -0.3503 -0.0517 -0.0918
11998W        W27892  11.910  12.389   0.149 -0.0259  0.1562 -0.2037
11999W        W27893   6.399  11.204   2.037  0.6910  0.0314 -0.0299
12000W        W27894   8.055   0.414   3.964 -0.2290  0.2908  0.0203
12001W        W27895  17.801   6.121   3.648  0.0383  0.0962 -0.3530
12002W        W27896   6.842  10.357  11.182 -0.0278 -0.4777 -0.0323
12003W        W27897  15.537  11.658   4.679 -0.3626 -0.0435  0.1523
12004W        W27898   8.628   8.219   3.618  0.2817  0.0108  0.1158
12005W        W27899   8.196  19.032  11.402  0.1928 -0.5533  0.0369
12006W        W27900   6.792   3.310   1.994 -0.0258  0.1903  0.1814
12007W        W27901   1.360  10.642   3.044 -0.0591  0.2116  0.0984
12008W        W27902   0.256   0.384  13.058 -0.1554 -0.1408  0.0268
12009W        W27903  13.713   0.174  14.912 -0.2693  0.0492  0.2613
12010W        W27904  15.654   8.366   2.065  0.1159  0.0072 -0.2015
12011W        W27905  18.188   3.783   1.276 -0.1980 -0.3753  0.0722
12012W        W27906  15.134  18.185  11.200 -0.2273 -0.4125  0.1113
12013W        W27907   8.590  10.724   1.015  0.0476  0.0721  0.1638
12014W        W27908   4.748   3.538   0.302  0.0328 -0.2310  0.2062
12015W        W27909   6.879   4.351   2.948 -0.0014  0.2135  0.0135
12016W        W27910   8.700   2.175   3.304  0.0874  0.0753 -0.0083
12017W        W27911   4.821  12.990  10.943 -0.0032 -0.1663  0.4260
12018W        W27912  16.935  12.336   4.164 -0.1245  0.0411 -0.2174
12019W        W27913  13.614  13.428   2.266  0.2981 -0.1212  0.0332
12020W        W27914   2.035   8.522   3.448  0.0446  0.1720 -0.5215
12021W        W27915   8.130   0.696  10.743  0.0920  0.3064  0.0478
12022W        W27916  11.086  11.542   1.583 -0.2414 -0.2550  0.1570
12023W        W27917  12.203   3.243  13.352 -0.1363 -0.0777 -0.0116
12024W        W27918   6.230  12.895   4.819 -0.0649 -0.0148  0.2674
12025W        W27919  13.298  14.220   1.958 -0.0944 -0.0812  0.3326
12026W        W27920  17.047  14.301  14.520 -0.2018  0.2326  0.1709
12027W        W27921   1.019   0.663   2.562  0.0909  0.4256 -0.1122
12028W        W27922  12.632   4.111  13.665  0.0751  0.1389  0.1004
12029W        W27923   2.989   9.348   0.128  0.0171 -0.1048 -0.0938
12030W        W27924  15.312   5.650  11.915  0.1860  0.0795 -0.0476
12031W        W27925  12.242  16.876   0.429  0.0588 -0.1476 -0.0374
12032W        W27926  15.947   8.053   5.432  0.1099 -0.0502  0.1223
12033W        W27927   3.824  13.111   3.533 -0.4190  0.1576 -0.3836
12034W        W27928  11.749  18.553   1.893 -0.3253  0.0882  0.1463
12035W        W27929   0.557  18.981   5.694 -0.2002  0.3058 -0.0713
12036W        W27930   4.591  18.128   0.494  0.0986  0.2527  0.1421
12037W        W27931   9.241   7.523   2.513 -0.2046  0.0373 -0.0830
12038W        W27932   6.758   3.653   0.137  0.1417 -0.1227  0.0759
12039W        W27933  15.621  17.952   1.712  0.0939 -0.1026  0.3224
12040W        W27934  11.216  10.707  12.950 -0.1736 -0.0298  0.0166
12041W        W27935  12.794   3.597   3.616 -0.0747  0.1483  0.3068
12042W        W27936   0.334   0.107  10.390  0.0485  0.0240 -0.2983
12043W        W27937   3.259  11.100   1.322  0.0266  0.0862 -0.0235
12044W        W27938   0.783  15.873   3.111  0.0943  0.2353  0.2916
12045W        W27939   4.719  15.069   2.377  0.1707  0.2869  0.0232
12046W        W27940   9.176  16.287   3.637  0.0285  0.0921  0.0006
12047W        W27941   9.114   3.244   0.913  0.1571  0.0282  0.1613
12048W        W27942   5.320   3.317   1.146 -0.1254 -0.2128 -0.0824
12049W        W27943  18.876   0.618   1.043  0.4562 -0.2549  0.0894
12050W        W27944  17.883  13.605   2.882 -0.1412 -0.0606  0.1147
12051W        W27945   5.487   6.729  14.613  0.1816  0.1670  0.0408
12052W        W27946  15.998   8.203  13.545  0.4615 -0.1810 -0.0488
12053W        W27947   5.234   0.906   4.317 -0.0417  0.0850  0.1591
12054W        W27948  10.648  17.873  10.620 -0.2462 -0.2818  0.4429
12055W        W27949  18.309   8.490   0.142  0.0096 -0.1195  0.0920
12056W        W27950  10.861   6.287  14.993 -0.1128  0.0763 -0.1763
12057W        W27951   2.531  15.859  14.857  0.3109 -0.2012  0.4686
12058W        W27952  19.156   1.761  14.291 -0.4803  0.2150 -0.0514
12059W        W27953  15.418  10.737  14.975 -0.0144 -0.1741  0.1594
12060W        W27954   5.673   3.577   2.177  0.0737 -0.1120  0.0070
12061W        W27955   1.129   8.016   1.542 -0.3316 -0.2222 -0.3051
12062W        W27956   1.623   5.361   2.603 -0.2303 -0.2113  0.2713
12063W        W27957  13.386  11.349  13.783  0.2464  0.0370  0.2017
12064W        W27958   4.422   4.894  12.451  0.0620 -0.3889  0.0812
12065W        W27959   3.300  12.456   0.965  0.1863 -0.0180  0.0639
12066W        W27960  10.839   3.167  12.960  0.0420 -0.1273  0.1241
12067W        W27961  11.350   0.143   2.553 -0.0942 -0.0012 -0.0828
12068W        W27962  11.281   5.692  10.401 -0.1251  0.3611 -0.0911
12069W        W27963  12.084   3.732   5.503  0.3052  0.0259 -0.1352
12070W        W27964  19.095   2.045   1.827  0.2556  0.1177 -0.0651
12071W        W27965  16.119  13.530  12.456  0.4777  0.1539  0.0808
12072W        W27966  12.366   7.494   1.221  0.0264  0.0093 -0.2062
12073W        W27967   0.707  12.774  14.982 -0.1263 -0.0021  0.1887
12074W        W27968  14.904  12.921   0.640  0.2392  0.1878  0.0777
12075W        W27969   5.143   4.867   2.518  0.2996  0.0692 -0.1120
12076W        W27970   2.153  12.801  14.624 -0.4404  0.0111 -0.0899
12077W        W27971   7.611  11.889  12.214 -0.2572 -0.1419  0.0672
12078W        W27972   6.063  17.854  14.707  0.2179  0.0793 -0.0697
12079W        W27973  19.221   1.848  11.426 -0.1309  0.0462  0.0370
12080W        W27974   9.343  17.941  14.889  0.0751 -0.0094 -0.2826
12081W        W27975   6.110  16.467  14.170 -0.1965 -0.0162 -0.0313
12082W        W27976   8.114  10.951  13.521  0.3888 -0.3605  0.0023
12083W        W27977   9.117   0.079   4.971  0.2765 -0.7092  0.4788
12084W        W27978   3.881   5.602  15.008 -0.0576  0.0901 -0.1888
12085W        W27979   1.107   3.276  13.391 -0.0521  0.1648  0.2530
12086W        W27980  15.271  16.129  14.500  0.3768 -0.1078 -0.4652
12087W        W27981   1.969   9.726  14.710  0.0953 -0.2705 -0.0034
12088W        W27982  18.838   2.032   1.389 -0.1293 -0.0127 -0.2659
12089W        W27983  10.090   0.908  13.724 -0.0149  0.2349 -0.0283
12090W        W27984  14.777  16.200   2.007 -0.0803  0.0022 -0.0599
12091W        W27985  12.547  18.306   3.927  0.0698 -0.1669  0.2050
12092W        W27986   9.041   0.382   4.605  0.3394 -0.0291  0.1341
12093W        W27987   4.976   6.132  11.903 -0.0857 -0.0660 -0.1548
12094W        W27988  11.139  18.808  13.201  0.0233 -0.1887 -0.3678
12095W        W27989   7.113   4.062  10.691 -0.0982 -0.0809 -0.1279
12096W        W27990  13.463  15.911  10.353 -0.2232 -0.1966  0.1504
12097W        W27991   2.691  12.808   2.377 -0.2020  0.1814 -0.2059
12098W        W27992  13.586  17.854   0.805 -0.1230 -0.1669  0.0168
12099W        W27993   1.427   3.989   4.109 -0.0591  0.4510 -0.1564
12100W        W27994  12.737   8.190  12.259 -0.1641  0.4392 -0.0761
12101W        W27995  10.230   2.308  11.469 -0.5020  0.0639  0.0959
12102W        W27996   1.173   6.586   1.589  0.5716  0.0597  0.0182
12103W        W27997  13.712   0.079  11.069 -0.1695  0.3252 -0.4943
12104W        W27998   3.831   6.874   0.679 -0.1587  0.7083 -0.1181
12105W        W27999   7.765   6.454   1.707 -0.0966  0.5777  0.0811
12106W        W28000   3.068   6.190   4.719 -0.0352 -0.1513 -0.1732
12107W        W28001  18.793   9.886  12.097 -0.0300 -0.0784  0.2314
12108W        W28002  15.546   2.748  11.904 -0.0551 -0.0751 -0.3802
12109W        W28003  14.585   5.807  11.988  0.0505 -0.0220  0.1045
12110W        W28004   9.500   2.008   4.264 -0.1504  0.2440  0.1506
12111W        W28005   1.470  17.207  12.014  0.2685 -0.1170 -0.1573
12112W        W28006  16.167  13.610  10.293  0.5051 -0.0909  0.0530
12113W        W28007  12.454  14.416   4.144 -0.0899  0.0936  0.3736
12114W        W28008   2.047  13.537   3.633 -0.1737  0.1917 -0.1825
12115W        W28009  16.943   3.698   1.695 -0.0505  0.1125 -0.2655
12116W        W28010  11.271   6.154  10.615  0.0038  0.1842  0.0848
12117W        W28011   7.603   3.229   0.644  0.0699 -0.1037  0.2004
12118W        W28012   0.168  12.632  10.887  0.0662  0.0873  0.0149
12119W        W28013  12.643   0.986   4.414 -0.0165 -0.1155 -0.0910
12120W        W28014   1.996   6.792  14.104 -0.1968 -0.0381 -0.1382
12121W        W28015  19.192   6.929  13.480 -0.0881 -0.3138 -0.3403
12122W        W28016  13.351   4.944  10.965  0.0509 -0.4391  0.2511
12123W        W28017  17.657   5.978  11.426 -0.0996 -0.1730 -0.1386
12124W        W28018   1.680  17.229  13.087  0.0454  0.1373  0.1763
12125W        W28019   2.648  11.672  13.634 -0.4804 -0.2713  0.2685
12126W        W28020  16.599  14.831  13.742 -0.0513 -0.1036 -0.1342
12127W        W28021  10.909   8.670  15.026 -0.0309 -0.2066  0.3806
12128W        W28022   9.440  11.090  13.827  0.4657  0.3209 -0.3701
12129W        W28023   9.698  17.211  10.704  0.1829  0.1025  0.0348
12130W        W28024  18.287  13.377   2.046 -0.0799 -0.1261 -0.0727
12131W        W28025  10.829  13.253   0.928 -0.3233  0.1850  0.2047
12132W        W28026  15.025  19.041   9.271  0.2553 -0.0718  0.0911
12133W        W28027   8.932  11.861   2.178 -0.1494 -0.0509  0.0009
12134W        W28028  15.220  10.552   1.123  0.0073  0.0048  0.3106
12135W        W28029   9.421   3.641  14.314 -0.0316 -0.0447  0.1676
12136W        W28030   6.839   3.039   1.241  0.1416  0.0949  0.1658
12137W        W28031   7.143  13.272  14.984 -0.0188  0.2660 -0.0109
12138W        W28032  14.916  16.277   4.532  0.1727  0.2853  0.0483
12139W        W28033  11.110  17.464  11.252 -0.0744  0.0690 -0.0488
12140W        W28034  10.355   1.104  14.835 -0.1205 -0.0372 -0.3123
12141W        W28035   6.217  14.174  14.037  0.0723 -0.0773  0.1773
12142W        W28036   5.230  18.325   2.908  0.2075  0.0266 -0.2366
12143W        W28037   9.925  11.044  11.737 -0.0416  0.1975 -0.1293
12144W        W28038  16.190  13.817  11.002 -0.1618 -0.0951 -0.1018
12145W        W28039   1.737   0.693  12.836 -0.0208  0.0399 -0.2658
12146W        W28040  11.249   4.588   4.231 -0.1231  0.1241 -0.1245
12147W        W28041   8.403   4.865   4.524  0.2357  0.0817  0.0355
12148W        W28042  13.449  17.644  14.249 -0.2560 -0.0879  0.1171
12149W        W28043   8.578  16.532   2.196  0.0967 -0.0503  0.3270
12150W        W28044   1.377   0.655  10.666 -0.1872  0.1698 -0.1425
12151W        W28045  18.210   3.692   2.871  0.2293 -0.1809 -0.0201
12152W        W28046  11.097  15.039   2.251  0.1181 -0.0292  0.1170
12153W        W28047   0.896   3.212   3.161 -0.3633 -0.0326 -0.3349
12154W        W28048   2.057  12.277  11.904  0.1442 -0.1950  0.2573
12155W        W28049   1.768  14.865   1.486 -0.1853  0.2001  0.2023
12156W        W28050  17.974  17.169   2.477  0.2845  0.1355 -0.0460
12157W        W28051  12.867   6.503  14.967 -0.0583  0.2467  0.1132
12158W        W28052   4.370  14.913  14.844 -0.2234  0.0623  0.1282
12159W        W28053   8.780  19.067  12.035  0.2963  0.0619  0.1115
12160W        W28054   6.547   8.269  10.153 -0.0251  0.0200 -0.3813
12161W        W28055  17.627  10.015  12.091  0.1495 -0.0867 -0.0352
12162W        W28056   7.129   5.673   2.631 -0.0595  0.2063 -0.3144
12163W        W28057   2.340   9.499  10.153 -0.0991  0.1653 -0.1198
12164W        W28058  14.232  16.695  10.074 -0.2817 -0.4542  0.1148
12165W        W28059  12.147  18.547   4.224  0.0486  0.2557 -0.2722
12166W        W28060  17.577   9.919  13.609  0.1994 -0.3140 -0.0259
12167W        W28061   5.242   8.631   4.628 -0.3635 -0.0455 -0.0841
12168W        W28062   5.983  18.116   5.060  0.1676 -0.1674  0.0095
12169W        W28063   5.353   5.395   5.980 -0.0778  0.0806  0.0399
12170W        W28064   4.549  13.649   0.990  0.0900 -0.3375 -0.3849
12171W        W28065   9.039   5.080   0.686  0.1837  0.0458  0.0284
12172W        W28066   4.545   0.797  12.903 -0.4738 -0.0129  0.0611
12173W        W28067  18.188   5.271   4.007 -0.0297 -0.1868 -0.0925
12174W        W28068   0.826  15.892   3.576  0.0033  0.1518 -0.3239
12175W        W28069  10.062  10.678  13.781  0.0708 -0.2947  0.0819
12176W        W28070  13.241  17.682  10.514 -0.2060 -0.1567  0.0895
12177W        W28071  17.812  18.102  10.197  0.0276 -0.2649  0.2165
12178W        W28072   3.405  11.162   3.234  0.1700 -0.1750  0.1829
12179W        W28073  13.416   7.070   0.516 -0.2253 -0.0894 -0.0959
12180W        W28074   2.944   0.304   4.630 -0.0680  0.0870 -0.0223
12181W        W28075   1.989  11.689  12.897  0.3674 -0.1139  0.0929
12182W        W28076   0.242  14.377   5.051  0.0220 -0.4415 -0.0623
12183W        W28077   0.051  13.367   1.581 -0.6380 -0.4194  0.0510
12184W        W28078   0.279  16.456   0.222 -0.0510  0.0147 -0.0996
12185W        W28079  15.533   2.450   1.958  0.3161  0.1317  0.2727
12186W        W28080  12.141   4.326   2.543 -0.2850  0.1010  0.2690
12187W        W28081   5.698   4.876   2.648 -0.2201 -0.0286  0.0021
12188W        W28082   1.255  12.947   3.638  0.0830 -0.4579  0.5783
12189W        W28083  16.935  17.791   1.847  0.0518  0.1885 -0.2819
12190W        W28084   5.358  10.002  14.236  0.4927  0.1461 -0.0169
12191W        W28085   6.535   4.590  12.704  0.4808  0.2463  0.2911
12192W        W28086   1.789  17.229   1.303 -0.0980  0.4755  0.0927
12193W        W28087  19.169   5.849  11.610 -0.2859  0.2152 -0.1702
12194W        W28088   1.051  12.098  10.495 -0.0385  0.0446  0.2428
12195W        W28089  16.060  16.855  12.794 -0.0086 -0.0475  0.0254
12196W        W28090   7.703   1.011   1.752 -0.1875 -0.1528 -0.0879
12197W        W28091  10.633  16.105   3.047 -0.3530 -0.1571  0.0941
12198W        W28092   7.882   1.771  12.219  0.1947 -0.0117  0.1221
12199W        W28093  13.617   8.282   2.277 -0.0975  0.0035 -0.0315
12200W        W28094   1.462  18.246  10.873  0.0417 -0.0663  0.0929
12201W        W28095  15.584   5.117   2.471 -0.0641  0.0892 -0.0583
12202W        W28096  10.099  16.683   1.459  0.0642  0.0395 -0.4241
12203W        W28097  11.764   5.010  11.954  0.3271  0.0537 -0.2028
12204W        W28098  17.229  16.220  12.805 -0.3610  0.2485 -0.2427
12205W        W28099   1.196  17.878  15.080 -0.4511 -0.0736  0.3536
12206W        W28100   2.515   8.288  13.827  0.2419 -0.0470  0.0162
12207W        W28101   4.460  10.664   1.966 -0.1384 -0.0280 -0.2798
12208W        W28102  15.955  13.656   2.792 -0.0571 -0.0947 -0.0773
12209W        W28103   0.493   6.876   2.968  0.3675 -0.1774 -0.0429
12210W        W28104   2.591   2.120  13.070  0.0803  0.0226  0.0531
12211W        W28105   4.755   8.696  14.888 -0.2947  0.0864  0.4722
12212W        W28106   5.624   6.976   1.776 -0.1074 -0.1483 -0.1527
12213W        W28107  14.687  16.629   4.926  0.0171  0.1465  0.0258
12214W        W28108   9.755  10.040   4.572 -0.0435  0.1131  0.0519
12215W        W28109   3.315   7.550  14.670  0.2346  0.1146  0.0579
12216W        W28110  17.975  12.215  10.365 -0.0880 -0.1993  0.0924
12217W        W28111  13.362  13.003  13.419 -0.2227  0.2007  0.0417
12218W        W28112  13.087  17.132   0.105  0.0310  0.1871 -0.0858
12219W        W28113  18.517  16.170   3.196 -0.2108  0.1758  0.1407
12220W        W28114   7.652   7.624  14.386 -0.2498  0.0510  0.0134
12221W        W28115  18.618  11.101   3.619  0.1447 -0.2819 -0.3944
12222W        W28116  15.637   8.756   0.367  0.2415  0.2611 -0.2859
12223W        W28117  10.508   6.406  10.172 -0.0677  0.2409  0.1960
12224W        W28118  15.230   9.591  10.877 -0.0358 -0.3676  0.2167
12225W        W28119   0.879  14.034   2.000 -0.4943 -0.1327  0.0823
12226W        W28120  15.716  18.364  13.399  0.0010  0.0262  0.3836
12227W        W28121  17.459  15.778   4.145 -0.1772  0.3028 -0.3643
12228W        W28122   1.346   5.448   1.072  0.1610 -0.1342  0.2818
12229W        W28123   8.655   7.759  11.786 -0.4390 -0.0813 -0.1386
12230W        W28124   0.195  11.305   1.266  0.1459  0.2714 -0.0910
12231W        W28125  17.175   4.302  14.600 -0.4092 -0.6575 -0.1950
12232W        W28126  18.963   4.011   4.587 -0.2017  0.2593  0.1395
12233W        W28127   3.433   3.478  14.043 -0.0918  0.2096 -0.1082
12234W        W28128   5.499   8.766   1.537 -0.0407 -0.2097 -0.2290
12235W        W28129  11.805  10.244  10.360  0.0572 -0.1533  0.1567
12236W        W28130  13.712  15.178   4.559 -0.2412  0.1267  0.1011
12237W        W28131  13.711   1.501   3.834 -0.0444 -0.1349  0.0297
12238W        W28132  10.113   6.113  14.486  0.1699 -0.0979  0.2215
12239W        W28133  12.179   9.047   1.642 -0.2548 -0.0336  0.0253
12240W        W28134   6.514   6.001   2.088  0.0885  0.0894 -0.0294
12241W        W28135  14.297  17.973   2.234  0.0359 -0.3013 -0.2421
12242W        W28136  16.388  10.216  14.897  0.1634 -0.0410  0.0129
12243W        W28137   9.566  13.488  11.231 -0.3189  0.0147  0.1877
12244W        W28138  10.379   5.415  11.296 -0.4947 -0.1087  0.0111
12245W        W28139  13.805  19.093  13.443  0.3267 -0.0008  0.0949
12246W        W28140   7.618   5.419   4.757 -0.0025 -0.1834 -0.0025
12247W        W28141   7.912  16.039  13.940  0.0903  0.0827 -0.1147
12248W        W28142  18.725  12.070   0.458  0.2832 -0.3129 -0.3513
12249W        W28143   2.572  12.419   2.107  0.1331 -0.1613 -0.3109
12250W        W28144  16.449  11.179  14.054 -0.4191  0.1178  0.1692
12251W        W28145  13.294   2.307  11.813  0.1793 -0.2112  0.0470
12252W        W28146   1.162   6.723   4.255 -0.1811  0.1857  0.1382
12253W        W28147  11.202   3.576  10.105 -0.1626  0.0989  0.0762
12254W        W28148   6.107  12.785   3.920 -0.0165 -0.5611 -0.3594
12255W        W28149  13.358  11.028   2.949 -0.1850 -0.1618  0.2337
12256W        W28150  10.075  14.196   2.847 -0.4333 -0.2050  0.1554
12257W        W28151   7.169  18.371   0.291  0.0450  0.1950 -0.0606
12258W        W28152  11.913   6.463  11.756 -0.3302  0.1093  0.0201
12259W        W28153   2.561  18.279  14.778 -0.3009  0.0017 -0.2132
12260W        W28154   4.814  14.246  10.487 -0.1737 -0.2421  0.0219
12261W        W28155   4.412   9.020   3.079 -0.1550  0.2132  0.2683
12262W        W28156  10.692   4.954   1.581 -0.2913  0.2643 -0.4304
12263W        W28157   3.235  12.029  12.124  0.0672  0.1235 -0.0379
12264W        W28158  13.214  18.764  12.636 -0.1496  0.1986  0.1505
12265W        W28159  11.684   0.833  12.875  0.0217 -0.1276 -0.0142
12266W        W28160   1.097  16.160  12.296  0.4268  0.1094  0.5085
12267W        W28161  10.912  13.913  15.000 -0.1384 -0.0966 -0.3344
12268W        W28162   4.484   6.741   4.641 -0.1301 -0.1823  0.0050
12269W        W28163  11.149  16.185  13.367 -0.3494 -0.0730  0.0784
12270W        W28164   6.157   8.634  13.303  0.0368 -0.0678 -0.3869
12271W        W28165   9.553   1.406   4.953 -0.1107  0.3227 -0.2233
12272W        W28166   9.751   5.282  12.833 -0.0601  0.2001  0.2619
12273W        W28167  14.987  16.397   1.520 -0.0334  0.3343 -0.0245
12274W        W28168   5.737  16.080  13.341  0.0040 -0.1115 -0.0827
12275W        W28169  10.264   0.712   5.014 -0.0432  0.0664  0.2606
12276W        W28170  15.712   5.520  11.620  0.0860 -0.0856  0.1359
12277W        W28171  15.938   0.675  12.550  0.2005 -0.0330  0.0372
12278W        W28172  15.079   2.542  11.023 -0.2296  0.0971 -0.0795
12279W        W28173   4.780  17.784   1.829  0.1267 -0.1038  0.0410
12280W        W28174   1.890   8.721  10.749 -0.3613 -0.1366 -0.0923
12281W        W28175   5.569   2.724  13.085 -0.3124  0.0269  0.0545
12282W        W28176  13.768  13.039   4.033 -0.1306  0.1335 -0.1354
12283W        W28177   3.219   1.281   3.203  0.1645 -0.1601 -0.2604
12284W        W28178   4.799   6.888  13.500  0.2953 -0.0110 -0.0721
12285W        W28179   0.870  14.301   1.518 -0.0365 -0.1617  0.1551
12286W        W28180  15.109   1.174  11.617 -0.1164 -0.1098  0.0004
12287W        W28181   1.470   5.179   5.220 -0.2591 -0.1346 -0.0832
12288W        W28182   4.450  12.352   1.066 -0.0934  0.1992 -0.3987
12289W        W28183  18.446   0.972   4.403  0.1806 -0.2071 -0.1518
12290W        W28184  12.194  14.411   9.916  0.0817 -0.1373  0.4322
12291W        W28185   3.014   0.603  14.313 -0.1882 -0.1106  0.1145
12292W        W28186  12.253   1.498   5.026 -0.0897  0.3678  0.2134
12293W        W28187   9.093   3.043  13.556 -0.1349  0.2720  0.2899
12294W        W28188   6.517  12.691  11.688 -0.3458 -0.1728  0.2694
12295W        W28189   2.396   7.824  13.834 -0.1268 -0.1520  0.4612
12296W        W28190  12.014   5.571   5.104 -0.1700 -0.2046 -0.4073
12297W        W28191   5.870  10.286   4.166  0.1491  0.2751 -0.1213
12298W        W28192   4.287  11.787  14.204  0.0951  0.4885  0.0350
12299W        W28193   0.729  15.431  11.349  0.0364  0.1996 -0.0782
12300W        W28194  17.624   5.544  14.754  0.0944 -0.1395 -0.0336
12301W        W28195   2.923  19.096   5.868  0.1164  0.0144 -0.3927
12302W        W28196  12.586   4.785   9.949 -0.5039  0.1077  0.3275
12303W        W28197   3.557  13.394  13.754 -0.2768 -0.1639 -0.0486
12304W        W28198  17.171  16.895  11.598 -0.1618 -0.2124  0.2151
12305W        W28199   8.743   8.174  13.208 -0.2992 -0.2822  0.3917
12306W        W28200  18.603  19.018   3.581 -0.1829  0.1411 -0.0709
12307W        W28201  13.856  14.944  13.267  0.0385 -0.2025 -0.3691
12308W        W28202   0.049  14.244   0.729 -0.1490  0.1529 -0.0784
12309W        W28203  14.035   8.269  15.024  0.1451 -0.0939 -0.2160
12310W        W28204  15.985   5.084   0.636  0.1455  0.2858  0.3318
12311W        W28205  11.191  18.802  14.634 -0.2293  0.2182  0.2570
12312W        W28206  16.722  12.318  10.453 -0.1474  0.0909 -0.1242
12313W        W28207   5.866  12.346   2.943 -0.1204  0.1281 -0.1314
12314W        W28208   4.994  13.154  14.435  0.1007 -0.1569  0.0931
12315W        W28209  14.794  14.416  13.251 -0.2724 -0.0588  0.0923
12316W        W28210   4.289  14.704  11.966 -0.3214  0.0505  0.1620
12317W        W28211   4.471  17.502  13.651 -0.0300  0.0744 -0.0747
12318W        W28212   2.525   1.595   1.976 -0.0537 -0.1231  0.2720
12319W        W28213   6.381  14.163   1.944  0.0128 -0.3528  0.1443
12320W        W28214  14.580  10.008  11.530  0.0187  0.1833  0.0170
12321W        W28215   9.453  13.363   4.016 -0.1063 -0.0738 -0.0550
12322W        W28216   8.559   1.778  10.744  0.2951 -0.0726 -0.1983
12323W        W28217   4.462   6.059  12.220  0.0145  0.0876  0.1959
12324W        W28218   9.322   7.772  10.465 -0.2633  0.3013  0.2164
12325W        W28219  10.429  13.750   4.475 -0.1547 -0.3552 -0.0872
12326W        W28220   0.006   8.762   2.901 -0.2122  0.2861  0.2203
12327W        W28221   8.111   7.022   3.782  0.1465 -0.1357  0.0247
12328W        W28222   7.212   5.312  14.753  0.0625  0.1960 -0.0091
12329W        W28223  13.259   7.936   2.192  0.2918  0.4189 -0.0300
12330W        W28224   0.593  13.365   0.206 -0.2725 -0.2048 -0.0603
12331W        W28225   0.116   1.380  12.236 -0.0776  0.2243 -0.0677
12332W        W28226  16.297   9.854  14.381  0.0820 -0.0556 -0.0312
12333W        W28227  13.763   7.411   1.504  0.0592 -0.0053  0.1608
12334W        W28228   1.337  13.673  10.222 -0.2246 -0.1876 -0.1228
12335W        W28229  18.603   4.379  12.639 -0.3773  0.0653 -0.2163
12336W        W28230   0.203  17.729   3.710  0.1696  0.0656  0.0006
12337W        W28231   6.701   5.955   4.932  0.0042  0.3791 -0.1761
12338W        W28232   3.480   6.402  12.593  0.1842  0.0207  0.3145
12339W        W28233   1.271   1.932   1.933  0.0802 -0.0430  0.1777
12340W        W28234  17.073   6.866   4.469 -0.3455 -0.0746 -0.1600
12341W        W28235  12.648   8.470  11.363 -0.1424 -0.0574  0.0943
12342W        W28236   1.400   5.557   6.497 -0.5270 -0.1263  0.1147
12343W        W28237  10.016  13.349   1.474 -0.2374  0.0232  0.0104
12344W        W28238  12.443  10.536  10.033  0.2257  0.1512  0.0305
12345W        W28239  13.513  12.631  12.341 -0.0306  0.0270 -0.2924
12346W        W28240  10.781   6.779   9.890  0.2880  0.0547 -0.0395
12347W        W28241   6.352  11.754  14.103  0.2191  0.1520  0.2612
12348W        W28242  17.673   3.391   3.428  0.2188  0.2284 -0.5447
12349W        W28243   5.079  17.387  13.864 -0.1110 -0.0084 -0.2300
12350W        W28244   9.917   5.935   4.555  0.0125  0.1251  0.2159
12351W        W28245   2.265   2.489   1.188  0.0112  0.2578 -0.2241
12352W        W28246   6.458   3.943   0.740  0.1944 -0.0728 -0.1310
12353W        W28247  16.312  18.010  14.495  0.0131 -0.1321  0.0461
12354W        W28248  14.795   7.496  15.096 -0.1428  0.2178  0.1634
12355W        W28249   9.615   8.487   4.196 -0.1060 -0.4189  0.0127
12356W        W28250   9.368  15.272   2.542 -0.2338 -0.1446  0.0410
12357W        W28251   4.737  15.838   0.628 -0.0069 -0.0010 -0.2878
12358W        W28252   3.451  13.140   1.660 -0.4126  0.0462  0.2281
12359W        W28253  14.018  11.329   1.491  0.1863 -0.0207 -0.2419
12360W        W28254   6.924   5.231   5.016  0.1777 -0.0679  0.0373
12361W        W28255  13.536  19.163  14.468  0.0971 -0.2371 -0.2709
12362W        W28256   0.510  16.796   2.722 -0.5047 -0.0061 -0.3659
12363W        W28257   8.099   8.689   1.078 -0.1950 -0.0027  0.0576
12364W        W28258   4.146   6.363   2.591 -0.0168  0.1992  0.2006
12365W        W28259  19.136   5.992   0.015  0.0159 -0.1366  0.2496
12366W        W28260   3.531  12.635   5.468 -0.0333  0.2246  0.4877
12367W        W28261   2.686  12.635  14.524 -0.1826  0.2450 -0.0810
12368W        W28262  18.929  16.491   2.914  0.1780 -0.1380  0.1839
12369W        W28263  17.154   1.398   3.082  0.1303  0.0936  0.0359
12370W        W28264   4.169   8.838   2.239 -0.0003 -0.1421  0.0995
12371W        W28265   7.821   8.235   4.814  0.2775  0.1953  0.2523
12372W        W28266   7.702  13.788   0.043 -0.1828  0.0579  0.0625
12373W        W28267   5.992   6.588  13.942 -0.1287  0.0894  0.0528
12374W        W28268   8.090  17.571   1.574  0.1476 -0.0789 -0.1438
12375W        W28269   5.404  12.444  11.792 -0.2838  0.0736 -0.0459
12376W        W28270  17.975  18.532   1.055 -0.1734 -0.0808 -0.0371
12377W        W28271   8.900  17.326   4.137 -0.2960 -0.2325 -0.0280
12378W        W28272   9.887  16.954   9.896  0.0967  0.3010 -0.0565
12379W        W28273   0.884   3.732   5.328  0.2589 -0.3222  0.2411
12380W        W28274   8.354   1.776   3.293  0.3729 -0.0005  0.4137
12381W        W28275   1.450  10.794   2.466  0.0458  0.0751 -0.1523
12382W        W28276   0.395   4.790  11.538  0.0018 -0.1525 -0.0211
12383W        W28277   0.526   8.789   9.651  0.4524 -0.1202  0.1975
12384W        W28278   7.388  19.039   1.625 -0.2051 -0.2500 -0.0318
12385W        W28279   2.478  16.924   2.113 -0.0522  0.2304 -0.3154
12386W        W28280  12.526   2.485  10.694  0.0437 -0.0100  0.2581
12387W        W28281  12.072  14.933  11.883 -0.1213 -0.2180  0.1221
12388W        W28282   5.092   2.020  12.877  0.1564 -0.1297  0.0241
12389W        W28283   1.736   6.522  11.982  0.0904 -0.2013  0.1032
12390W        W28284  13.525  10.689  14.527  0.0258 -0.2277  0.0929
12391W        W28285   0.500   0.955  10.844 -0.1974  0.0388 -0.3256
12392W        W28286   1.245  18.746  13.336  0.1393 -0.4469 -0.2056
12393W        W28287  18.984   5.170  10.590  0.1115 -0.1078 -0.3149
12394W        W28288   1.990  11.881   4.012 -0.0750  0.3798 -0.0696
12395W        W28289  19.195   3.125  14.205  0.0425  0.3138  0.2675
12396W        W28290  16.614  10.645   0.135  0.4252 -0.0514 -0.2468
12397W        W28291   1.215  15.679  15.059 -0.1402 -0.1457 -0.0654
12398W        W28292  15.640  13.361   1.062  0.0086 -0.1074  0.1569
12399W        W28293   8.091   0.620   2.741  0.0717 -0.2410 -0.1951
12400W        W28294  18.319   7.679  10.803 -0.0054  0.0140 -0.4907
12401W        W28295  13.934   0.371   1.497  0.0490 -0.3226 -0.1577
12402W        W28296   4.157   8.445   2.567  0.1951 -0.2819  0.0327
12403W        W28297  19.101  16.177   2.533 -0.1288 -0.3692  0.2300
12404W        W28298  13.888  15.072  12.112  0.2569  0.1085  0.0119
12405W        W28299  18.561  10.016  11.626 -0.1306 -0.0102 -0.3445
12406W        W28300   3.162  12.658  13.859  0.2262 -0.0082  0.0171
12407W        W28301   0.902  17.470  15.044  0.0227 -0.1826 -0.0510
12408W        W28302  17.973  17.531  13.614  0.4946 -0.2387 -0.3419
12409W        W28303  10.423  13.120  13.303  0.0186  0.0913  0.3227
12410W        W28304  10.788   7.086  13.674 -0.0808 -0.3479  0.3264
12411W        W28305   2.434  12.149  13.644  0.0921 -0.1761 -0.2221
12412W        W28306   1.950  17.953  13.722  0.0961  0.2099  0.1639
12413W        W28307   5.583   1.400   0.090 -0.1907 -0.1780 -0.0247
12414W        W28308  12.037  18.394   0.700  0.1944  0.1825 -0.0971
12415W        W28309   1.457   0.628   5.030  0.1638  0.2278 -0.1639
12416W        W28310  19.109   8.059  11.233  0.2861  0.1740  0.0945
12417W        W28311  13.655   6.441   2.304  0.1150 -0.0439  0.4110
12418W        W28312  13.359   5.979  12.823 -0.0027  0.0618 -0.2575
12419W        W28313  12.004  12.289  13.508 -0.0837 -0.0853  0.2067
12420W        W28314  18.773   1.240  12.164  0.1822  0.0865 -0.0441
12421W        W28315   8.439  15.830   1.070 -0.1411 -0.0480  0.0947
12422W        W28316   1.506  13.554  13.281  0.1389  0.2109  0.0447
12423W        W28317  13.205  13.933  14.512  0.0677  0.1113  0.3234
12424W        W28318   2.913  15.601   4.459 -0.0107  0.3342 -0.0837
12425W        W28319   5.755  12.663  12.055  0.2418  0.0406  0.1453
12426W        W28320   1.008  10.673   1.679  0.1581  0.2226  0.2562
12427W        W28321  13.783   3.798   5.172 -0.1799 -0.0578 -0.0031
12428W        W28322   7.437   7.389   3.723 -0.0702 -0.1592  0.1312
12429W        W28323  12.282   0.413   1.364 -0.0417 -0.0079 -0.1628
12430W        W28324   9.878  14.552  11.394  0.3989 -0.0527 -0.0064
12431W        W28325   2.487   4.841  14.062 -0.0291  0.3265  0.0092
12432W        W28326   3.030   1.391   1.433 -0.0536 -0.2148 -0.0469
12433W        W28327  14.486  14.418  14.232 -0.2143 -0.1031 -0.0735
12434W        W28328  11.239   8.387  12.696  0.2271 -0.0283 -0.1390
12435W        W28329   3.038  11.723  13.271 -0.1314 -0.0395  0.3236
12436W        W28330  12.030  16.870  11.851 -0.0997  0.0638 -0.0102
12437W        W28331   5.440  12.493   1.317 -0.0154 -0.1493 -0.0303
12438W        W28332   7.392   3.835   4.261 -0.1827  0.2521 -0.2577
12439W        W28333  18.898  18.008   4.907  0.0954 -0.0500  0.2722
12440W        W28334  19.121   0.394   1.748 -0.1417 -0.0762  0.2255
12441W        W28335  16.137   0.128   1.566 -0.0228 -0.3223 -0.0539
12442W        W28336   7.580  18.485  10.299  0.4752  0.1181 -0.2631
12443W        W28337   7.558   1.638   4.508 -0.2208  0.0923 -0.0296
12444W        W28338  10.402   1.898   4.617 -0.0777  0.1677  0.1202
12445W        W28339   2.319   1.997   3.395 -0.0909 -0.1026 -0.2525
12446W        W28340   0.591  13.675  13.510  0.0799  0.2189 -0.3702
12447W        W28341  18.887   3.187  12.254  0.2436  0.0533 -0.2599
12448W        W28342  10.514   3.947  12.456 -0.2164 -0.1903 -0.0707
12449W        W28343   8.342  13.040  12.726 -0.0664 -0.0773  0.0425
12450W        W28344  15.171  11.210  11.334  0.0671  0.2554  0.0636
12451W        W28345   8.511  10.038  11.481 -0.0744  0.0846  0.4811
12452W        W28346  12.380   4.380   1.712  0.1214 -0.2563  0.1209
12453W        W28347   7.383   1.048   4.656  0.0002 -0.5010  0.1888
12454W        W28348  13.758   8.651  13.640  0.0914 -0.0033 -0.0793
12455W        W28349   2.190  17.474  13.412  0.0088 -0.1843  0.1448
12456W        W28350  13.371   8.807   3.358  0.0984  0.0407 -0.0923
12457W        W28351  19.195  11.784   0.501 -0.6503 -0.1661 -0.0612
12458W        W28352  15.196  14.976  11.744 -0.2008 -0.2178  0.0333
12459W        W28353  17.387  18.723   3.210 -0.0390  0.2571  0.0734
12460W        W28354  13.853   8.330   3.733  0.2795  0.1868 -0.1189
12461W        W28355  13.513  14.058  12.076  0.1874  0.4212 -0.0840
12462W        W28356   9.061  15.498  11.368  0.2018  0.0315  0.1589
12463W        W28357  18.231  16.095  14.351 -0.0644 -0.2162  0.2405
12464W        W28358  10.344   6.350  11.144  0.2412  0.1655 -0.1099
12465W        W28359  10.286   1.517   0.452 -0.1522 -0.4059  0.1367
12466W        W28360  12.538  13.791   2.463 -0.0637  0.1415  0.1492
12467W        W28361   1.050   3.501  14.102 -0.1888 -0.3507 -0.1489
12468W        W28362   2.924  17.442  13.171  0.0358  0.0143  0.0273
12469W        W28363   9.142   8.527   2.181  0.2503  0.1731  0.0349
12470W        W28364  14.679   9.509  11.696  0.0711 -0.1786 -0.3279
12471W        W28365   2.253   2.664   4.258 -0.0767  0.1396  0.0745
12472W        W28366   7.466   4.386  12.925  0.2107 -0.2503 -0.3958
12473W        W28367   0.901   6.324  11.419 -0.2551 -0.0465  0.2098
12474W        W28368   6.805   3.718   3.588  0.1162  0.2069  0.4157
12475W        W28369  18.427   7.157   6.421 -0.2265  0.0956  0.0824
12476W        W28370   9.701   2.407   3.304  0.2179  0.1964  0.1410
12477W        W28371  16.624  16.517  13.531 -0.5533 -0.3242 -0.3094
12478W        W28372   2.307   7.614   5.356 -0.1360  0.0387 -0.0459
12479W        W28373  18.327  12.958   9.722 -0.0612  0.2270  0.3367
12480W        W28374   5.167  15.190   1.222  0.2738  0.1333 -0.0757
12481W        W28375  16.586   4.267   0.362  0.2973 -0.2575  0.1104
12482W        W28376   8.396  17.909   2.645  0.2945  0.0193 -0.3218
12483W        W28377   2.768   8.928   4.980 -0.1159 -0.5087  0.4343
12484W        W28378   7.087  15.599  11.222 -0.4437 -0.1209 -0.1468
12485W        W28379  18.385  11.601   3.696  0.0989  0.1751 -0.3611
12486W        W28380   7.491   5.809   4.432 -0.0341 -0.3096 -0.3573
12487W        W28381   7.238  14.509   2.196  0.4430 -0.2031  0.0692
12488W        W28382  10.656   4.899  13.702 -0.2359  0.1750  0.3468
12489W        W28383  15.070   4.284   2.895 -0.0902 -0.1466 -0.1802
12490W        W28384   6.185  17.825   5.384 -0.1884  0.1930  0.1479
12491W        W28385   7.293   8.260  13.631  0.1396  0.0613  0.0128
12492W        W28386  12.295   6.993   1.276  0.0398 -0.0508 -0.0337
12493W        W28387  18.776  18.940  11.927 -0.2306  0.0380 -0.1061
12494W        W28388  16.389  12.225  11.338  0.0019 -0.4182 -0.1395
12495W        W28389   1.498  16.181  12.601 -0.1640  0.1983 -0.2688
12496W        W28390   0.125   1.710   4.294 -0.0905  0.0044 -0.2072
12497W        W28391  13.432  12.119   1.425 -0.0274  0.2941 -0.4386
12498W        W28392  16.447  17.411   3.348 -0.2071 -0.1070 -0.0337
12499W        W28393  14.022   6.213  14.603 -0.1450  0.0940  0.3038
12500W        W28394   0.136  10.248   2.747  0.0295 -0.0196 -0.1271
12501W        W28395   4.161  12.545  11.619  0.0690  0.1478  0.0003
12502W        W28396  13.332   1.128   0.199  0.2539  0.0855  0.3088
12503W        W28397  11.353  14.024   3.153 -0.2482 -0.0859 -0.0174
12504W        W28398   8.228  15.273   4.095  0.0315  0.0975  0.2681
12505W        W28399  10.891  10.296   5.506  0.1257  0.2961 -0.1897
12506W        W28400   3.763  13.245   4.602  0.4461  0.2145 -0.4703
12507W        W28401  14.472  13.523   5.111 -0.0520  0.1859 -0.0608
12508W        W28402   7.054  16.688  11.385 -0.0993  0.1374  0.0297
12509W        W28403   6.400  13.263  12.535  0.0510  0.2098  0.1692
12510W        W28404  14.461  14.754   3.012  0.4895 -0.2537  0.4998
12511W        W28405  10.795  18.429   4.548 -0.2179  0.0108  0.1990
12512W        W28406   5.958   8.480  12.845  0.2141  0.4242 -0.0375
12513W        W28407   4.266   9.844   3.046  0.2511 -0.1372 -0.2279
12514W        W28408   3.621   7.195   2.108 -0.1200  0.1370  0.1608
12515W        W28409  16.230   8.933   1.141 -0.1431  0.2992 -0.0908
12516W        W28410   5.025  16.908   3.400  0.1110  0.0299 -0.1025
12517W        W28411  12.449  17.285  12.599  0.1427  0.1482  0.1132
12518W        W28412  13.954   1.938  11.037  0.3253  0.1249  0.1282
12519W        W28413   1.214   5.414  13.790 -0.1903 -0.2949  0.1956
12520W        W28414  13.878   1.324  14.137  0.1883 -0.0064  0.0522
12521W        W28415   8.934   9.569   0.759  0.0774  0.2608 -0.0717
12522W        W28416   4.657  18.806   3.483 -0.4749  0.0426 -0.0841
12523W        W28417   5.002   9.364  11.306 -0.1340  0.1630 -0.2485
12524W        W28418   7.839   9.716  12.783 -0.1730  0.0672 -0.2602
12525W        W28419   8.232   0.714   3.231  0.1118  0.0556  0.0932
12526W        W28420  13.970   2.559  10.319 -0.1625  0.0959 -0.1743
12527W        W28421   4.862  12.228   3.740  0.2039  0.0889  0.2092
12528W        W28422   0.906  10.857   5.048  0.1651  0.1317 -0.0606
12529W        W28423  12.511   0.129  13.260  0.0255 -0.0993 -0.2502
12530W        W28424   1.242  13.450   1.472  0.3745  0.0273 -0.1563
12531W        W28425  18.212   5.591  14.848  0.1038 -0.0325  0.2025
12532W        W28426  14.167   7.340   0.892  0.2800  0.0665 -0.2135
12533W        W28427   9.997  16.009   2.180 -0.1229 -0.1226  0.0753
12534W        W28428  12.630   2.723   4.768  0.0380  0.1426 -0.0672
12535W        W28429   3.912   9.756   4.930 -0.2951 -0.0402 -0.1367
12536W        W28430  12.818  11.644  13.782 -0.0034 -0.1863  0.1590
12537W        W28431   5.520  13.923   0.808  0.2500 -0.2735  0.2354
12538W        W28432   3.985  12.098  11.508 -0.4111  0.2669 -0.1033
12539W        W28433   6.485   4.670   0.815  0.0539 -0.0353  0.0101
12540W        W28434  14.180   6.654  14.382  0.2142 -0.1012 -0.0423
12541W        W28435  10.303   5.162   4.106 -0.1653 -0.0368 -0.2419
12542W        W28436  11.604  12.383  10.842 -0.1373 -0.1142 -0.2632
12543W        W28437  11.156  13.598  10.368 -0.1737  0.0437 -0.0013
12544W        W28438  16.451   1.533   1.859 -0.1363  0.1424  0.2097
12545W        W28439   4.415  12.796   0.005 -0.3431 -0.0671 -0.0171
12546W        W28440  15.306   3.215  12.158 -0.0960 -0.3708  0.0437
12547W        W28441   2.630   3.962  13.916  0.0570 -0.1690  0.1080
12548W        W28442   4.742  10.304  14.741  0.2972 -0.1767  0.3249
12549W        W28443   2.891  12.974   5.438  0.1370  0.1383 -0.0823
12550W        W28444  14.341   4.946  10.883  0.0819 -0.0503  0.2091
12551W        W28445  13.837  10.926   0.491  0.2750  0.0728 -0.0842
12552W        W28446   3.421   7.630  13.967  0.1456  0.1409  0.3225
12553W        W28447  12.453   4.325  13.046  0.2296  0.0691  0.1127
12554W        W28448  15.660  13.701   3.984  0.1073 -0.2276 -0.0294
12555W        W28449   5.475   4.516   1.047 -0.1156  0.0705 -0.0624
12556W        W28450  10.084   3.400  10.567  0.1659  0.0777 -0.0867
12557W        W28451   6.580   8.019   5.637  0.0823 -0.0434 -0.1515
12558W        W28452  10.298  15.786   1.347 -0.0067 -0.4657  0.2879
12559W        W28453   6.618  16.403   4.012 -0.1715  0.0777  0.0677
12560W        W28454  12.836  15.948  13.779 -0.0871  0.0135  0.2477
12561W        W28455   6.840   2.963   2.997 -0.1885 -0.1271 -0.1504
12562W        W28456  14.213   9.695  11.456  0.1219  0.1643  0.4710
12563W        W28457   9.823   4.262   2.914 -0.0830  0.2454  0.0672
12564W        W28458  15.302   9.176   3.612  0.1585 -0.1180 -0.1837
12565W        W28459   7.732   3.275  12.956 -0.0718 -0.0069 -0.0136
12566W        W28460  12.227  18.596   1.680 -0.1748 -0.1192  0.2746
12567W        W28461  10.803   0.441  13.207  0.1365 -0.1430 -0.0250
12568W        W28462  15.305   5.868  12.893  0.0169  0.0681 -0.1092
12569W        W28463   1.183   7.820  13.568 -0.0639  0.2870 -0.0834
12570W        W28464   2.583   9.594  12.752  0.0926  0.3214  0.1122
12571W        W28465   8.598  17.000   4.529 -0.0105 -0.2353  0.1848
12572W        W28466  18.065   9.293   5.110  0.1479 -0.1299 -0.0705
12573W        W28467   3.170  18.888  12.313 -0.0868 -0.0629 -0.1324
12574W        W28468   4.843   4.834  12.116 -0.1514 -0.0837 -0.3431
12575W        W28469  15.992   9.428  10.992  0.2074 -0.1777 -0.0912
12576W        W28470   3.873  16.963   0.241 -0.0676  0.0075  0.1051
12577W        W28471  14.777   9.376   3.771  0.0434  0.1732 -0.1901
12578W        W28472  12.100  10.655   0.383 -0.1425 -0.2353  0.1774
12579W        W28473   1.675  16.656  12.811  0.1490  0.0971 -0.1233
12580W        W28474   2.517   1.037  10.695 -0.0589 -0.1462  0.3124
12581W        W28475   4.667  13.503  11.850 -0.0376  0.1450 -0.0611
12582W        W28476   8.443   9.497   9.512  0.1796 -0.1401 -0.2156
12583W        W28477  13.734   5.391   5.271  0.0201 -0.3220 -0.5269
12584W        W28478  17.634   6.824  14.631  0.1091 -0.4118  0.1620
12585W        W28479  14.104  18.265  14.739  0.0914 -0.0612  0.1581
12586W        W28480   1.984  10.698  14.741  0.2064  0.3000 -0.0244
12587W        W28481  15.430   9.162  11.183 -0.2575  0.1973  0.1012
12588W        W28482  18.392   6.348  10.270  0.0580 -0.1206  0.1740
12589W        W28483  11.047   5.661  12.481 -0.0765 -0.0992  0.0738
12590W        W28484   6.767   9.234   3.774 -0.0615 -0.0636  0.2157
12591W        W28485  10.642  15.694   0.567 -0.1242 -0.1324  0.5230
12592W        W28486  14.784   2.060  10.552 -0.0303  0.3359 -0.2913
12593W        W28487   2.814  12.006   1.818  0.1245  0.3351 -0.0621
12594W        W28488   4.132  16.842   0.713  0.1913  0.1016  0.0488
12595W        W28489   4.342   5.388  15.010  0.2640 -0.1379 -0.2065
12596W        W28490  14.455   9.542   1.982  0.0203  0.3541 -0.0725
12597W        W28491   4.602   7.016  14.824  0.2410  0.0520  0.0220
12598W        W28492  11.243  15.084   0.105 -0.0714  0.0222 -0.0213
12599W        W28493   3.138  15.051   2.417  0.1130 -0.0693  0.1591
12600W        W28494   9.812  18.624  11.570 -0.2057  0.1861  0.1499
12601W        W28495  12.352   5.714  11.170  0.2740  0.0783 -0.0043
12602W        W28496   7.059  18.060   2.816  0.3707  0.0227 -0.3121
12603W        W28497   3.176  18.401   3.001  0.0680  0.1804  0.0778
12604W        W28498   8.194  16.686  10.571 -0.0964  0.0745  0.3550
12605W        W28499   9.652  11.126   9.390  0.1227  0.1518 -0.2082
12606W        W28500  16.087  17.725  12.568 -0.0466 -0.0068  0.2008
12607W        W28501  12.126   7.134   3.831  0.0492  0.1688 -0.3964
12608W        W28502  15.923  12.325  14.512  0.0121  0.1427 -0.0939
12609W        W28503   2.422   1.607  12.413 -0.0698 -0.0457 -0.0562
12610W        W28504   8.241  16.605  12.552 -0.0327  0.0149  0.3686
12611W        W28505   2.007  16.531  14.401 -0.1205  0.1423 -0.0399
12612W        W28506   7.596  12.496  11.556 -0.3320 -0.0079 -0.2351
12613W        W28507   5.701  11.209   1.189 -0.2506  0.1066 -0.2243
12614W        W28508   7.059  15.579   5.132  0.0251 -0.2230  0.0255
12615W        W28509  12.543   2.934  13.874  0.1092 -0.0525  0.2612
12616W        W28510  11.526   9.343   1.421 -0.2469 -0.2952  0.0719
12617W        W28511   9.871   7.168  14.728  0.4344  0.0414 -0.0986
12618W        W28512  13.340  18.748  13.121  0.3336 -0.0710  0.1640
12619W        W28513   8.796  11.047   3.457 -0.1801  0.1425 -0.0115
12620W        W28514  13.457  13.175   3.051 -0.1355  0.3785 -0.1425
12621W        W28515   0.100   1.778   2.810 -0.1388 -0.2095 -0.0259
12622W        W28516   5.490  13.758  13.982  0.4261  0.0729  0.2007
12623W        W28517  14.159   2.060  10.292  0.0885 -0.0768 -0.3682
12624W        W28518   9.086  13.938   2.775  0.1708  0.0150 -0.5837
12625W        W28519   6.453   6.840  14.138 -0.1231  0.1570  0.2611
12626W        W28520   3.807  11.898   2.099  0.2780 -0.3574 -0.0497
12627W        W28521  16.871  12.031   0.442 -0.3998  0.0910 -0.0558
12628W        W28522  15.227   2.380  12.823  0.2407 -0.4973 -0.0210
12629W        W28523  17.661   9.888   0.666  0.0777  0.0371 -0.2701
12630W        W28524   1.767   4.787   4.353  0.1801 -0.1655 -0.1668
12631W        W28525   1.036  14.359   4.555  0.3122 -0.0554  0.0262
12632W        W28526  14.546  18.963  12.849  0.0167  0.2409 -0.0030
12633W        W28527  15.700  18.556  14.985  0.1497  0.1640  0.1503
12634W        W28528   0.219   1.232   1.540  0.1670  0.1217 -0.0407
12635W        W28529  10.715   8.484   0.674  0.0098 -0.2587 -0.0058
12636W        W28530   6.273   5.640   3.182 -0.1188 -0.2493  0.0426
12637W        W28531   8.296  10.198   2.827  0.3157 -0.1951 -0.6506
12638W        W28532  18.990  13.810   0.853 -0.1503  0.2105 -0.1208
12639W        W28533   2.818  13.379   0.033  0.1503 -0.0816 -0.2463
12640W        W28534  17.469   6.149   2.721 -0.1098 -0.2781 -0.2083
12641W        W28535   0.557  12.265  10.661  0.1081 -0.0452 -0.1173
12642W        W28536  18.790   4.419   2.446 -0.1307  0.1900 -0.1462
12643W        W28537  15.084  11.030  12.352 -0.2237 -0.0118 -0.0037
12644W        W28538   9.032   5.547   4.650 -0.2490 -0.1216 -0.1489
12645W        W28539  10.906  11.187  12.382  0.3350  0.0745  0.0781
12646W        W28540   5.219  17.052  11.940  0.0910  0.0336  0.4918
12647W        W28541   8.828   1.554  13.625  0.1281 -0.3393  0.3685
12648W        W28542  14.344  16.378  11.862  0.3716  0.1620  0.1828
12649W        W28543  16.853  17.378   1.102 -0.1000  0.0282 -0.3525
12650W        W28544   7.029   0.630   0.329 -0.0702  0.2304 -0.0847
12651W        W28545   9.297   5.858  12.638 -0.0443 -0.0837 -0.2107
12652W        W28546  12.620  16.623  14.712  0.0431 -0.4930 -0.1687
12653W        W28547  13.313   6.775  14.007  0.1493  0.0490 -0.2248
12654W        W28548  18.493  18.415   0.721 -0.3439 -0.1550 -0.2985
12655W        W28549  16.536  13.446   3.228  0.3202 -0.1729 -0.1297
12656W        W28550  15.025   6.434   1.389  0.1423  0.3768 -0.3038
12657W        W28551   9.979  13.914   3.807 -0.2672 -0.0201  0.1241
12658W        W28552  12.602   8.881  13.368 -0.0963 -0.4019 -0.0433
12659W        W28553  14.974  17.022  10.660 -0.0010 -0.1316  0.1804
12660W        W28554   4.986  18.528  11.822 -0.1292  0.1853  0.1001
12661W        W28555  18.254  12.451  14.394  0.2010 -0.2395  0.0980
12662W        W28556  16.571   9.795  14.779 -0.1152  0.2224 -0.0809
12663W        W28557  13.474   9.068  13.889 -0.1694  0.0842 -0.0401
12664W        W28558   2.068   3.485  13.994  0.1839 -0.0828 -0.0747
12665W        W28559   4.874  15.922  10.591 -0.1598  0.0503  0.1206
12666W        W28560   6.176  12.844  13.414  0.0669  0.3351 -0.0327
12667W        W28561  10.795   0.343   2.681 -0.2643 -0.0276 -0.1143
12668W        W28562   8.471   1.558  14.355 -0.2724  0.1332 -0.0512
12669W        W28563   4.067  14.187  11.877  0.3369 -0.2512  0.0197
12670W        W28564  18.878   8.929  11.122  0.0876  0.3781 -0.0417
12671W        W28565  10.813  16.570  14.797  0.2021  0.0252  0.2408
12672W        W28566   5.156  16.543  10.220 -0.0683  0.1948 -0.1047
12673W        W28567  14.260  12.113  14.664  0.1340  0.0433 -0.0663
12674W        W28568   2.873  13.765   2.011 -0.0857 -0.2026 -0.0318
12675W        W28569   1.806  13.827   0.262  0.0889 -0.2119 -0.0694
12676W        W28570   3.690  14.743   1.344  0.1022 -0.1377  0.2681
12677W        W28571   8.594  15.054   3.350 -0.3106  0.2292  0.3038
12678W        W28572   5.321  12.337   0.572  0.2269  0.2700  0.0485
12679W        W28573   5.771   3.679   3.507 -0.1488 -0.1501  0.1369
12680W        W28574   8.691   6.894  13.969 -0.1388 -0.3684 -0.1839
12681W        W28575  16.034   8.818   1.605 -0.1392 -0.0118  0.0504
12682W        W28576   7.552   7.804   1.010  0.2155  0.0562  0.2052
12683W        W28577  12.773   5.591  13.406  0.0951  0.1169 -0.2946
12684W        W28578  10.721  11.088   1.241 -0.0845 -0.4379 -0.3154
12685W        W28579   9.039   1.164  12.052 -0.2804 -0.2744  0.3932
12686W        W28580   3.943   1.727   2.186 -0.0850  0.2381 -0.0223
12687W        W28581  17.515  16.198  11.669 -0.0266  0.2655 -0.3772
12688W        W28582   0.379  16.989   4.197 -0.4555 -0.2824  0.1999
12689W        W28583  17.272   2.599  11.687  0.0456  0.0687 -0.0833
12690W        W28584   6.014  13.696  14.259  0.3081 -0.0164 -0.3496
12691W        W28585   2.262  16.738   2.599 -0.2856 -0.0179 -0.1233
12692W        W28586  14.860  15.453  14.890 -0.1862 -0.0289 -0.0251
12693W        W28587   0.807  16.638  13.267  0.1064  0.3002  0.3343
12694W        W28588   8.491   4.909  14.212 -0.1310  0.0834  0.0170
12695W        W28589  12.644   7.234  11.239 -0.0491  0.2687  0.0056
12696W        W28590   0.007   6.879   2.668  0.1787  0.2548 -0.1163
12697W        W28591   7.728  17.238  15.090 -0.0241 -0.0065 -0.6130
12698W        W28592  10.926   5.968   0.628  0.0013 -0.0501 -0.0271
12699W        W28593   9.735   2.085   0.334 -0.0422  0.0620 -0.0631
12700W        W28594  10.129  11.124   4.274  0.0955  0.1991 -0.3600
12701W        W28595  18.367   4.527   5.431 -0.2365 -0.1539 -0.1041
12702W        W28596   2.805   6.087  13.187 -0.1105  0.0010 -0.0961
12703W        W28597  19.154  13.457   5.033  0.2826  0.2126 -0.1735
12704W        W28598   1.560  12.917   0.045 -0.2001  0.0180  0.2529
12705W        W28599  18.656   2.385   2.645 -0.0555 -0.2475 -0.0448
12706W        W28600  16.033   7.337  12.425 -0.0805  0.2387 -0.0583
12707W        W28601  18.163  16.386   1.738  0.1615  0.0446  0.3162
12708W        W28602  15.832   6.955   2.778  0.1335 -0.2455  0.1059
12709W        W28603   9.185  10.131   1.174 -0.0627 -0.0253 -0.1865
12710W        W28604  10.747   1.149  11.955 -0.2270  0.2075  0.0718
12711W        W28605   6.693   6.605  11.387  0.3483  0.1185 -0.2358
12712W        W28606   4.597   4.218   4.790 -0.3380 -0.0702  0.2339
12713W        W28607  17.080   1.385   4.423  0.1672  0.0612  0.0566
12714W        W28608  13.220   1.822   2.905 -0.0229  0.1503  0.0045
12715W        W28609   5.112  18.828  12.467 -0.3502  0.2371 -0.3891
12716W        W28610  13.936  17.371  11.170  0.1272  0.0509 -0.1209
12717W        W28611   8.533  10.889  11.948 -0.1463  0.3022 -0.1675
12718W        W28612  10.990  17.489  14.257 -0.1976 -0.0319  0.0752
12719W        W28613  10.562  13.685  11.172 -0.0044  0.1093 -0.4508
12720W        W28614  17.402   7.836  12.933 -0.1307  0.3744 -0.1585
12721W        W28615  11.544   1.543  11.907  0.1367 -0.1551  0.1278
12722W        W28616  16.588  18.878  14.682  0.1527 -0.0372  0.0602
12723W        W28617   2.308  10.141  11.095 -0.1689 -0.1532  0.0365
12724W        W28618   1.044   2.762   1.858 -0.2625 -0.4301 -0.3440
12725W        W28619  15.723   7.568   2.772  0.1783 -0.0225 -0.1836
12726W        W28620  18.533  16.875   2.011 -0.1065 -0.2743 -0.0559
12727W        W28621  10.368   9.212   3.047 -0.1161  0.3148  0.0373
12728W        W28622  16.186   3.755   3.239  0.2125  0.2423 -0.0768
12729W        W28623   7.553   7.279   2.194  0.5783 -0.0002  0.1043
12730W        W28624  14.085  18.486   0.974 -0.2518  0.4261 -0.0071
12731W        W28625   5.348   9.409   3.411 -0.2263 -0.4751  0.2468
12732W        W28626   9.799  13.739  12.249  0.0938  0.0962 -0.0152
12733W        W28627   3.306   8.422   1.324  0.0596 -0.1935 -0.0020
12734W        W28628   4.574  11.641  10.737 -0.3079 -0.3483 -0.2975
12735W        W28629   1.824  16.444  11.320  0.2364  0.1368 -0.0557
12736W        W28630  12.733   6.529   1.815  0.0581  0.3701  0.1767
12737W        W28631   6.376  14.954  10.437 -0.4265  0.0738 -0.3887
12738W        W28632   4.830   9.899  12.951 -0.2939  0.0842  0.1562
12739W        W28633   4.775   9.133  13.973  0.2658 -0.1505  0.0645
12740W        W28634   3.822   0.835   0.771  0.2143 -0.2320  0.0583
12741W        W28635   3.420   7.680   2.010  0.0869 -0.2151  0.0497
12742W        W28636  16.271   3.099   4.744 -0.2554  0.0276  0.0869
12743W        W28637   7.341   9.416  12.078  0.6731 -0.0477  0.0497
12744W        W28638  16.015   3.399  15.015 -0.1302  0.1747 -0.0140
12745W        W28639  11.284   6.083   1.536  0.2249  0.3593 -0.2506
12746W        W28640  14.817  13.622   1.515 -0.2516 -0.1635  0.0296
12747W        W28641   4.092   6.402  14.614  0.1354  0.0598 -0.1691
12748W        W28642  12.445  10.631  13.641  0.0706 -0.3426  0.1186
12749W        W28643   2.156  14.104  14.741  0.2990  0.0556  0.1281
12750W        W28644   2.081  15.501  11.215  0.0015 -0.0887  0.2827
12751W        W28645   7.949   2.406   2.064 -0.0261 -0.0775 -0.2228
12752W        W28646   1.565  11.950   3.075 -0.2017  0.0573 -0.5000
12753W        W28647  10.369  11.148  10.958  0.2433  0.1308 -0.1233
12754W        W28648   1.356  17.128   3.084 -0.0027  0.1916 -0.1749
12755W        W28649   7.792   7.769   4.546  0.2644  0.6207  0.0562
12756W        W28650  14.696   8.854  12.618 -0.1354 -0.4775 -0.2243
12757W        W28651  13.732   3.055  14.773  0.2380  0.1996 -0.0474
12758W        W28652   1.225   2.215  13.729  0.0144  0.2989  0.1219
12759W        W28653   6.704   2.939   5.994 -0.3923 -0.0380  0.0003
12760W        W28654  10.007   1.762   0.981  0.0823 -0.0705  0.1098
12761W        W28655  14.716   2.764   3.980 -0.0274  0.1285 -0.0009
12762W        W28656   2.480  10.410  14.080 -0.3195 -0.1595 -0.3568
12763W        W28657   6.671   7.192  10.778  0.1144  0.1787 -0.1050
12764W        W28658  18.804  14.351   1.194 -0.0440 -0.2652  0.1000
12765W        W28659  14.299  10.133   2.875  0.2346 -0.0865 -0.0288
12766W        W28660   7.729   7.533   1.395 -0.2675 -0.4120  0.0400
12767W        W28661   7.290   1.815   4.150 -0.3474 -0.3622 -0.0584
12768W        W28662   8.983   9.136   0.324 -0.1802 -0.1394  0.0508
12769W        W28663   5.475  15.207  11.865 -0.1118  0.1659 -0.0444
12770W        W28664   1.846   2.152   1.144 -0.1484 -0.2608 -0.0236
12771W        W28665  12.029   4.774  11.199  0.0393  0.1244  0.0666
12772W        W28666   5.036   8.223   1.354  0.0250 -0.1498 -0.1581
12773W        W28667  18.885   7.487   5.188  0.0559  0.0615 -0.0140
12774W        W28668  19.051   5.750  13.282 -0.3015  0.0588 -0.1460
12775W        W28669   1.128   2.918   2.673  0.1473  0.0098 -0.0338
12776W        W28670  16.806  16.337  13.085 -0.2067 -0.1376 -0.2795
12777W        W28671   0.730   3.997  15.028 -0.1406  0.3873 -0.0668
12778W        W28672  17.654   9.563  14.987 -0.0304  0.1484 -0.0614
12779W        W28673  17.777   9.040   2.910  0.0942 -0.1507 -0.2841
12780W        W28674   1.333  10.772  13.601  0.1365 -0.2429 -0.0488
12781W        W28675  11.871   0.106  10.832 -0.0330  0.0543  0.2030
12782W        W28676  16.222   1.413  13.947  0.0706  0.2054 -0.1768
12783W        W28677   4.778   1.260  13.663  0.0574  0.2504 -0.0007
12784W        W28678  15.869   5.994  11.476 -0.1507 -0.1317 -0.1737
12785W        W28679  17.541   8.554  11.945 -0.2159  0.1067  0.4254
12786W        W28680  13.334  14.578  11.189  0.1118 -0.2011 -0.0496
12787W        W28681   6.234   2.467   2.688  0.3705  0.1788  0.2913
12788W        W28682   5.426   2.289   4.500  0.2576  0.2384  0.3161
12789W        W28683  19.052   3.189  11.778 -0.2159  0.1720  0.2547
12790W        W28684   1.706  18.882   3.332 -0.2797 -0.1832 -0.4939
12791W        W28685   1.644  19.000   1.496  0.4105 -0.0095 -0.2090
12792W        W28686  10.170   0.172  10.452 -0.2495  0.2882  0.2711
12793W        W28687  12.038   3.961  10.086  0.3564  0.0776 -0.2641
12794W        W28688   4.270   3.845   3.383 -0.2378  0.1932  0.0850
12795W        W28689  17.861   4.169  11.332  0.2942 -0.4004  0.0630
12796W        W28690  11.916  14.263  14.758 -0.2456  0.0742 -0.0840
12797W        W28691   5.996   0.325  13.909 -0.1175 -0.0081 -0.1229
12798W        W28692  17.236   1.615  11.716 -0.0531 -0.2234 -0.1004
12799W        W28693  14.558  17.123  11.465  0.1086  0.0875 -0.0070
12800W        W28694   2.847   4.152   1.828 -0.0396 -0.1943 -0.0382
12801W        W28695  14.740   5.010   1.189 -0.0391  0.0900  0.1708
12802W        W28696   7.924   6.614   0.007 -0.1218 -0.1012 -0.0245
12803W        W28697   2.956  14.622   3.403  0.0400  0.0676 -0.0431
12804W        W28698  16.904   8.734   1.896  0.2330  0.0414 -0.1210
12805W        W28699   4.071  11.393  12.956 -0.0581  0.3343 -0.3512
12806W        W28700   0.206  11.468  13.018 -0.3376 -0.2176 -0.1506
12807W        W28701   4.301  13.325  14.971 -0.2166  0.0692 -0.0389
12808W        W28702  18.520  18.276   2.450  0.1126 -0.2164 -0.1422
12809W        W28703  18.642  10.821  10.188 -0.1804 -0.2003 -0.2747
12810W        W28704   2.175   7.435   4.859 -0.2543 -0.4244 -0.0722
12811W        W28705  17.423   7.996  14.428  0.2073  0.1594 -0.2044
12812W        W28706  11.016   4.985  11.063  0.0925  0.1556 -0.0142
12813W        W28707   2.367  11.653   0.987 -0.1513  0.0434 -0.2190
12814W        W28708  10.130  12.603   3.739 -0.0929  0.0008 -0.1117
12815W        W28709  14.983  13.133   4.409 -0.1386  0.0913  0.0902
12816W        W28710   4.306   0.150   1.523 -0.0905  0.0971 -0.0512
12817W        W28711   0.077   4.059  13.055 -0.0638 -0.0662 -0.1479
12818W        W28712  17.745   3.959   5.094 -0.0906 -0.1749 -0.0359
12819W        W28713  11.809   4.965   2.571  0.5588 -0.3407  0.3934
12820W        W28714   9.578  16.780  10.588 -0.0699 -0.1820  0.1178
12821W        W28715   6.171   2.047  11.667  0.0459  0.2086 -0.0149
12822W        W28716   6.814   6.919   2.463 -0.2875 -0.1925 -0.0099
12823W        W28717   3.241  16.852  11.806  0.3421 -0.2529  0.1118
12824W        W28718   8.773  11.980  10.975  0.1229  0.0633 -0.2512
12825W        W28719  13.836  12.530   3.342  0.2966  0.4189  0.4633
12826W        W28720   0.318  15.819   3.257  0.2515 -0.0353  0.5585
12827W        W28721  18.768   0.008   0.018  0.1629 -0.1165  0.1974
12828W        W28722   8.336   2.707   1.979 -0.0761  0.2118 -0.1309
12829W        W28723   2.600  12.792  10.763 -0.3158  0.0419 -0.3926
12830W        W28724  10.093   5.957  13.389 -0.2952 -0.0563 -0.2785
12831W        W28725   2.237  16.271   1.363 -0.5114 -0.1436 -0.0958
12832W        W28726  17.917   3.176   1.708 -0.0744 -0.0707  0.3145
12833W        W28727  13.519   0.059   3.244 -0.2385 -0.0292  0.3280
12834W        W28728   2.259  13.484   0.104 -0.2936  0.0114 -0.1488
12835W        W28729   7.251   0.589  14.017  0.1134  0.1132 -0.2572
12836W        W28730   7.788  16.603   1.288  0.1095 -0.0176  0.2990
12837W        W28731  17.888   2.749  12.310  0.0064 -0.2352 -0.2828
12838W        W28732  10.421  17.192  13.077  0.1022 -0.2577 -0.0125
12839W        W28733   3.426   5.520   5.552 -0.0449  0.3281  0.2087
12840W        W28734  19.102  18.785   5.488 -0.0918 -0.0294  0.1671
12841W        W28735  12.909   3.665  14.644 -0.0062  0.1695  0.1861
12842W        W28736  16.158   9.883   0.221 -0.1993 -0.2647 -0.2429
12843W        W28737  13.945   0.432  13.682 -0.3762  0.2153  0.0800
12844W        W28738   7.492   0.123   2.670 -0.0478 -0.0963  0.4119
12845W        W28739   8.158  10.054   1.632 -0.1293 -0.1043  0.2710
12846W        W28740   0.739   2.283  13.890  0.0249  0.2460  0.0208
12847W        W28741   8.319   2.558  14.881  0.1031 -0.1745 -0.1206
12848W        W28742   0.473  16.640   3.767  0.2663  0.0563  0.2261
12849W        W28743  15.603   1.235  11.540 -0.0679 -0.1686 -0.0556
12850W        W28744   0.397   0.063  11.560 -0.2351  0.1307  0.3205
12851W        W28745  13.162   9.570  12.687  0.2219 -0.1616 -0.2393
12852W        W28746   5.498   6.254   4.778  0.3440 -0.2268 -0.1424
12853W        W28747  18.365  10.724   3.495  0.0589  0.2522 -0.3561
12854W        W28748  14.514   7.435   3.462 -0.1010  0.2614 -0.1769
12855W        W28749  14.078   0.359   0.960  0.1251 -0.0443  0.0199
12856W        W28750  12.832   1.654  12.814 -0.1100  0.1382  0.3047
12857W        W28751  16.176   4.711   1.010  0.1561  0.0954 -0.0439
12858W        W28752  11.995   3.650  14.276 -0.1312 -0.2372 -0.0561
12859W        W28753  13.079  13.904  11.779  0.0389 -0.0921  0.0180
12860W        W28754  17.632   0.831  14.644 -0.2293 -0.1264 -0.2209
12861W        W28755   8.628   7.401   0.825  0.0055  0.0596  0.2763
12862W        W28756   3.399  11.855  11.481 -0.0850 -0.6392  0.1359
12863W        W28757  18.570   7.349  11.112  0.0492 -0.1464  0.0985
12864W        W28758  16.361  14.674   9.797  0.1087  0.0755  0.0484
12865W        W28759  16.164  14.306   0.839 -0.0733 -0.0963  0.1554
12866W        W28760  12.148   0.232  13.635  0.1817  0.1947 -0.1872
12867W        W28761  10.054   8.632   4.476 -0.1674 -0.0712 -0.0565
12868W        W28762   4.689   1.057   3.317  0.2132  0.0778 -0.0298
12869W        W28763   8.736  15.125  10.724  0.3997  0.0943  0.1094
12870W        W28764   3.582  12.583  10.349  0.2155  0.1993  0.0891
12871W        W28765   6.913   8.105  13.344  0.1279 -0.0113  0.0609
12872W        W28766   7.876   1.373   3.553 -0.1643 -0.0887 -0.1460
12873W        W28767   8.714  16.382   0.206 -0.1298  0.0931 -0.2068
12874W        W28768   5.550   2.797  10.780  0.0296  0.0845 -0.1327
12875W        W28769  15.463  17.594   1.364  0.0655  0.0969  0.0832
12876W        W28770   4.061  15.599  11.875  0.0462 -0.1503 -0.4949
12877W        W28771   4.677  13.838   4.020  0.0049  0.2068  0.0535
12878W        W28772   2.854  14.679   2.432  0.1420  0.1367  0.2428
12879W        W28773   4.828  16.798  11.941  0.1637  0.0269  0.2613
12880W        W28774  15.134   8.047   1.289  0.2314 -0.0108 -0.0030
12881W        W28775   8.078   8.578  11.719  0.3199 -0.2397  0.0029
12882W        W28776  10.838   3.122   2.857 -0.0226  0.1474  0.1619
12883W        W28777  14.123   5.631  11.084  0.0431 -0.1097 -0.0337
12884W        W28778   2.510   4.119  13.282  0.3314 -0.0123 -0.1256
12885W        W28779   3.322  15.966  14.982  0.3680  0.1428  0.1792
12886W        W28780   5.483  12.952   4.715  0.1566 -0.0678 -0.1688
12887W        W28781  17.742   7.302   1.528 -0.2524 -0.0133 -0.1049
12888W        W28782   4.283  19.218   2.395  0.1268  0.0451 -0.0793
12889W        W28783  14.725  18.684   0.096  0.2205  0.1000  0.2483
12890W        W28784   9.423  18.337  10.104  0.1663  0.2027 -0.3289
12891W        W28785   7.165   3.394   3.723  0.0287  0.3671  0.2113
12892W        W28786  12.092   6.354  13.684  0.0832 -0.1572  0.0022
12893W        W28787  11.372  12.824  12.181 -0.0642 -0.0199  0.1537
12894W        W28788  15.126   5.378  13.919  0.1507  0.2750  0.2276
12895W        W28789  14.047   1.417  13.180 -0.2923  0.1894 -0.0399
12896W        W28790  12.923   4.672   0.086 -0.3079  0.0990  0.0903
12897W        W28791  11.437   7.194   1.597 -0.1263 -0.0877 -0.0984
12898W        W28792  14.095   9.730  13.904  0.1609  0.1009 -0.0104
12899W        W28793  18.679  16.294   1.697  0.1374 -0.2224  0.6075
12900W        W28794  11.779  11.988   1.021  0.1054 -0.2674 -0.0985
12901W        W28795   3.798  14.076  13.791  0.2233  0.3224  0.0808
12902W        W28796   5.545   0.412  11.483 -0.0437 -0.2503 -0.1055
12903W        W28797   3.129   7.442   2.303 -0.1576 -0.1162  0.1065
12904W        W28798   0.943  14.340   0.083 -0.0167  0.2713  0.1453
12905W        W28799  11.221  12.273  10.439  0.3159 -0.0918 -0.0445
12906W        W28800   7.973  18.315   0.706  0.1218 -0.2101  0.2894
12907W        W28801   1.431   0.067  13.904 -0.1118 -0.2622 -0.2597
12908W        W28802  10.743  16.142  13.859 -0.1470  0.1034 -0.0391
12909W        W28803   2.657   0.905   4.020 -0.0465  0.3772 -0.1005
12910W        W28804  12.182   6.916   5.229 -0.4655 -0.1273 -0.1183
12911W        W28805   4.342  18.118   5.051  0.0510  0.3411  0.1174
12912W        W28806  15.583   5.001  12.691 -0.1470 -0.1140  0.2075
12913W        W28807   8.164   1.317   4.896 -0.2514  0.1385 -0.0818
12914W        W28808   5.916  10.462  12.188 -0.1496  0.2304 -0.2449
12915W        W28809   7.678  18.423   3.675 -0.0612 -0.2843 -0.0704
12916W        W28810  14.967   1.258   3.609 -0.0499  0.1280 -0.0218
12917W        W28811  17.260  12.585  13.004  0.2805 -0.0523 -0.0239
12918W        W28812   5.749  11.587  12.241 -0.0776 -0.3175 -0.0718
12919W        W28813  17.008   9.618  13.370 -0.0134 -0.1403 -0.2252
12920W        W28814  15.448  15.080   2.480  0.1675  0.1745 -0.0656
12921W        W28815  16.735  12.385  12.997  0.1358 -0.1404 -0.0675
12922W        W28816   3.437   1.073  12.230 -0.1029 -0.0960 -0.3243
12923W        W28817  14.707  17.356   4.107 -0.1733 -0.0153 -0.1272
12924W        W28818   7.119   5.370  13.267 -0.3851 -0.0172  0.4436
12925W        W28819  18.245   3.815   4.157 -0.0914  0.3343 -0.0240
12926W        W28820   3.904  17.462  13.990  0.1685 -0.1107 -0.0995
12927W        W28821   4.698   5.499   1.476  0.0796  0.4867  0.1997
12928W        W28822   4.185   3.726  11.631 -0.3176  0.1119 -0.0742
12929W        W28823  15.422  17.415   2.341  0.1781  0.2867 -0.2554
12930W        W28824   9.010  10.894   4.614  0.2302 -0.0204 -0.0111
12931W        W28825  18.074  17.725   2.633 -0.0643  0.0370 -0.1350
12932W        W28826   0.585  10.555  11.115 -0.0400 -0.0622 -0.3632
12933W        W28827   6.737   7.754  14.323  0.2295 -0.0907  0.3072
12934W        W28828   0.896   5.560   3.574 -0.1504  0.0650 -0.3297
12935W        W28829  11.707   1.499   0.912 -0.0434 -0.2175  0.0676
12936W        W28830  18.403  13.938  14.315  0.0346 -0.0293 -0.2356
12937W        W28831  10.385  17.553   4.370 -0.0398 -0.1792  0.2897
12938W        W28832   1.958   9.990   1.465 -0.0664  0.1420 -0.0638
12939W        W28833   9.668  17.686  11.042 -0.0991  0.2845  0.3602
12940W        W28834  12.506   2.491  13.023  0.2072 -0.0655  0.0212
12941W        W28835   5.936   4.175  13.916  0.2814 -0.0439 -0.0683
12942W        W28836   1.695  10.964  10.799  0.1296  0.0317  0.0667
12943W        W28837   5.327  18.871   5.077  0.0205 -0.1053 -0.2351
12944W        W28838   3.630   0.529   1.761 -0.2549  0.0013 -0.1270
12945W        W28839  14.536   8.421  14.726  0.0927  0.0192 -0.0325
12946W        W28840   8.631   1.395   2.412 -0.0619 -0.0994 -0.4106
12947W        W28841   9.338  12.663   5.051 -0.1875 -0.0413 -0.0737
12948W        W28842   0.043   6.578   0.628 -0.0431  0.4111  0.0333
12949W        W28843   7.849  10.293   0.244  0.1006 -0.1524 -0.2074
12950W        W28844   8.087   4.398   3.677  0.0276 -0.0363  0.3202
12951W        W28845  17.175   1.607   3.521 -0.0206  0.0457 -0.2010
12952W        W28846  12.109   6.027   0.075  0.1397  0.1082  0.0995
12953W        W28847   1.093   8.533  13.730  0.0984  0.1188 -0.0471
12954W        W28848  11.070   9.429  14.546 -0.2215 -0.0474 -0.3921
12955W        W28849  17.036  18.407   3.575 -0.2090 -0.1845 -0.0560
12956W        W28850   7.815   0.019   1.775 -0.0016  0.2520 -0.0489
12957W        W28851   0.981  14.509  10.988 -0.2269  0.1371 -0.0434
12958W        W28852  15.275   4.042  10.666  0.0953 -0.2570 -0.3913
12959W        W28853   4.697  18.381   2.623 -0.3891  0.2842  0.0737
12960W        W28854   7.080   9.709   1.208 -0.1085 -0.2044 -0.2665
12961W        W28855   7.169   6.745   4.660  0.0174 -0.3987 -0.0135
12962W        W28856   3.409  15.276   1.200  0.1484 -0.0134  0.0097
12963W        W28857  14.105   3.069   4.155  0.2556  0.1050 -0.2607
12964W        W28858   8.165   7.803   4.211 -0.2265 -0.4762 -0.1151
12965W        W28859   2.097  14.497   4.045 -0.0640 -0.2279 -0.0960
12966W        W28860   6.440   7.641   4.026 -0.0927 -0.0302  0.1308
12967W        W28861  13.769   8.857   2.544 -0.0610  0.0347 -0.1998
12968W        W28862   3.393  11.895   4.922 -0.2243 -0.1768 -0.0303
12969W        W28863   5.301   8.418  11.480  0.1502 -0.2509  0.1108
12970W        W28864   0.296   5.534  13.494 -0.1833 -0.4945 -0.0337
12971W        W28865   4.231  13.532  10.771  0.4439 -0.0846 -0.2254
12972W        W28866  14.381   3.908  12.088 -0.0659 -0.4000  0.0687
12973W        W28867   1.787   3.760  12.906 -0.1091 -0.1204 -0.3020
12974W        W28868   9.479  15.580  11.793  0.0543  0.2468 -0.0576
12975W        W28869  11.100   0.741  11.529  0.2780 -0.2247  0.0176
12976W        W28870   3.063   4.671   3.683 -0.3047 -0.1124  0.1481
12977W        W28871  12.409  17.318   0.231 -0.0440 -0.2012 -0.2069
12978W        W28872   1.741  13.244   9.458 -0.2947  0.0822  0.1515
12979W        W28873   7.223  11.507  10.493  0.2748  0.0991 -0.2723
12980W        W28874  12.638   0.750   5.238 -0.0019  0.3444 -0.0034
12981W        W28875  18.336  18.603  10.854  0.0603 -0.4648  0.2854
12982W        W28876  12.305   3.210  14.311  0.3330 -0.2474  0.0588
12983W        W28877   5.426  15.044   1.918 -0.1547 -0.1716 -0.1915
12984W        W28878  15.570   6.783   0.100 -0.1377 -0.1270  0.1609
12985W        W28879   9.175   0.076  13.128 -0.2287  0.2490 -0.2124
12986W        W28880  12.824  18.865   2.451 -0.2559 -0.2203 -0.0966
12987W        W28881   6.641  16.158   3.206  0.0102  0.1854  0.2967
12988W        W28882  16.102   1.861  13.025 -0.1261  0.1478  0.2689
12989W        W28883  15.777   9.376  11.520  0.0454 -0.0152  0.4744
12990W        W28884   3.440   4.322   2.274  0.3297  0.6067 -0.0292
12991W        W28885   1.923  15.596  10.741 -0.3576 -0.0599  0.0073
12992W        W28886  13.688   5.492  12.927  0.1146 -0.0340 -0.0598
12993W        W28887  12.120  15.137   4.213  0.0893 -0.0139  0.1325
12994W        W28888   8.033   9.978   3.234  0.3116 -0.3041 -0.0095
12995W        W28889  16.937  12.194   1.676  0.1576  0.0813 -0.0340
12996W        W28890   3.562  18.993  13.826  0.0230  0.2354 -0.2922
12997W        W28891  14.577   7.766  10.877  0.1318 -0.0617  0.2217
12998W        W28892  12.682  14.483   0.165  0.3851 -0.0520 -0.1659
12999W        W28893   1.106  12.612   0.228 -0.0659 -0.0484 -0.1292
13000W        W28894  14.441  15.880   0.900  0.1355 -0.0908 -0.0007
13001W        W28895   1.553   4.330   4.453 -0.4246  0.1032  0.1465
13002W        W28896   6.582  17.594  14.429 -0.3913 -0.3736  0.3277
13003W        W28897   9.857   5.518   0.814  0.2969 -0.1172 -0.2942
13004W        W28898   5.015   9.935  11.131  0.0240 -0.0181 -0.2824
13005W        W28899   5.505   5.689   1.065 -0.0675  0.4425 -0.0541
13006W        W28900   3.611   2.955   1.472 -0.6228  0.0935 -0.1566
13007W        W28901   4.166  10.874  14.274 -0.1413 -0.3588  0.0344
13008W        W28902   3.075  13.638   3.416  0.2044 -0.0128 -0.1151
13009W        W28903  12.512  11.719  11.619 -0.0420  0.2253  0.1892
13010W        W28904  16.878  10.947  12.549  0.1211 -0.2553 -0.2814
13011W        W28905   4.147   2.117  12.586  0.0395 -0.0381 -0.4285
13012W        W28906  15.590   2.618   0.915 -0.1769  0.1860 -0.2310
13013W        W28907   6.723  17.900  13.053  0.0808  0.1454  0.1613
13014W        W28908  16.950  16.426  14.843 -0.0240  0.1852 -0.0825
13015W        W28909   4.768   5.100  14.921 -0.0706 -0.0644  0.0909
13016W        W28910   3.704   4.634  10.563 -0.2005  0.2579 -0.6210
13017W        W28911  18.758  18.934   0.725 -0.1433  0.0632  0.1217
13018W        W28912   0.549  10.962   2.523 -0.1357 -0.1199  0.2473
13019W        W28913   4.128   1.421   4.568  0.0638  0.2371 -0.0609
13020W        W28914  17.441   2.686  10.951  0.0997  0.2134  0.0877
13021W        W28915  16.567   3.246   2.445 -0.1304 -0.1449  0.0098
13022W        W28916  18.022   1.754   2.466 -0.2081 -0.2294  0.0133
13023W        W28917  12.380   5.210  13.435 -0.2998 -0.0293 -0.2035
13024W        W28918   3.572   9.311   4.844  0.3313  0.2063 -0.0156
13025W        W28919   2.478  13.500  13.189 -0.2869 -0.1671 -0.3627
13026W        W28920   2.248   1.009   1.903  0.3813 -0.2465  0.5962
13027W        W28921  13.057   8.267  11.627  0.0113  0.2621  0.5502
13028W        W28922  12.069   6.363  14.435  0.4157 -0.0590 -0.2541
13029W        W28923  17.593   4.904  11.684  0.0260  0.1372  0.1326
13030W        W28924  14.203  16.431   0.996  0.1799 -0.1715  0.2777
13031W        W28925  16.869   0.159   2.142 -0.1554 -0.0448  0.3553
13032W        W28926  17.673   1.574  11.429 -0.0055 -0.0686 -0.3634
13033W        W28927  12.893  18.237   1.649  0.3836 -0.2193  0.1502
13034W        W28928   2.272  11.156   4.577  0.1104  0.1979 -0.1729
13035W        W28929  12.606  10.713  15.015 -0.0679  0.2039 -0.2944
13036W        W28930   9.795  12.223  13.258  0.0235  0.0278  0.4424
13037W        W28931   0.526   1.884   3.577  0.0803 -0.1821 -0.2764
13038W        W28932   8.766  10.907   2.398 -0.2632  0.0401  0.2268
13039W        W28933  12.679  13.209   1.347  0.2600  0.1754 -0.5038
13040W        W28934  11.418  11.056   2.037  0.0176 -0.1061 -0.0164
13041W        W28935   8.192   6.550   5.191 -0.0631 -0.1363  0.2438
13042W        W28936  14.329   2.186  12.961 -0.0565 -0.1916  0.2554
13043W        W28937   3.666   1.636   5.861  0.0492 -0.1125  0.1349
13044W        W28938  14.626   8.929  10.375  0.0382  0.2872  0.1049
13045W        W28939   6.303  17.415   0.823  0.0515 -0.2008 -0.0355
13046W        W28940   2.222   1.067  14.369  0.0320  0.0816  0.1538
13047W        W28941   2.392   4.693  14.601 -0.0126  0.0612  0.1783
13048W        W28942  12.269  16.272   4.196  0.2256  0.5480 -0.2262
13049W        W28943   9.503   8.133   1.990  0.2814  0.0826  0.3980
13050W        W28944  14.056   9.541   4.768  0.0429 -0.1769  0.3318
13051W        W28945  13.077  10.721  12.607 -0.1683 -0.1684 -0.1130
13052W        W28946   2.678  16.187  14.035 -0.1416 -0.0247  0.2070
13053W        W28947  16.944   8.350   3.630 -0.1585  0.0346 -0.0154
13054W        W28948   5.942   8.181   3.295 -0.1872 -0.0343  0.3968
13055W        W28949  19.178   1.828  10.944  0.0285 -0.1059 -0.2211
13056W        W28950   6.382  13.106  14.823 -0.0225 -0.0352  0.1018
13057W        W28951  14.631  16.877   1.633 -0.2791  0.1229 -0.0574
13058W        W28952  18.791   8.005   5.312 -0.2183  0.0581 -0.2163
13059W        W28953  16.651  15.180   0.185 -0.0357 -0.0856  0.2744
13060W        W28954  16.673   2.167   3.663 -0.4195  0.1514  0.4214
13061W        W28955   3.237  10.894   2.323  0.1759  0.1663  0.0574
13062W        W28956  10.955   7.997  10.280 -0.2189  0.3501 -0.0353
13063W        W28957  18.248  16.637   4.387  0.0814  0.1792  0.1654
13064W        W28958   2.076  12.331  11.378  0.0037  0.1510  0.0835
13065W        W28959   8.093  11.083   1.886  0.3522 -0.1033  0.4589
13066W        W28960   5.023  17.990  11.850  0.1061 -0.0404  0.2592
13067W        W28961   1.769  14.708  11.134  0.0685  0.1778  0.0909
13068W        W28962  16.246   2.373   2.712  0.2207  0.0568  0.0699
13069W        W28963   7.903   0.045   4.864  0.0425 -0.3546  0.1634
13070W        W28964   4.760   5.011  13.637  0.1606  0.0627 -0.2639
13071W        W28965  12.604   6.046   1.966  0.2253 -0.0829  0.2018
13072W        W28966  14.137  10.449  14.564 -0.0447  0.2616  0.1016
13073W        W28967  12.712   0.980   3.252 -0.2088 -0.3261 -0.2190
13074W        W28968   0.580   8.857   2.167 -0.1262 -0.2324 -0.2205
13075W        W28969  12.649   0.410  12.864  0.1834  0.1029 -0.1103
13076W        W28970   9.884  15.036  13.838 -0.2055 -0.0097 -0.1570
13077W        W28971  11.695   7.412   3.911 -0.1479 -0.2732 -0.1863
13078W        W28972  11.857  15.364   0.795  0.0357 -0.3127 -0.1151
13079W        W28973  12.585   7.111  11.797  0.0036 -0.0319  0.0317
13080W        W28974  18.310   3.265  14.439  0.0743 -0.4713 -0.0046
13081W        W28975  14.021   8.776   3.606  0.2563 -0.0179  0.1756
13082W        W28976   9.986  13.221   0.118  0.1649  0.0684 -0.0727
13083W        W28977  14.110  10.446  15.093  0.1100 -0.0668  0.1597
13084W        W28978  13.550  14.266   3.278 -0.2096  0.1036 -0.0519
13085W        W28979   0.748  18.792  12.441 -0.3147 -0.1543 -0.1260
13086W        W28980  15.823   3.128   5.021  0.3307  0.4834  0.0859
13087W        W28981   5.848   1.188  14.082  0.0917  0.2837  0.2823
13088W        W28982   7.492   2.319   2.035 -0.3885 -0.0395 -0.0688
13089W        W28983   1.604   0.023   1.040  0.2897 -0.0861 -0.0792
13090W        W28984  14.542   2.845   1.947 -0.3457 -0.0310  0.4316
13091W        W28985  16.424  11.710   3.686  0.1075 -0.1400  0.0728
13092W        W28986  14.101   3.532  10.397  0.1007 -0.0400 -0.1638
13093W        W28987  16.846  18.701   4.269  0.2940  0.0334 -0.3154
13094W        W28988  17.565   3.232   2.542  0.1052  0.1656 -0.2430
13095W        W28989  17.003   9.780  10.284 -0.4640 -0.3654 -0.0647
13096W        W28990   1.767  11.371   1.844 -0.2695 -0.0549 -0.2510
13097W        W28991  11.570   2.702  13.464 -0.0216  0.0907  0.0008
13098W        W28992  11.246   1.948  13.159  0.0410  0.2200  0.1702
13099W        W28993   9.034   7.242   2.091  0.2810 -0.2791  0.0930
13100W        W28994  18.559  19.070  10.597  0.1949 -0.2574 -0.2464
13101W        W28995   5.808  18.883   3.952 -0.1443 -0.0192 -0.0076
13102W        W28996   1.756  14.166   9.365 -0.3478 -0.2615  0.3517
13103W        W28997  12.592  16.158  14.685  0.0128 -0.3656  0.2207
13104W        W28998   9.351  14.386   3.832  0.1256 -0.6632 -0.0536
13105W        W28999   9.616  15.194  13.343  0.1123  0.0037 -0.0630
13106W        W29000  14.842   9.679  13.540 -0.2196  0.1645  0.1916
13107W        W29001  16.387  17.513   1.052 -0.1295 -0.1339  0.2092
13108W        W29002   7.272  13.815   3.179 -0.1441 -0.0364  0.3050
13109W        W29003  17.437   0.122   2.949 -0.0305  0.0275 -0.2826
13110W        W29004  10.048  15.936   1.694  0.0721 -0.0382 -0.2916
13111W        W29005  12.695  17.039   2.212  0.2905 -0.0785  0.0092
13112W        W29006  15.249   8.911  12.696 -0.0568  0.2235  0.0168
13113W        W29007   9.377   4.832   4.248  0.1508 -0.4149  0.1317
13114W        W29008  15.674   3.655   2.098  0.1522  0.1855  0.0011
13115W        W29009   6.422  15.226  11.926 -0.0209  0.4634  0.0770
13116W        W29010   3.057  10.946   4.468  0.3645 -0.2779 -0.0573
13117W        W29011  17.812   6.676   5.620  0.0175 -0.1467 -0.1414
13118W        W29012   6.008  17.442  14.365 -0.0704 -0.0834 -0.1392
13119W        W29013  11.122   5.056  13.521  0.4006 -0.0835 -0.2575
13120W        W29014   7.896  16.109   0.014  0.1075  0.2436  0.1159
13121W        W29015   4.296   0.155  13.616  0.0517  0.1139 -0.0574
13122W        W29016   2.464  11.494   2.636 -0.1674 -0.2797  0.0029
13123W        W29017  15.133  11.938   5.310 -0.1935  0.3525 -0.2503
13124W        W29018  11.339   5.464   5.215 -0.0817  0.0876  0.1816
13125W        W29019   7.200  15.401   0.704 -0.0781  0.0383  0.2535
13126W        W29020   1.050   2.381   2.841 -0.1032 -0.0570 -0.3359
13127W        W29021   2.769   0.101  12.194  0.0379 -0.4592 -0.3033
13128W        W29022  13.370  10.813   4.684  0.2103 -0.0209 -0.0150
13129W        W29023   0.269   6.147   4.113 -0.3349  0.2956 -0.0176
13130W        W29024  17.943  18.093  13.298 -0.0009  0.0274  0.0584
13131W        W29025  14.933   1.151  14.743 -0.0539 -0.0639  0.3625
13132W        W29026   1.676  10.782   1.137 -0.0011 -0.0934 -0.1539
13133W        W29027   9.941  10.568   3.731  0.5261  0.1561 -0.1794
13134W        W29028   6.361  16.956   3.207  0.0327  0.0919 -0.3524
13135W        W29029  11.787   5.689  11.283  0.0673 -0.0530  0.1665
13136W        W29030   5.585  14.484   4.146  0.0289 -0.3863 -0.0499
13137W        W29031  17.772   5.300  10.723  0.5777  0.1987  0.0848
13138W        W29032   6.424   8.462  14.650 -0.0339  0.1268 -0.0064
13139W        W29033  12.436  16.688  13.978 -0.0285  0.1345 -0.0609
13140W        W29034  15.953   2.849  14.704  0.2965 -0.0756 -0.2245
13141W        W29035  18.892  10.382   1.691 -0.1778 -0.1143  0.0680
13142W        W29036  17.365   9.045  12.098  0.1513  0.1604 -0.0070
13143W        W29037   4.662  10.328   3.957  0.2796  0.1070  0.1949
13144W        W29038  16.209   7.615  14.133 -0.0756  0.2061 -0.0627
13145W        W29039  14.488   7.594   2.579 -0.0664 -0.0585 -0.0529
13146W        W29040  11.574  11.272  13.806 -0.1588  0.0549  0.3566
13147W        W29041  10.081  14.700  10.730 -0.0700  0.2055  0.1643
13148W        W29042   4.807  18.447   0.784  0.0967 -0.1535  0.2359
13149W        W29043  14.208   4.843   0.087  0.3486 -0.2704  0.1741
13150W        W29044  10.966  15.118  13.971  0.4233 -0.0177  0.3202
13151W        W29045   2.489  10.104   5.025 -0.1895  0.2336  0.4464
13152W        W29046   4.550  12.912  14.515 -0.0149  0.1730 -0.1661
13153W        W29047   3.398  18.845  11.086  0.0309 -0.0324 -0.1617
13154W        W29048  13.796   4.565   1.410 -0.0719 -0.0004  0.1520
13155W        W29049  15.517   4.155   0.071  0.4242  0.1033 -0.0251
13156W        W29050   2.986  10.258  11.622 -0.4541 -0.1793  0.2458
13157W        W29051  11.611   4.201   4.266 -0.3054 -0.0529 -0.2471
13158W        W29052  16.428  17.986  15.059  0.0067 -0.1034 -0.0115
13159W        W29053  15.190   4.704  12.559  0.2247  0.0118 -0.3278
13160W        W29054   4.821   5.748   1.864  0.1228 -0.1874 -0.2427
13161W        W29055   6.348  18.465  12.244  0.0545  0.2569  0.0644
13162W        W29056  14.853   9.784   4.623 -0.1654  0.0570  0.1906
13163W        W29057  17.465   9.675  10.530  0.2297 -0.0228  0.0650
13164W        W29058   7.213  16.334  12.972 -0.4582  0.1443  0.2083
13165W        W29059  13.309   1.601   1.850  0.1442 -0.0293 -0.0968
13166W        W29060  17.927   4.741  14.352  0.2304  0.3350 -0.0726
13167W        W29061   5.632   5.976   4.104  0.1616  0.2459 -0.0335
13168W        W29062   0.211  16.532   4.306 -0.5629 -0.3125  0.0534
13169W        W29063   2.824   6.795  13.337 -0.1031 -0.1764 -0.0654
13170W        W29064   6.385   2.890  11.778  0.0948 -0.3839 -0.3485
13171W        W29065  18.483  14.530   2.653 -0.0632  0.0630  0.0787
13172W        W29066  16.064   0.087   0.540  0.3148  0.1232 -0.0847
13173W        W29067   5.266   2.232  13.886 -0.2129 -0.0674  0.4041
13174W        W29068   3.460  12.036  10.122 -0.1319  0.3718 -0.0620
13175W        W29069  10.093  14.058  13.554 -0.0371 -0.0441 -0.0666
13176W        W29070   9.548   3.562  13.487  0.3463 -0.1814 -0.0551
13177W        W29071   8.441  15.512   2.576  0.2940 -0.0540  0.0510
13178W        W29072   9.938   8.826   5.634 -0.1156  0.1553  0.0717
13179W        W29073   8.525  10.384   1.402  0.1674 -0.0438 -0.0053
13180W        W29074  18.122  11.584  13.436  0.5407 -0.3516  0.0141
13181W        W29075  12.509   5.322   9.892 -0.1746 -0.0266 -0.0856
13182W        W29076   5.665  14.040   3.944 -0.2375  0.0719 -0.0196
13183W        W29077  15.875   3.469   0.856  0.3144 -0.0772  0.0136
13184W        W29078   2.426   0.643   4.421  0.1326  0.0503 -0.1251
13185W        W29079  16.380  11.324   5.121  0.0583  0.0642  0.2839
13186W        W29080  11.068   2.671   1.908  0.0713 -0.0624 -0.0420
13187W        W29081  15.347  11.750   0.455  0.1671  0.2237 -0.1415
13188W        W29082   4.540  17.150   0.828  0.0649 -0.2398  0.2068
13189W        W29083  12.225  12.369   1.579 -0.2343  0.1354  0.1165
13190W        W29084   5.331   9.874   4.870  0.0830  0.4141  0.2624
13191W        W29085   5.606   2.244   9.837 -0.2455  0.0085  0.2081
13192W        W29086  13.451   8.064   4.693  0.0254 -0.1828 -0.2105
13193W        W29087  14.834  11.148  11.903 -0.2226  0.1374 -0.1344
13194W        W29088  16.871  18.920   3.545  0.0221  0.2405  0.1854
13195W        W29089  12.015   2.874   1.464  0.1895  0.1488  0.2425
13196W        W29090   8.433   4.402   4.701 -0.1849  0.1796  0.2263
13197W        W29091  15.203   0.182  12.413  0.0298  0.0359  0.0211
13198W        W29092  11.610  11.314  11.219 -0.0452 -0.1534 -0.0470
13199W        W29093  15.140   0.261   1.104  0.1838 -0.2989 -0.0420
13200W        W29094   4.716   0.961  11.244 -0.1586 -0.1974 -0.1122
13201W        W29095  14.449   3.875   4.469  0.4169 -0.1060 -0.2212
13202W        W29096  14.216   2.334   1.787 -0.0561 -0.5126 -0.0611
13203W        W29097  11.990   5.260  11.046 -0.2855  0.3694  0.1419
13204W        W29098   1.955   2.646  14.204  0.1297  0.0464  0.0133
13205W        W29099  12.567   3.789  10.794 -0.1789 -0.0544 -0.4041
13206W        W29100   8.235   3.532   2.802 -0.2465  0.2358 -0.2224
13207W        W29101  16.395  13.482   4.759 -0.2820 -0.0022 -0.2616
13208W        W29102  18.640  18.044   3.945  0.2319  0.0017  0.0278
13209W        W29103   2.330  16.688  12.245 -0.3822  0.1986  0.2261
13210W        W29104   4.852  17.511   1.463 -0.0546  0.0609  0.1612
13211W        W29105   5.228   5.026  14.717 -0.2261 -0.1703  0.0320
13212W        W29106  12.616   8.804  10.971 -0.1288  0.1814 -0.0154
13213W        W29107  14.329   4.432   1.052  0.0336  0.1332 -0.0783
13214W        W29108   2.604   9.095   3.971 -0.3219  0.0659 -0.0352
13215W        W29109  15.862  10.109  13.247 -0.0796  0.2135 -0.6189
13216W        W29110   7.906   7.982  12.590 -0.0036  0.1137  0.0758
13217W        W29111  11.716  15.491   3.965  0.0752 -0.0197 -0.0266
13218W        W29112   5.240   1.368   4.328  0.1597 -0.0102  0.1179
13219W        W29113   8.402   0.076  11.806  0.1148  0.0284 -0.1536
13220W        W29114   8.866   1.320  11.467 -0.1001 -0.2604 -0.1174
13221W        W29115  15.145  17.806   1.736  0.2413  0.2124 -0.0961
13222W        W29116   5.966  10.073  11.411  0.0265 -0.0665 -0.1965
13223W        W29117   0.841   8.176  13.568 -0.0114 -0.2090 -0.0769
13224W        W29118   3.471   8.107  11.052  0.6297 -0.0182  0.3567
13225W        W29119   3.754   6.619   2.799 -0.4112 -0.0864 -0.1146
13226W        W29120   8.649  12.368  15.094 -0.1462 -0.1227 -0.1024
13227W        W29121   2.975  16.205  11.182 -0.1651 -0.1814  0.0318
13228W        W29122  11.586  12.375  13.156 -0.1444  0.0369 -0.2276
13229W        W29123  12.755   1.645  11.749  0.2765  0.2185  0.1405
13230W        W29124   4.405   9.486   3.322  0.1817  0.1702 -0.2224
13231W        W29125  10.328  14.346  11.689  0.0110  0.0834  0.0709
13232W        W29126   2.543  18.582   4.205 -0.3514 -0.1272  0.0478
13233W        W29127  12.986   7.837   4.990  0.1097  0.0319 -0.0653
13234W        W29128   0.081  17.406  12.767 -0.1593 -0.0939  0.2289
13235W        W29129  15.205  12.573   3.339  0.2617  0.2864 -0.2056
13236W        W29130   0.205   9.341   0.454 -0.0646  0.1704 -0.0461
13237W        W29131  17.172   2.431  12.710  0.1675  0.2219 -0.2132
13238W        W29132   4.560   8.636  10.849  0.0502  0.0341  0.2900
13239W        W29133   1.049   7.299  10.587 -0.0860 -0.0944 -0.2328
13240W        W29134   3.558   4.521   0.015 -0.2886  0.0360 -0.0893
13241W        W29135  15.673   5.675   2.594 -0.0729  0.3175 -0.0938
13242W        W29136  16.208   0.591  11.640 -0.0074  0.0860 -0.0308
13243W        W29137  18.095   0.530   4.390  0.0401 -0.2332  0.2968
13244W        W29138   9.256  12.353   1.698  0.0776  0.1949  0.0863
13245W        W29139   1.154  12.035   5.272 -0.1509 -0.0767  0.1543
13246W        W29140  11.401   8.395  13.816 -0.1351  0.2269  0.3272
13247W        W29141   6.598   8.729  11.917 -0.1745 -0.5680  0.1451
13248W        W29142   2.059   1.110  11.931 -0.0126  0.2002  0.2092
13249W        W29143   6.668   1.331  13.288 -0.0405  0.1474  0.0099
13250W        W29144  16.581  15.031   2.323 -0.1704 -0.2053 -0.0932
13251W        W29145   2.755  11.065  11.809 -0.1227 -0.1976 -0.0601
13252W        W29146   1.232   4.089   3.529 -0.2231 -0.0459 -0.1567
13253W        W29147  12.016   6.818   0.902  0.3837 -0.3385 -0.1128
13254W        W29148  17.689  17.635   4.609  0.1405  0.0951 -0.4227
13255W        W29149   0.490   9.565   3.831  0.3703 -0.3679  0.0799
13256W        W29150   6.361   5.144   3.876  0.3511  0.2469  0.3102
13257W        W29151  15.008  13.625  14.340 -0.1745 -0.0039  0.0055
13258W        W29152  16.024   8.802   0.703  0.1050  0.0086  0.0739
13259W        W29153   5.130   6.077   0.429 -0.0376  0.0457 -0.2504
13260W        W29154  10.163   0.014  13.892 -0.1099 -0.1565  0.0477
13261W        W29155  17.366   6.143  11.089  0.1514  0.1331 -0.1897
13262W        W29156  14.937   0.662  14.909 -0.0469  0.4885  0.0646
13263W        W29157   5.103   6.093   2.028 -0.1725 -0.1693 -0.3807
13264W        W29158  10.119  17.771   4.942  0.3723  0.1773  0.2034
13265W        W29159   1.923   2.455  13.072 -0.0728  0.0543 -0.0305
13266W        W29160  14.245   2.655  13.442 -0.1046  0.0550  0.2093
13267W        W29161   5.020  13.634   2.311 -0.2558 -0.5594  0.0620
13268W        W29162  15.180   2.886   4.044  0.0298 -0.4248  0.4223
13269W        W29163  13.888  11.788   0.246  0.0422 -0.1581 -0.2379
13270W        W29164  11.351  13.740  14.919  0.2621 -0.2703 -0.0646
13271W        W29165   5.978  12.423   2.465  0.2213 -0.0343  0.0380
13272W        W29166   2.313   9.507   4.087 -0.0436  0.1268  0.0845
13273W        W29167   3.846   6.116  11.115 -0.0182  0.1067  0.0892
13274W        W29168   9.220  18.459  13.146  0.0686  0.2001  0.0657
13275W        W29169   5.864  18.622  12.834  0.1077 -0.0029 -0.1215
13276W        W29170  13.873   8.869   1.231 -0.2587 -0.2334 -0.3931
13277W        W29171  15.243  13.135   2.383  0.4566  0.1023  0.0965
13278W        W29172   5.761  14.007   4.834 -0.2228 -0.0673 -0.1367
13279W        W29173   8.577   7.818   5.603 -0.0514  0.1701  0.1954
13280W        W29174  12.532  14.482  13.282  0.0202 -0.2065 -0.1589
13281W        W29175  19.063   0.459  12.250 -0.3202 -0.2828  0.0981
13282W        W29176   3.206  15.358  11.857 -0.0526 -0.0931  0.0512
13283W        W29177  10.458   0.996   4.227  0.0176 -0.1447  0.2559
13284W        W29178   0.991   0.583   1.629  0.2576  0.0848 -0.2607
13285W        W29179  18.360  11.054   9.235 -0.1554 -0.0178 -0.0990
13286W        W29180  13.072   6.990  14.367  0.1828  0.2032  0.1233
13287W        W29181   1.023   4.443  15.025 -0.3392 -0.1311 -0.0040
13288W        W29182  12.909   0.708  13.626  0.0126 -0.1929 -0.0185
13289W        W29183   8.824  12.846  10.231 -0.1750  0.0689  0.0780
13290W        W29184  14.511   3.737  13.040 -0.3020  0.1528  0.2236
13291W        W29185   2.017   6.395   3.766 -0.1206  0.0335  0.3059
13292W        W29186   6.299  12.585  15.048  0.3258 -0.1313  0.2487
13293W        W29187   8.498  18.499   2.849  0.0690  0.2021 -0.0385
13294W        W29188  11.536   5.662  13.259  0.1476 -0.0074 -0.3360
13295W        W29189   4.158  13.008  11.012  0.3105 -0.0157  0.1509
13296W        W29190   4.780  12.571  14.096 -0.2030  0.1345  0.0050
13297W        W29191  12.366  15.351   0.430  0.0797 -0.1037 -0.0575
13298W        W29192  10.947   5.460   2.458 -0.4418 -0.0175 -0.1552
13299W        W29193   8.567   0.618   0.298 -0.0394 -0.1571  0.3367
13300W        W29194  13.044   5.683   1.774  0.1557 -0.0389  0.1796
13301W        W29195  19.200  17.107   0.637  0.0364 -0.2529 -0.1126
13302W        W29196   2.234  10.098   3.927 -0.1484 -0.1067  0.0936
13303W        W29197   4.410  12.856  13.798  0.1624  0.0036 -0.3078
13304W        W29198  11.308   3.156  12.682  0.2101 -0.0330  0.1116
13305W        W29199  15.555  13.476  14.299  0.0905 -0.0617 -0.2061
13306W        W29200  12.047   2.309  10.828 -0.3219  0.1437  0.2340
13307W        W29201   3.335   1.561  14.014  0.2373 -0.1603 -0.0776
13308W        W29202  10.038  16.822  10.767 -0.2139 -0.1082  0.0332
13309W        W29203   0.388  14.781  12.328  0.2910 -0.3903  0.1756
13310W        W29204   9.450   8.309  13.783  0.1154 -0.1450  0.1260
13311W        W29205   6.063   0.730   1.277  0.2955 -0.2097 -0.0958
13312W        W29206   9.907  14.195   0.131 -0.3731 -0.0114  0.0477
13313W        W29207   7.030   6.286   0.399 -0.0675  0.1689  0.2661
13314W        W29208   6.860  13.327  12.871  0.0490  0.0821 -0.1687
13315W        W29209  17.293   1.117   3.508  0.0167 -0.1611 -0.2420
13316W        W29210   3.171   3.695  12.660  0.0499 -0.3038 -0.2496
13317W        W29211  15.126  15.528  11.670 -0.0456 -0.2193 -0.0281
13318W        W29212  13.159  16.225  14.080  0.2039 -0.2492  0.1068
13319W        W29213   2.466   5.701  13.055 -0.0127 -0.4320  0.0991
13320W        W29214   5.186  14.075   0.387 -0.0162  0.4049  0.0086
13321W        W29215   4.326  10.531   4.798 -0.0051  0.0253 -0.1583
13322W        W29216  11.383  10.643  13.827  0.0629 -0.0863  0.0747
13323W        W29217  16.404   6.561   6.190 -0.2246  0.0252 -0.3260
13324W        W29218  12.116   4.740   3.792 -0.1823 -0.0522 -0.0738
13325W        W29219  16.935   7.099  11.002 -0.0634 -0.0997  0.0512
13326W        W29220  12.758   9.359   2.901 -0.2174  0.2544  0.0827
13327W        W29221  13.233   1.300  11.966 -0.0612 -0.3305 -0.2019
13328W        W29222   0.678   7.192  15.018  0.0725 -0.0995  0.0478
13329W        W29223  16.374   9.190  11.015  0.1038  0.3878  0.1279
13330W        W29224   0.742   2.584   0.846  0.0197  0.1480 -0.0190
13331W        W29225  10.914   9.445  11.395  0.0845  0.1148 -0.1392
13332W        W29226  17.864  15.958  11.359  0.0715 -0.1956 -0.1991
13333W        W29227   8.594   3.898  11.303  0.1347 -0.2382 -0.3338
13334W        W29228   5.385  12.146  10.877 -0.1926 -0.2483  0.6436
13335W        W29229  19.044  18.547  12.168 -0.1514 -0.0107 -0.0234
13336W        W29230  14.074   4.535   3.334  0.2996 -0.4322  0.0152
13337W        W29231   4.589   6.899   3.463  0.0990  0.1000 -0.0055
13338W        W29232  18.131  18.185  14.155 -0.1113  0.3302  0.2336
13339W        W29233   0.962  13.282   5.150 -0.1029  0.1178 -0.4138
13340W        W29234   3.131  12.319   9.890  0.0141  0.2480  0.1315
13341W        W29235   2.032  11.254  13.495  0.0924 -0.3888  0.0243
13342W        W29236  17.697  12.359  13.328 -0.0143 -0.0201  0.2246
13343W        W29237   0.566  11.055   4.169  0.1878  0.1797 -0.0798
13344W        W29238   9.043  11.212   0.300  0.1675 -0.3496  0.3377
13345W        W29239  11.902   1.722   3.291 -0.0646 -0.2866  0.3505
13346W        W29240  18.595  10.713  13.875  0.2349 -0.1533  0.1511
13347W        W29241  18.843   5.804   1.667 -0.0695  0.0565  0.3706
13348W        W29242  13.326   7.808   5.397 -0.1388  0.1164  0.0868
13349W        W29243   5.583  14.035   3.068  0.1736  0.2054  0.0472
13350W        W29244   3.615  17.555  14.389 -0.2018 -0.1565  0.0031
13351W        W29245   4.535   6.487   4.176  0.1711  0.4802 -0.1218
13352W        W29246  13.581  10.412  12.657 -0.3803 -0.3653 -0.3191
13353W        W29247   6.303  16.051  10.290 -0.1707  0.4361  0.1788
13354W        W29248   0.263   7.325  13.689  0.1669 -0.0618 -0.2705
13355W        W29249   3.900  14.061   9.812 -0.0794  0.0696 -0.1643
13356W        W29250   5.332  14.086  10.391  0.3322 -0.0955  0.2797
13357W        W29251   2.499  11.601  13.008  0.1034 -0.0352  0.0021
13358W        W29252   2.945  13.717   9.971  0.0621  0.0224 -0.2632
13359W        W29253  13.050  12.672  14.693  0.2981 -0.2696  0.1488
13360W        W29254  11.373   4.427   1.656 -0.0196 -0.1270 -0.3178
13361W        W29255   1.731   1.782   1.474 -0.1307 -0.3068 -0.0979
13362W        W29256   1.035  10.347   5.172  0.0629 -0.0209 -0.1362
13363W        W29257  10.597   9.758   3.042  0.2900 -0.1977  0.2398
13364W        W29258  15.937  13.143  13.430  0.2244  0.1521  0.2529
13365W        W29259   4.558   2.857  13.592  0.1123  0.1124  0.1397
13366W        W29260  13.239   8.776  14.701 -0.0650  0.2130  0.0544
13367W        W29261  16.359   6.244   2.920  0.1808 -0.1461  0.0781
13368W        W29262   6.803   3.251  11.665  0.0314  0.1372  0.2394
13369W        W29263  11.178   3.314  12.011 -0.1567 -0.3972 -0.1535
13370W        W29264   2.147  17.810   0.945 -0.2009 -0.0449 -0.0560
13371W        W29265   1.008   9.508   0.836 -0.1523  0.1760  0.3825
13372W        W29266   9.954   3.607  14.509  0.0288 -0.1890 -0.0076
13373W        W29267   6.158   2.795  12.459  0.0958  0.1197  0.3811
13374W        W29268  18.061  14.090  12.775  0.1695 -0.0534  0.4093
13375W        W29269   9.912  13.381   2.301  0.1111  0.1919 -0.5191
13376W        W29270   2.842   8.310   1.208  0.0818 -0.1990  0.2727
13377W        W29271  15.412  10.638  13.620 -0.0932  0.3338 -0.1415
13378W        W29272   1.247  16.578   0.051 -0.2356  0.1573 -0.0798
13379W        W29273   0.468  17.343   2.629  0.1424 -0.3525 -0.2123
13380W        W29274   4.313  14.127   0.950  0.1609  0.1307 -0.3116
13381W        W29275   2.372  13.944   2.142 -0.1860  0.1309  0.0398
13382W        W29276   5.380   1.588  13.864 -0.0329 -0.2065  0.2798
13383W        W29277   0.874   0.129  11.764 -0.2223  0.2398 -0.0368
13384W        W29278  12.953   5.428   3.192 -0.2488  0.0749  0.0596
13385W        W29279   6.578   7.002   0.949  0.1616 -0.0442  0.1536
13386W        W29280  16.456   5.691   5.354 -0.3488  0.2419 -0.1326
13387W        W29281   9.036  16.646   2.050 -0.3692  0.1519 -0.2872
13388W        W29282   7.390   9.339   1.202 -0.0388  0.1888 -0.1461
13389W        W29283  14.353  14.161  11.290  0.0689  0.1066  0.3662
13390W        W29284  16.380  17.296  12.917 -0.3442 -0.0445  0.1528
13391W        W29285   0.018   8.876   0.269 -0.1480 -0.0239 -0.1148
13392W        W29286  16.411   9.518  12.824  0.2378 -0.0991 -0.0290
13393W        W29287   4.597   8.467  13.165 -0.4160  0.1944 -0.1075
13394W        W29288  13.723  16.032   4.659  0.5476 -0.3409  0.2693
13395W        W29289   2.512   1.802  11.115  0.3262  0.2260  0.2593
13396W        W29290   3.677   6.396   5.865  0.1648  0.0574  0.1713
13397W        W29291  14.944   2.556   1.977 -0.1885 -0.2607  0.2978
13398W        W29292  11.719  16.313  11.568 -0.2284 -0.0459 -0.2798
13399W        W29293  11.552   2.925  14.764 -0.1110 -0.2206 -0.2961
13400W        W29294   8.911  14.107  13.756  0.0509 -0.0669 -0.1467
13401W        W29295  18.650  12.430   3.628  0.1578  0.1752  0.0026
13402W        W29296   7.548   1.529  14.549  0.2971 -0.0260 -0.0916
13403W        W29297   2.054  11.004   0.034 -0.4122 -0.0834 -0.0361
13404W        W29298   8.829   2.207   0.496 -0.0975  0.2916 -0.3108
13405W        W29299   2.834  12.512   3.197  0.0044 -0.1026 -0.3413
13406W        W29300  12.679  14.996  13.781  0.0336  0.1363  0.0973
13407W        W29301   3.296  18.889   4.383 -0.1537 -0.1422 -0.2488
13408W        W29302  17.315  10.758   0.623  0.2703  0.2787  0.0204
13409W        W29303   1.051   7.954   3.631  0.1192  0.0031 -0.3307
13410W        W29304  18.641   6.212  13.355 -0.2247 -0.2174  0.2872
13411W        W29305  13.378   3.437   3.624  0.1562 -0.0487 -0.1902
13412W        W29306   0.944   7.857   3.157 -0.3172  0.2805  0.3975
13413W        W29307   0.291  13.021  15.054 -0.2303  0.2524  0.3871
13414W        W29308   9.406   0.690   0.516 -0.0530  0.0323 -0.0460
13415W        W29309  19.108   6.662   1.610 -0.1005 -0.0039  0.1148
13416W        W29310   9.616  18.516   2.171  0.4406 -0.0658 -0.1716
13417W        W29311   8.595  14.551   3.180  0.2641 -0.0177  0.2061
13418W        W29312   7.519  12.822  11.888 -0.0178 -0.0504 -0.1736
13419W        W29313  14.196   2.909   1.063 -0.1226 -0.2479 -0.3989
13420W        W29314  10.774   0.826  15.048  0.1410 -0.2907 -0.0531
13421W        W29315  17.447   1.373   0.696  0.0289  0.1944 -0.3176
13422W        W29316   2.477  13.065  13.709  0.0895 -0.0469 -0.1669
13423W        W29317   1.761   9.227  13.654  0.0907 -0.0470 -0.1684
13424W        W29318   4.953   6.806  12.595  0.0680  0.3773 -0.1893
13425W        W29319  13.691  17.489  10.346  0.0806 -0.0578 -0.1532
13426W        W29320  11.936  11.775  14.274  0.0136 -0.0476  0.0297
13427W        W29321   9.893   4.962   0.218 -0.1275 -0.2712  0.0446
13428W        W29322  12.377  16.057   2.117 -0.1378 -0.0723  0.2115
13429W        W29323   1.082   0.333   5.780  0.0017 -0.1062  0.5888
13430W        W29324  18.731   2.764  15.012 -0.0221 -0.1313 -0.2684
13431W        W29325  15.069   3.640   4.177  0.2586  0.0233  0.0723
13432W        W29326  15.703   4.491   4.782 -0.0452 -0.2388 -0.0602
13433W        W29327   2.914  16.851   3.248  0.1124 -0.1373  0.3404
13434W        W29328   4.092  12.713  12.865  0.0702 -0.1625  0.1717
13435W        W29329   4.554   9.552  10.463  0.2792 -0.2017 -0.0067
13436W        W29330  12.946   0.917   2.748 -0.0681  0.0018 -0.0651
13437W        W29331   6.250  12.894  12.222  0.2185 -0.0693 -0.4784
13438W        W29332   2.641   6.583   0.170  0.1642  0.2789 -0.4266
13439W        W29333   8.199   5.889  14.783 -0.3655 -0.2043  0.0841
13440W        W29334   1.452  18.019  13.176  0.3591 -0.0233 -0.0745
13441W        W29335  16.315   6.198  10.720  0.0669  0.0759  0.2991
13442W        W29336   4.732   6.722   0.245 -0.0767 -0.2283  0.0877
13443W        W29337  10.820   5.592   5.018  0.2556 -0.0403 -0.1627
13444W        W29338  17.702   7.014  10.453  0.1473  0.2013  0.0114
13445W        W29339  14.862   5.403  11.397 -0.1706 -0.0075  0.2353
13446W        W29340   7.716  13.822   2.011  0.2313  0.0056  0.1091
13447W        W29341  10.904  13.720   1.187  0.1811  0.0768 -0.1282
13448W        W29342  17.010   7.706   5.174 -0.2226  0.1140  0.1746
13449W        W29343  13.210   3.443   1.807 -0.1225  0.0880 -0.0171
13450W        W29344   2.944   3.073   0.243 -0.3950 -0.2358  0.0671
13451W        W29345  18.747   9.207   0.336  0.0248  0.2534 -0.4146
13452W        W29346   9.973   5.509   1.347 -0.0208  0.3851  0.0318
13453W        W29347   6.511  11.012   0.742  0.0368 -0.1403 -0.0866
13454W        W29348  15.748  15.375  11.777  0.0270 -0.0405 -0.0722
13455W        W29349   8.009  10.179   4.680 -0.0008 -0.1113 -0.4248
13456W        W29350  17.339   4.850  12.265  0.3378 -0.0887 -0.0300
13457W        W29351  10.236  18.577   0.614 -0.2197  0.2860 -0.2837
13458W        W29352   4.587  12.809  11.314  0.1795 -0.1008 -0.0745
13459W        W29353   7.401  16.090  11.369  0.0260 -0.1485 -0.2042
13460W        W29354  15.886  11.823  14.352 -0.2294 -0.0402  0.0685
13461W        W29355   7.896  15.114  11.458  0.2800  0.1856  0.1302
13462W        W29356  12.947  14.460   4.116 -0.3253 -0.1084  0.2414
13463W        W29357  15.313  11.747   2.572  0.0088 -0.0378  0.1108
13464W        W29358   3.632   7.878   3.617 -0.3174  0.0930 -0.2927
13465W        W29359   1.354   2.255  14.293 -0.1114  0.4022  0.2633
13466W        W29360  17.609   6.711   2.993  0.0873 -0.1671 -0.0040
13467W        W29361  15.894   1.840  11.299 -0.0750 -0.0344 -0.1496
13468W        W29362  18.969   0.892  12.414 -0.4308 -0.2539  0.1972
13469W        W29363   3.781   4.646  11.081 -0.0896  0.1766 -0.2016
13470W        W29364  18.672   2.437   0.906  0.4417 -0.0945  0.0753
13471W        W29365  17.237  11.132  10.735 -0.1484 -0.1669  0.0643
13472W        W29366  17.070   5.700   1.302  0.1701 -0.1595 -0.2576
13473W        W29367  17.812   2.674   9.578 -0.1078 -0.3431  0.0636
13474W        W29368  13.967  13.310   1.864 -0.0911  0.0509  0.1849
13475W        W29369  11.063   7.696   3.344  0.0606 -0.2398  0.0270
13476W        W29370  11.526  10.685   1.415  0.2328  0.2446 -0.1147
13477W        W29371   6.739   6.454   0.837 -0.1093  0.1164 -0.0543
13478W        W29372   7.835   0.977   3.306 -0.2808 -0.0491 -0.3874
13479W        W29373   1.614   6.887  15.038  0.0530 -0.2940  0.1478
13480W        W29374   6.059   2.011   0.448  0.0793  0.0859  0.3156
13481W        W29375  14.412   6.959   0.550 -0.2754  0.3879  0.1924
13482W        W29376  12.442   4.289  10.907 -0.1402  0.1833  0.1037
13483W        W29377  17.323   6.739   5.499 -0.1784 -0.0118  0.2313
13484W        W29378  18.192   2.651   4.858 -0.0066 -0.1953  0.1163
13485W        W29379   3.562  17.794   3.634 -0.2731 -0.2636  0.0659
13486W        W29380  12.049   5.365  13.918 -0.1712  0.3641  0.4072
13487W        W29381   3.404   4.439  12.310 -0.1271 -0.2644  0.1541
13488W        W29382   8.864  18.869  13.410 -0.0735 -0.1542 -0.1172
13489W        W29383   4.845   7.939  11.930  0.2896 -0.0149 -0.0500
13490W        W29384   1.011   2.553  12.303  0.0558  0.1428 -0.0684
13491W        W29385  12.256   5.518  10.294  0.0248  0.0934 -0.3106
13492W        W29386   0.247   9.370   1.464 -0.0646  0.1665  0.0199
13493W        W29387  16.593   7.113  14.093 -0.0614 -0.1579 -0.1950
13494W        W29388   3.349  14.313  13.989  0.1292  0.0582  0.0727
13495W        W29389   8.262   6.268   3.408 -0.2976  0.0414 -0.0914
13496W        W29390  12.628  16.531   0.475 -0.2987  0.3977 -0.1383
13497W        W29391   6.668   5.152   0.668 -0.1846 -0.4606 -0.2627
13498W        W29392  12.770   5.435  14.614  0.0324  0.0999  0.0265
13499W        W29393   3.610   5.136   2.491  0.0095 -0.3739 -0.3994
13500W        W29394  17.947  11.285   1.758 -0.0593 -0.0832  0.5576
13501W        W29395  15.365  12.408  10.794 -0.0213 -0.1232  0.1277
13502W        W29396   0.289  11.759  13.427  0.0727  0.0809 -0.0080
13503W        W29397   9.055  10.814   2.751  0.0885 -0.0256  0.0576
13504W        W29398  18.061   5.271  12.640 -0.4293  0.0376  0.1008
13505W        W29399  10.701  18.754   0.670 -0.2248  0.0662  0.0520
13506W        W29400   3.399  19.175   1.888 -0.2092  0.2975  0.1536
13507W        W29401   5.775  10.679   1.765  0.1949 -0.3571  0.0208
13508W        W29402   7.682   6.561   2.444 -0.0962  0.1178 -0.0636
13509W        W29403   1.189   4.011   9.712 -0.0362  0.1374 -0.2235
13510W        W29404   4.479   5.651  14.257 -0.1120  0.2534  0.0494
13511W        W29405   5.319  12.762  15.046 -0.3759  0.0749 -0.0168
13512W        W29406   4.975  17.957   2.627  0.0638 -0.0581 -0.2633
13513W        W29407  18.648  14.690  10.763 -0.1453  0.1016 -0.0471
13514W        W29408   1.369  13.154  11.186  0.0304 -0.0897 -0.3676
13515W        W29409  13.223   0.101  11.043 -0.2590  0.1811 -0.0992
13516W        W29410   1.144   7.433  15.048 -0.2997  0.0399 -0.2317
13517W        W29411   4.385  15.594   2.997  0.1031 -0.0448 -0.0437
13518W        W29412  18.750  14.569  12.365 -0.0763 -0.0071  0.0783
13519W        W29413  10.108  18.348   2.302 -0.1326 -0.0941 -0.0790
13520W        W29414  15.125  17.318  12.655 -0.2918  0.0150 -0.2045
13521W        W29415   0.488  12.576   1.559  0.1969 -0.0563 -0.0435
13522W        W29416   8.861   6.153   2.588  0.0251 -0.0398  0.2706
13523W        W29417  18.019  11.260  11.960  0.0592 -0.4313 -0.3024
13524W        W29418   7.280  15.467  10.767  0.2662  0.0416 -0.1070
13525W        W29419  16.461   7.640  11.631 -0.2283 -0.1177 -0.0561
13526W        W29420  13.550  13.022  11.311 -0.0445 -0.0396  0.0096
13527W        W29421   6.003  16.345   0.369 -0.3084 -0.1889 -0.0318
13528W        W29422   3.082  13.988   2.980 -0.1971  0.4359 -0.0331
13529W        W29423   2.001  10.495   4.436 -0.2189  0.0347 -0.3366
13530W        W29424   3.832   2.798  14.484 -0.0873 -0.0047 -0.0758
13531W        W29425   0.824   7.002  12.512 -0.3177  0.1990 -0.2602
13532W        W29426   8.711   0.338   1.405  0.0883  0.2494 -0.1451
13533W        W29427   2.374   7.510   1.036  0.2425  0.0575 -0.2053
13534W        W29428  18.299  18.577   0.305 -0.3626 -0.2104  0.1869
13535W        W29429   9.246  13.009  12.330  0.0120 -0.1226  0.0211
13536W        W29430  11.157   8.637  14.253  0.0997 -0.2149  0.2357
13537W        W29431  12.298   1.061   2.246 -0.1360 -0.4641  0.1981
13538W        W29432   6.525  15.032  12.998  0.0602 -0.1974 -0.2352
13539W        W29433  12.483   6.855  10.614 -0.1033  0.0555 -0.4272
13540W        W29434  16.372   0.256  13.112 -0.0181 -0.0577 -0.0955
13541W        W29435  14.433  14.427  10.476 -0.2160 -0.1046 -0.2774
13542W        W29436   0.457   6.733  11.799  0.1624 -0.0376  0.3504
13543W        W29437   5.263  14.550  13.415  0.4189  0.0977 -0.0449
13544W        W29438  18.296   2.798   1.148 -0.2226  0.2614  0.0029
13545W        W29439  16.949  15.520   4.727 -0.1324  0.3838  0.1326
13546W        W29440   5.701   1.317   0.598 -0.2907  0.1785 -0.1077
13547W        W29441  13.482  18.828  11.189  0.0231 -0.1350  0.0719
13548W        W29442  11.464   0.818  11.176  0.0900 -0.1401 -0.3593
13549W        W29443   4.638   0.023   4.513  0.0767 -0.1090 -0.0551
13550W        W29444   0.905   6.384   4.761  0.0465 -0.0049  0.0237
13551W        W29445  16.389   1.375   4.299 -0.5258  0.2212 -0.1827
13552W        W29446  11.452  17.591  14.258 -0.1326  0.1673  0.0021
13553W        W29447   8.013   3.629  14.038  0.1736 -0.0490 -0.1822
13554W        W29448  15.837  18.855  11.161 -0.0548 -0.2974  0.1633
13555W        W29449   1.195  11.102  14.007  0.0197  0.0220 -0.0678
13556W        W29450   8.396   2.587  13.635 -0.1611  0.0321 -0.1193
13557W        W29451   2.654  15.404  13.015 -0.1837 -0.3235  0.1289
13558W        W29452   7.712   0.589  13.399  0.0035 -0.2901 -0.1774
13559W        W29453  14.572  11.163   5.516 -0.1228 -0.1915 -0.0104
13560W        W29454   8.158  10.529  13.937  0.1455 -0.0380  0.2748
13561W        W29455   0.390   3.962   0.655  0.1692 -0.1109 -0.1611
13562W        W29456   2.470   7.905  14.269  0.1130 -0.1795 -0.0017
13563W        W29457  13.203   3.356  10.445 -0.3299  0.4722 -0.0626
13564W        W29458   0.364   0.510  11.166  0.3441  0.1429 -0.2413
13565W        W29459  12.099   3.657   1.109 -0.4100  0.3308  0.0147
13566W        W29460   3.532   1.758  11.897  0.2767 -0.1534  0.0091
13567W        W29461  17.869   4.034   0.587 -0.3877  0.1276 -0.1373
13568W        W29462  12.729  10.826   3.177  0.0716  0.0625 -0.3781
13569W        W29463   4.750   4.411   0.826 -0.2595 -0.2198 -0.2105
13570W        W29464   9.110   0.805  14.275 -0.1139 -0.0150  0.0895
13571W        W29465   3.177  15.139  10.022  0.2163  0.0716 -0.0317
13572W        W29466  10.488   7.423  13.388  0.1866 -0.0318 -0.0762
13573W        W29467  18.625  12.264  13.379  0.0628 -0.3080  0.1610
13574W        W29468   0.797  14.591   1.934  0.1198 -0.0700  0.1719
13575W        W29469  12.943   9.023   4.761  0.1196 -0.0195 -0.1180
13576W        W29470  13.351  18.786  14.800 -0.2219  0.5865  0.1171
13577W        W29471   6.312  16.077   1.201 -0.2203  0.1471  0.2439
13578W        W29472  19.152   1.203  14.155 -0.0830  0.1673 -0.1259
13579W        W29473   3.597  14.260   5.576 -0.2247  0.0412  0.0232
13580W        W29474   7.148  18.730  13.059 -0.0912 -0.0233  0.0738
13581W        W29475  15.989   4.308   0.739 -0.3890 -0.4092 -0.0512
13582W        W29476   1.162   5.190  14.211  0.1160  0.2391 -0.3169
13583W        W29477  10.667  14.159  12.055  0.0822  0.1476  0.0229
13584W        W29478   4.281   4.544  12.745 -0.1018 -0.5026 -0.0358
13585W        W29479   0.234  15.837   4.833 -0.1560 -0.1156  0.1122
13586W        W29480  18.813   2.924   1.925  0.0516  0.1814  0.2434
13587W        W29481   8.157   8.581   2.990 -0.0161 -0.1070  0.2543
13588W        W29482   4.529  13.320  11.135 -0.1674  0.1118 -0.2208
13589W        W29483   6.349  18.564  13.900 -0.0942 -0.1438  0.1497
13590W        W29484   1.897  15.462   4.336  0.1964 -0.1253 -0.2111
13591W        W29485   1.440   1.461   3.097  0.0163 -0.5017 -0.0615
13592W        W29486   7.970  15.740   1.237  0.1916 -0.1617  0.4515
13593W        W29487   9.463  14.731   4.730  0.0096 -0.0385 -0.1053
13594W        W29488   4.923  12.180   3.194  0.3968 -0.3601  0.1114
13595W        W29489   6.660  18.415  13.247 -0.1092  0.1359 -0.3861
13596W        W29490  16.292   3.436  14.171  0.0282  0.1128  0.1309
13597W        W29491  18.079  12.807  12.419  0.1288 -0.1093  0.0228
13598W        W29492   6.318   1.900  14.517  0.2026  0.1068 -0.1093
13599W        W29493  14.981  12.679  14.390  0.5176 -0.3033  0.2213
13600W        W29494   1.293   0.078  12.755  0.0005  0.2665  0.1936
13601W        W29495  16.954   7.574  11.013 -0.0183 -0.2641 -0.0568
13602W        W29496   2.703   9.890   3.976  0.0196  0.0545  0.1503
13603W        W29497   0.397  18.051  14.340 -0.1042 -0.1850 -0.1884
13604W        W29498   4.043  10.813   3.456 -0.2060  0.0735  0.0727
13605W        W29499  11.491   5.169  13.221  0.1918  0.0932  0.0094
13606W        W29500   9.492  10.528  11.142  0.0255 -0.0358  0.1119
13607W        W29501  18.187   7.015   0.432 -0.0861  0.0245 -0.3067
13608W        W29502  18.854   4.613   4.619 -0.2379  0.1393 -0.2266
13609W        W29503  12.947   2.449  12.206 -0.1248  0.0047 -0.0639
13610W        W29504  12.136   8.861  10.752 -0.0999  0.3311  0.1180
13611W        W29505  18.453   9.941  13.689  0.1118  0.0576  0.1844
13612W        W29506   4.701  10.029   3.227 -0.1275 -0.0505 -0.3165
13613W        W29507  11.656  11.641  12.863 -0.0767  0.0247 -0.0841
13614W        W29508   8.591   5.290   3.971  0.0202 -0.2223  0.0036
13615W        W29509   0.414   3.608  12.904  0.0596  0.3037  0.1550
13616W        W29510  13.083   7.145   0.868  0.1233 -0.0970 -0.1668
13617W        W29511   5.538  13.830   3.492 -0.2336 -0.0398  0.1202
13618W        W29512   0.652  18.609   3.786  0.1778 -0.0215 -0.1732
13619W        W29513   4.746   5.842  12.746  0.0875 -0.1627 -0.0868
13620W        W29514  19.161   2.396   1.151 -0.1243 -0.0984  0.0964
13621W        W29515  10.014  18.947   2.983  0.0343 -0.1427  0.4514
13622W        W29516   0.212   8.074  15.012  0.1822 -0.2844 -0.0420
13623W        W29517   4.392   3.292  11.552  0.0134 -0.0167  0.0143
13624W        W29518  18.542   5.413   4.858 -0.2309 -0.1290  0.1543
13625W        W29519   2.056  15.457  14.599  0.0838 -0.0084  0.0201
13626W        W29520   8.705  13.780   9.170 -0.0086  0.0393 -0.2623
13627W        W29521   0.123   1.279   4.024  0.2785  0.3478  0.1458
13628W        W29522  18.620   4.758   3.816 -0.1619  0.0254 -0.1473
13629W        W29523   1.136   6.169   2.524  0.1995  0.5010  0.1094
13630W        W29524   8.141   7.715   1.083  0.3740 -0.4463  0.0025
13631W        W29525  10.424  12.068  12.251  0.1138  0.2036 -0.0017
13632W        W29526   7.418  13.145  12.992 -0.4624 -0.1609  0.0541
13633W        W29527   8.123   4.031  11.619  0.0838 -0.0991  0.0532
13634W        W29528   4.817   0.361   3.117  0.0607 -0.0350 -0.2601
13635W        W29529  17.221   3.724  11.969 -0.3085 -0.1274 -0.1752
13636W        W29530  13.815  10.876   3.987  0.0527 -0.4470 -0.2631
13637W        W29531  17.679   2.402   5.706 -0.0153 -0.1340  0.0788
13638W        W29532   2.463   6.998  11.028  0.0771  0.3742  0.2193
13639W        W29533   0.694   2.550  13.414 -0.1877  0.0092 -0.0953
13640W        W29534  17.280   8.596  11.429  0.1830  0.1814  0.6197
13641W        W29535   9.135   9.162   0.985 -0.1130 -0.2939 -0.2368
13642W        W29536   4.761  16.331   4.542  0.1988 -0.2416  0.2810
13643W        W29537  11.627   7.492  10.866 -0.0473  0.0651 -0.2995
13644W        W29538   7.875   7.067  13.883 -0.2874  0.0200 -0.0617
13645W        W29539   5.972  13.399  13.239  0.1760  0.1507  0.2395
13646W        W29540  12.468   7.490  13.290  0.1148 -0.4578  0.1076
13647W        W29541  16.710   3.815   3.979 -0.0683 -0.0303 -0.0087
13648W        W29542  10.594   6.988   4.106 -0.0551 -0.0941 -0.1509
13649W        W29543  13.140   7.515   1.665 -0.2241 -0.0001  0.0594
13650W        W29544   1.392  18.348   2.191 -0.1455 -0.0119 -0.3371
13651W        W29545  15.147  12.980  11.406 -0.0882 -0.3954 -0.0703
13652W        W29546  17.508   9.031  11.605 -0.1701  0.1636  0.0071
13653W        W29547  16.076   7.457   0.298  0.2357 -0.0914 -0.3211
13654W        W29548  13.721   1.591   1.463 -0.0388  0.2634 -0.0150
13655W        W29549  18.814   8.884  12.367 -0.1706 -0.0951 -0.0630
13656W        W29550  13.259   9.307  14.471  0.1170  0.2568 -0.0864
13657W        W29551   7.844  11.372  13.630  0.2405  0.1813 -0.1636
13658W        W29552   2.077  12.956   1.292  0.0604  0.2224  0.1803
13659W        W29553   5.293  17.509   3.567 -0.1438  0.0225 -0.0246
13660W        W29554  18.216   1.435  14.084 -0.2872  0.0012 -0.3262
13661W        W29555  19.139  17.652   4.192 -0.1156 -0.0269  0.0396
13662W        W29556  16.371   5.098   1.211 -0.2298 -0.1004  0.0112
13663W        W29557  10.078  16.853  14.122  0.0653  0.0975 -0.1758
13664W        W29558   9.403  16.911   0.228 -0.0886 -0.0898 -0.1176
13665W        W29559  11.867  14.476   0.579  0.3093 -0.0350 -0.3687
13666W        W29560   3.589   7.813   5.026  0.0173 -0.1643 -0.3756
13667W        W29561  11.218  11.875   2.500  0.2834 -0.0315  0.1148
13668W        W29562  11.267   9.003  13.369 -0.1401  0.0154  0.1033
13669W        W29563  18.320  13.242   1.121  0.1820  0.1098 -0.1494
13670W        W29564  16.397  11.212  12.537 -0.1357 -0.0586 -0.1129
13671W        W29565  15.326  15.939   1.358 -0.2926  0.2497 -0.4368
13672W        W29566   6.827   1.248   1.536  0.3565 -0.0048 -0.3530
13673W        W29567   3.507  16.665   9.770 -0.1309 -0.2993  0.1264
13674W        W29568  13.134  12.541  11.625 -0.1587 -0.4279  0.2684
13675W        W29569  11.814  16.152   0.744  0.0793  0.1022  0.2269
13676W        W29570   4.749  18.789  10.506  0.0740  0.3219  0.1932
13677W        W29571  13.328  19.162  12.291 -0.2171  0.1232  0.2566
13678W        W29572  17.344  10.372   2.630  0.0591 -0.0160 -0.0416
13679W        W29573   7.927   7.403   3.542  0.2633 -0.0674 -0.1113
13680W        W29574  16.594  16.436   1.167  0.1526  0.0372 -0.1870
13681W        W29575  16.079  17.397   2.886 -0.1033  0.4865  0.0430
13682W        W29576   7.632   3.247  14.873 -0.0507  0.2168 -0.0935
13683W        W29577   3.012   0.983  12.032  0.0707 -0.0273  0.2432
13684W        W29578   0.665   1.083  12.696  0.1633 -0.2027 -0.4158
13685W        W29579  13.798   4.314   4.430  0.0227 -0.4844 -0.1954
13686W        W29580   9.337   2.586  13.826  0.1798 -0.1788  0.0381
13687W        W29581  15.858   5.024   4.609  0.1948  0.0963 -0.0718
13688W        W29582   4.896   3.857  14.952  0.0361 -0.2086 -0.0015
13689W        W29583   6.859  18.325  14.942  0.0347  0.0840 -0.0722
13690W        W29584   4.488  10.962  12.142 -0.2342  0.0768  0.0691
13691W        W29585   9.502  18.954   0.327  0.2398  0.0694  0.0099
13692W        W29586   0.100  12.918  14.503 -0.3266  0.2541 -0.0169
13693W        W29587   1.844   8.834  11.768  0.2026 -0.0617 -0.1032
13694W        W29588  12.279   3.249  10.753  0.1286  0.2229  0.0161
13695W        W29589   5.855  12.940   0.000 -0.1210 -0.1634 -0.0067
13696W        W29590  11.677   4.139  10.542 -0.3348 -0.2789  0.2681
13697W        W29591  15.331   9.161  14.586  0.3952 -0.1685 -0.2080
13698W        W29592   1.008  14.736   0.492  0.0077 -0.1402 -0.1037
13699W        W29593   4.173   5.843   1.295 -0.0091  0.1234 -0.0870
13700W        W29594  18.828   9.200   4.066  0.0974  0.2229 -0.0424
13701W        W29595  16.339  17.810  12.134  0.1044 -0.1967 -0.1019
13702W        W29596   5.982   8.000  10.751 -0.0663 -0.0407 -0.2139
13703W        W29597  14.371  11.394   0.635  0.1285 -0.2169  0.0194
13704W        W29598   4.637   7.913   5.355  0.0427  0.0319 -0.1988
13705W        W29599  17.737   5.249  12.072 -0.0902  0.0087  0.3493
13706W        W29600   6.637  11.550   2.391 -0.0020  0.2190 -0.0199
13707W        W29601   5.095   6.270  10.948 -0.1319  0.3180  0.5061
13708W        W29602  15.217   3.511   4.654 -0.3052  0.1098 -0.1294
13709W        W29603   7.220  11.391   0.672 -0.2438  0.2592  0.2168
13710W        W29604   5.165   9.806  13.421  0.0015 -0.2002 -0.0746
13711W        W29605   5.209   1.788  11.520 -0.2181 -0.2764  0.1598
13712W        W29606  13.729   8.174  10.320 -0.0763  0.0760  0.3627
13713W        W29607  16.177   2.153  14.676 -0.2526  0.0443 -0.3779
13714W        W29608  16.670   6.217   2.530 -0.0702 -0.3080  0.2157
13715W        W29609  12.241  18.007  10.539  0.2837  0.0600  0.1487
13716W        W29610  10.230  11.528   2.377 -0.0234 -0.1562 -0.0389
13717W        W29611  18.742   7.164   4.437  0.0441 -0.1474  0.4177
13718W        W29612   0.791   1.767   0.638 -0.2187 -0.0777  0.3399
13719W        W29613   3.592   4.967   5.313 -0.4155 -0.2151  0.0028
13720W        W29614   5.525  10.353   2.082  0.0390  0.0214 -0.0401
13721W        W29615  13.849   6.432  13.367  0.0317 -0.3294  0.1657
13722W        W29616  15.239  12.690  12.461  0.1391 -0.1492  0.0336
13723W        W29617  16.551   8.817   2.715 -0.0207 -0.0153 -0.2634
13724W        W29618   9.374   4.280   0.657  0.4321 -0.0087  0.0122
13725W        W29619   6.195   5.323   2.385 -0.1482  0.2579  0.2537
13726W        W29620   2.164   0.112   2.156 -0.1874  0.3094 -0.0001
13727W        W29621   6.801  18.342  12.292 -0.0197 -0.0135  0.0683
13728W        W29622   6.359  19.220   3.806 -0.2506 -0.0694 -0.0386
13729W        W29623   2.405  11.818   3.587  0.1689  0.1386  0.2461
13730W        W29624  14.237   4.920   1.505 -0.3195  0.1737 -0.0509
13731W        W29625   5.491   4.902   6.035 -0.1761  0.1493  0.4745
13732W        W29626   7.123  12.995   0.419  0.0950  0.3664 -0.0658
13733W        W29627  11.903  17.302  11.618  0.1259  0.0084  0.1424
13734W        W29628  11.776   4.950   0.409 -0.0179 -0.0026 -0.1669
13735W        W29629   1.024   1.336  13.108  0.2656 -0.0288  0.1498
13736W        W29630  15.557   7.289   4.459 -0.3227  0.2159  0.2676
13737W        W29631  18.630  10.654   4.952 -0.0315  0.1137  0.1476
13738W        W29632   9.410   1.472   4.161 -0.0475 -0.1195  0.1534
13739W        W29633   8.628   4.289   0.123 -0.0132 -0.1039  0.1637
13740W        W29634   2.324   9.200   2.593 -0.2166 -0.1720  0.0253
13741W        W29635  12.289   2.021   1.107  0.2994  0.3485  0.0444
13742W        W29636  10.672   9.072   3.847  0.3472  0.0928 -0.4241
13743W        W29637   3.677   2.576   9.889  0.2650  0.2517  0.0709
13744W        W29638  12.819   4.685  10.980  0.1493 -0.2736  0.3221
13745W        W29639   4.336  16.418  10.806  0.4562 -0.1208  0.0633
13746W        W29640   3.853   4.187  12.211  0.0544 -0.0608 -0.1376
13747W        W29641   7.841  12.729  14.906  0.0054  0.1685 -0.0493
13748W        W29642   0.362   8.293  13.381  0.0414  0.0511 -0.2623
13749W        W29643   8.091   1.883   4.847 -0.2618 -0.2271  0.2377
13750W        W29644  17.686  12.971   1.428  0.0625 -0.1349  0.0930
13751W        W29645   0.455  16.161   3.964  0.4999 -0.0662  0.0601
13752W        W29646   5.216  11.799   3.784 -0.2832  0.1949  0.1465
13753W        W29647  19.014   4.013   3.265 -0.1988  0.1867  0.3020
13754W        W29648  12.242   7.966   0.971  0.0697 -0.0199 -0.0780
13755W        W29649  14.097   0.337  12.343 -0.2640  0.1397  0.0729
13756W        W29650   1.918  12.313   0.462  0.2364  0.0265  0.1729
13757W        W29651   0.192   7.013   3.716  0.0183 -0.0362 -0.0516
13758W        W29652  17.616  11.766  11.239  0.0636  0.1940  0.0827
13759W        W29653  18.556   6.548   5.325 -0.3168 -0.1029  0.0176
13760W        W29654  17.962   8.389   3.400  0.0613 -0.1143 -0.3188
13761W        W29655   6.385  14.744  11.025 -0.1227 -0.0825  0.0203
13762W        W29656   8.761  13.146   1.425  0.3044  0.0215  0.0155
13763W        W29657  12.779  16.717  11.464 -0.2888 -0.2696 -0.1258
13764W        W29658   3.227  12.214  13.123 -0.2216  0.1190  0.1234
13765W        W29659   4.379  10.050  13.955  0.2454  0.1195 -0.1380
13766W        W29660  14.413   7.696   4.812  0.0699 -0.0652 -0.0985
13767W        W29661  10.511   2.030  13.706 -0.1799  0.1117 -0.1666
13768W        W29662  18.953  17.025   3.059 -0.0819 -0.1395 -0.1511
13769W        W29663   6.585   9.514   3.351 -0.0940  0.0538  0.2628
13770W        W29664   1.963  14.707   2.508 -0.0924 -0.2316  0.1967
13771W        W29665   0.447   8.569   5.269 -0.3420 -0.0812 -0.1746
13772W        W29666  10.913  10.899   3.740 -0.1737  0.0592  0.0905
13773W        W29667   8.563  14.855   3.759 -0.0525  0.2617 -0.0813
13774W        W29668  16.885  10.516   4.626 -0.0827 -0.1028 -0.2072
13775W        W29669  16.593  13.505   2.163 -0.2911  0.2568 -0.0436
13776W        W29670  18.480   6.021  12.927 -0.2464  0.2483 -0.2852
13777W        W29671  10.981   2.202   2.734  0.1132 -0.1383 -0.1625
13778W        W29672  14.271   5.661  13.719 -0.0645  0.0785 -0.1380
13779W        W29673   1.398   1.635  12.564 -0.2663  0.1012 -0.2162
13780W        W29674   2.529  12.592   3.652  0.3004 -0.2368 -0.2594
13781W        W29675   5.020   9.704   2.090  0.2386  0.1843  0.3504
13782W        W29676  12.615  17.803   1.837 -0.1989  0.0333 -0.1081
13783W        W29677  11.453  10.094   0.058 -0.0129  0.1716  0.1368
13784W        W29678   0.424  11.765   0.391  0.0935  0.2736 -0.0554
13785W        W29679   6.856   6.488  12.237  0.3124 -0.0867  0.1761
13786W        W29680  13.453   6.651  13.500 -0.1475  0.4349 -0.0353
13787W        W29681   8.833   7.905  10.444 -0.1092  0.1937  0.2888
13788W        W29682  15.104  14.735   2.155  0.1440 -0.4231  0.0215
13789W        W29683   6.752   2.304   4.818 -0.2664  0.1780 -0.0132
13790W        W29684  10.431   7.663   4.836 -0.1765  0.2577  0.1472
13791W        W29685   4.644  10.732  13.127 -0.0162  0.1235 -0.2671
13792W        W29686  13.263   9.709  13.604  0.1177  0.1899 -0.0066
13793W        W29687  12.794  13.809  14.852 -0.3017  0.2338 -0.2141
13794W        W29688  17.711   5.211  11.261 -0.0647  0.0103  0.0644
13795W        W29689   9.451  15.694   0.892  0.4034 -0.0333  0.0803
13796W        W29690   5.292   3.222  11.015  0.0174  0.0656  0.1660
13797W        W29691   4.760  12.082   1.876  0.0729  0.0518  0.0792
13798W        W29692   9.711   0.692   1.767  0.1395  0.1446  0.2897
13799W        W29693   8.859   6.025   4.729 -0.1318  0.0866 -0.3946
13800W        W29694   0.146  11.249  10.746 -0.0561 -0.0332 -0.0589
13801W        W29695   5.324  12.763  14.150  0.1225  0.1467 -0.0699
13802W        W29696  11.680  16.530  14.218 -0.3747  0.0076  0.0178
13803W        W29697  12.517  13.473   2.868  0.2167 -0.0334 -0.0546
13804W        W29698  11.086   0.283   4.167 -0.3334 -0.0757  0.0928
13805W        W29699   7.826  10.254   1.947  0.0348 -0.0967 -0.1746
13806W        W29700  11.171  14.472   1.441 -0.2289  0.2996 -0.0448
13807W        W29701   2.211  10.189   9.680  0.3143 -0.0712 -0.4821
13808W        W29702   8.170  16.512   0.702  0.1832 -0.2195  0.1808
13809W        W29703  14.492   8.403  12.842  0.1074  0.2366 -0.2197
13810W        W29704   4.598  13.663   4.513  0.1229  0.0869 -0.0981
13811W        W29705   0.314  17.874   4.368 -0.2491  0.1259 -0.2413
13812W        W29706  16.474   5.822   0.452  0.1075  0.0887 -0.0782
13813W        W29707  13.991  15.713   3.703  0.2025 -0.0998 -0.0241
13814W        W29708  11.287   2.675  13.031  0.1496  0.2040 -0.1763
13815W        W29709  14.313  16.313   2.884 -0.1055  0.2100  0.0720
13816W        W29710   7.024  16.201   0.164 -0.1429 -0.1116 -0.0660
13817W        W29711   4.776   9.616   1.638  0.1952  0.0739  0.4421
13818W        W29712   6.845  11.556  13.845  0.0275 -0.1931  0.1161
13819W        W29713   7.815   4.844  13.687 -0.1312  0.0313  0.1833
13820W        W29714   8.021   2.698  13.973  0.2430 -0.0746  0.0921
13821W        W29715  16.021  15.291   1.710 -0.1670 -0.1833  0.0948
13822W        W29716   1.063  18.853  12.012  0.0421 -0.3002  0.3008
13823W        W29717  11.872   1.283   3.534 -0.0777 -0.0747 -0.5489
13824W        W29718   5.696  14.170  14.223 -0.3478  0.3716 -0.1592
13825W        W29719  15.050  12.069   4.780 -0.3400 -0.1632  0.2363
13826W        W29720   0.511   1.331   3.704 -0.0991 -0.2741  0.0277
13827W        W29721   2.808  15.294   9.555 -0.0001 -0.0800 -0.2203
13828W        W29722  13.338   7.514   3.390 -0.6642 -0.1720  0.1719
13829W        W29723   2.497   3.395   0.182  0.1088  0.1087 -0.0673
13830W        W29724  15.206  19.172   1.485 -0.0196  0.3548 -0.1215
13831W        W29725   8.039   3.758  12.025 -0.0713 -0.0680  0.0561
13832W        W29726   8.410  16.620  10.004  0.0345  0.2925  0.0981
13833W        W29727   5.617  14.915  12.904 -0.0183  0.0039  0.3831
13834W        W29728   8.229  12.243  10.884  0.1759 -0.2797 -0.2368
13835W        W29729   1.577   6.678   5.298  0.0585  0.0143 -0.1706
13836W        W29730   5.199   9.886   3.134  0.0224 -0.1571  0.0577
13837W        W29731  11.290   3.317  15.028  0.1556 -0.0193  0.0242
13838W        W29732   6.303   7.499   3.080 -0.0665 -0.0883  0.1236
13839W        W29733  13.545   5.111  13.251  0.1644 -0.0798  0.1423
13840W        W29734   4.015  14.346  14.692 -0.0511  0.3336 -0.1076
13841W        W29735   6.628  10.692   1.226  0.0282 -0.1107  0.1254
13842W        W29736   5.798  17.510   3.410  0.0791  0.0340  0.3733
13843W        W29737   3.334   9.058   5.622  0.5918  0.0146  0.0326
13844W        W29738   5.320   6.959   5.345 -0.0767 -0.0033 -0.2324
13845W        W29739   3.446  13.388  11.411 -0.2238  0.0693 -0.3846
13846W        W29740  11.588  11.423  14.274 -0.3329  0.0265  0.0828
13847W        W29741   3.535   3.024   1.967 -0.2203  0.0046 -0.1351
13848W        W29742   1.278   3.550   0.057 -0.2521  0.1774  0.3383
13849W        W29743  16.349   9.966   0.738 -0.0228  0.1808  0.1181
13850W        W29744   0.777   7.060   5.437 -0.0697 -0.0892 -0.0588
13851W        W29745  13.451   7.379  11.881  0.2620  0.0105  0.1701
13852W        W29746  14.889  14.680   1.247  0.0184  0.0237  0.3244
13853W        W29747   1.519   7.361  13.738  0.1287  0.2724 -0.3216
13854W        W29748  11.853   5.575  11.783 -0.0857  0.2984  0.1040
13855W        W29749   1.982   5.602   5.924  0.4740  0.0881  0.2703
13856W        W29750   9.188   3.726   0.170  0.1959 -0.0694  0.0797
13857W        W29751   0.165  18.024   1.689  0.0687  0.2884 -0.4905
13858W        W29752  10.601   9.554  10.044  0.4984  0.2214 -0.2079
13859W        W29753  14.050   7.752  10.140  0.2480 -0.1043  0.3304
13860W        W29754  16.963  17.275   3.334  0.2290 -0.2834  0.1794
13861W        W29755  17.354  15.176   4.614 -0.0261 -0.0515  0.3532
13862W        W29756   0.955   5.704   4.410 -0.0988  0.1341 -0.1938
13863W        W29757  12.452  16.976   0.931  0.0693 -0.1613  0.0627
13864W        W29758   4.152   1.583  12.589  0.1832  0.0784  0.2460
13865W        W29759   3.870   1.348   3.858 -0.1687 -0.2745  0.0017
13866W        W29760  15.834   5.674   3.138  0.0572  0.1444  0.0486
13867W        W29761   4.830  10.864  11.349 -0.0508 -0.5716  0.1412
13868W        W29762  16.385   8.608  14.768 -0.1780  0.2259  0.2286
13869W        W29763  18.350  12.439   0.864 -0.3625  0.1112 -0.0531
13870W        W29764  13.639  16.401  11.107  0.0023  0.1290 -0.3003
13871W        W29765   1.438   3.292   4.710  0.2677 -0.1885  0.5525
13872W        W29766   2.000   1.890   5.257 -0.2661  0.2730 -0.1522
13873W        W29767  16.784  10.786  10.705 -0.5545  0.0317 -0.2962
13874W        W29768   0.708   0.514   3.487  0.0965 -0.3567 -0.0781
13875W        W29769  18.176   1.199  12.206  0.1033 -0.0578  0.1789
13876W        W29770  18.865  17.392   0.868  0.2238 -0.0391 -0.0606
13877W        W29771   8.017  11.764   4.764  0.2804  0.1821 -0.0353
13878W        W29772   8.938   7.859   2.705  0.2305 -0.0662  0.0993
13879W        W29773  13.436   6.296  14.014 -0.1444  0.2852 -0.1498
13880W        W29774  14.112   3.203  12.489  0.3466 -0.0107  0.0401
13881W        W29775  13.542   2.013   3.817 -0.3096 -0.1815 -0.3737
13882W        W29776  14.064   1.414  11.291 -0.1135 -0.4462 -0.2022
13883W        W29777   6.464  10.250  11.739  0.0584 -0.1950  0.2216
13884W        W29778   2.315   8.505  15.027 -0.1688  0.1684 -0.1720
13885W        W29779  15.611   1.784  10.915  0.0714  0.1700  0.3950
13886W        W29780   2.514   4.555   3.738  0.2399 -0.0605 -0.0473
13887W        W29781   7.476  15.153  11.086  0.0824  0.4274 -0.2853
13888W        W29782   3.180  11.725  13.726 -0.1425 -0.0302 -0.1517
13889W        W29783  14.997  11.342   0.581  0.0319 -0.0918  0.2133
13890W        W29784   9.544   8.871   5.968  0.1343  0.2610 -0.0505
13891W        W29785  16.690   5.541  13.000  0.0074 -0.0951  0.1678
13892W        W29786  14.678  16.865  14.332  0.1431  0.2815 -0.3215
13893W        W29787  13.166   6.761   2.338 -0.1490 -0.1283  0.0427
13894W        W29788  13.463  17.194   9.839 -0.0865  0.0010 -0.0545
13895W        W29789   3.849   3.220   4.504 -0.2197  0.1515  0.2917
13896W        W29790  11.183  11.215  11.452 -0.4262  0.0527 -0.1531
13897W        W29791   8.648  15.201  12.695  0.3803  0.2536 -0.1052
13898W        W29792   5.612  15.158  12.379  0.3306 -0.3578 -0.3124
13899W        W29793   9.545   4.624   1.561  0.1360  0.0805  0.2062
13900W        W29794   2.264   2.191   2.190  0.1159  0.2045  0.3265
13901W        W29795  14.007   3.598  10.954 -0.0943 -0.5815 -0.0421
13902W        W29796   2.696   6.037   0.128 -0.0144 -0.0250 -0.0295
13903W        W29797  11.162  16.648   1.652 -0.2337 -0.0072 -0.1284
13904W        W29798  14.906   6.605   3.211  0.2119 -0.1288 -0.2633
13905W        W29799   1.044   8.728  11.984 -0.0833 -0.2224  0.1797
13906W        W29800  13.128   7.054   3.009 -0.1830  0.2766  0.1372
13907W        W29801   7.099   0.319  14.919 -0.2808 -0.2118 -0.2116
13908W        W29802  10.130   7.081   0.870  0.2817 -0.1726  0.1083
13909W        W29803   4.213  13.478   4.793 -0.0396 -0.2373  0.1675
13910W        W29804  18.682  17.453   4.252 -0.0693 -0.0322 -0.1142
13911W        W29805   4.813   5.480   0.147 -0.1487  0.0030  0.0534
13912W        W29806  12.642   2.965  10.810  0.2020  0.2149 -0.1632
13913W        W29807   5.786   3.534  13.500  0.0247  0.2037  0.2562
13914W        W29808   4.143  13.884  11.269  0.1355  0.2796 -0.1156
13915W        W29809   0.563  12.694  14.464  0.0490  0.0245  0.2291
13916W        W29810   5.062   4.334  11.771 -0.0777  0.3555  0.3011
13917W        W29811   0.976   5.376  12.555  0.2078 -0.3407 -0.3021
13918W        W29812  11.478   1.177   4.534 -0.3303  0.2144  0.1413
13919W        W29813   7.799  16.303   4.058  0.0522  0.3334  0.1006
13920W        W29814   2.546   5.815   5.229 -0.2283  0.1098  0.2098
13921W        W29815  12.110   4.870  14.843  0.2751 -0.0275 -0.1678
13922W        W29816   1.733  13.510  11.874  0.0115 -0.2808 -0.3814
13923W        W29817  15.954  12.737   4.586  0.0077  0.1735 -0.0835
13924W        W29818  12.324   5.736  14.890  0.0191 -0.1573 -0.1650
13925W        W29819   3.958   1.953   2.853 -0.3726  0.1548 -0.0472
13926W        W29820   1.745   0.139   3.302 -0.0853 -0.0093  0.1980
13927W        W29821   0.674  11.812  13.037 -0.1517 -0.0172  0.0568
13928W        W29822   6.217  17.699  10.105 -0.3146  0.0397  0.1638
13929W        W29823  11.545  12.330   3.761  0.3373 -0.0341 -0.1406
13930W        W29824  15.877   7.867   4.273 -0.3765 -0.1258 -0.0315
13931W        W29825  10.486   8.871  11.374 -0.0198  0.2313  0.1173
13932W        W29826  18.505  13.099   4.269 -0.1376 -0.1019 -0.2475
13933W        W29827  11.497   6.359  12.017  0.1903 -0.0925 -0.1652
13934W        W29828  13.448  12.317   3.666  0.5495 -0.2906  0.1634
13935W        W29829   7.863   9.339   2.411  0.1898 -0.2375 -0.0096
13936W        W29830  13.775  10.689   1.644  0.2242  0.0686 -0.1549
13937W        W29831  17.504  13.131  13.754  0.3495 -0.1203 -0.3607
13938W        W29832   7.121  18.214  13.241  0.3792 -0.0630  0.0341
13939W        W29833   6.453   3.491   2.391  0.0797 -0.1869 -0.0467
13940W        W29834  12.830  16.574   2.103  0.0726 -0.0097 -0.0471
13941W        W29835  11.426   3.087   4.422  0.2232 -0.0922  0.0260
13942W        W29836   0.383  12.255   1.107  0.4513 -0.0797  0.0922
13943W        W29837  11.122   1.266  11.634  0.0665 -0.3478 -0.3836
13944W        W29838   2.428   8.104   3.073 -0.1932 -0.2672  0.4285
13945W        W29839   1.200  13.762  12.489 -0.0868 -0.3205 -0.1343
13946W        W29840  19.160   0.631  13.878 -0.2583 -0.0652  0.0994
13947W        W29841  17.846   5.350   6.023 -0.1676 -0.3120  0.0777
13948W        W29842  15.924  11.040   0.690  0.0215 -0.2633  0.3184
13949W        W29843   0.720   4.791   1.021  0.2563 -0.2275  0.3039
13950W        W29844  17.635   8.443  14.622 -0.0895 -0.2294 -0.3043
13951W        W29845   2.662   5.232   3.957 -0.0051  0.2291  0.1286
13952W        W29846  10.806  12.495  14.298  0.2772  0.1435  0.2607
13953W        W29847   1.337   6.488  10.233  0.1348 -0.2171  0.3581
13954W        W29848   4.547   6.635  14.477 -0.1979  0.0583 -0.3431
13955W        W29849   4.950  17.822   4.318  0.2361 -0.3835 -0.0163
13956W        W29850  17.105   8.106   2.510  0.0824  0.1441 -0.0269
13957W        W29851  11.227  17.416  13.784  0.0400  0.2774  0.1742
13958W        W29852   8.196   9.125  11.890  0.1978  0.3721 -0.0110
13959W        W29853   2.286   7.244   2.669 -0.0780  0.0797 -0.1146
13960W        W29854  11.799  12.895  10.155 -0.1383 -0.1727 -0.0745
13961W        W29855   1.091  18.975   3.059 -0.2144 -0.0157 -0.1884
13962W        W29856  19.148  19.011  13.616 -0.0272  0.1127 -0.3257
13963W        W29857  16.826  14.747  14.466 -0.0418 -0.1446 -0.1992
13964W        W29858   3.336  16.707   4.056  0.2276 -0.3430  0.1552
13965W        W29859   4.381  18.372  13.813 -0.0695  0.0987  0.0635
13966W        W29860   7.012  15.421   2.422  0.3199 -0.2530  0.0740
13967W        W29861  17.656   8.203  11.469 -0.0949  0.0730  0.3343
13968W        W29862  19.179   3.989   3.781  0.1539 -0.3008  0.1001
13969W        W29863   8.527  18.853   4.388  0.3525  0.0481 -0.2779
13970W        W29864  17.008  17.576   0.114  0.0513 -0.0992 -0.1983
13971W        W29865  17.995   0.178   3.847  0.0084 -0.1555  0.1612
13972W        W29866  12.201  14.216   4.562  0.0343 -0.1207 -0.1918
13973W        W29867   7.390  11.876  14.676  0.0088 -0.0737  0.0691
13974W        W29868   5.500   6.507   3.693 -0.3590 -0.0489  0.0675
13975W        W29869   5.334  14.517   0.018 -0.1663  0.0178  0.2476
13976W        W29870   3.754  11.527  11.165 -0.1904  0.0998  0.0178
13977W        W29871   2.555   2.454  15.027  0.0817 -0.0205 -0.0320
13978W        W29872   4.924   0.942  13.234 -0.1699 -0.1667  0.2615
13979W        W29873  13.856  15.481  11.631  0.0003  0.2171  0.2466
13980W        W29874   4.718  19.040   3.047  0.3029 -0.4763 -0.4423
13981W        W29875  15.051   9.370  11.410 -0.0517 -0.0654  0.2219
13982W        W29876   7.601   1.893  10.543 -0.1284 -0.1992 -0.0492
13983W        W29877   9.278  10.589  12.121 -0.2930  0.1893 -0.2458
13984W        W29878  17.640   9.502   2.035 -0.3985  0.0685 -0.1600
13985W        W29879   0.963   9.786  12.777 -0.0563  0.2182 -0.1427
13986W        W29880  12.167   1.952   5.362 -0.0978  0.3520  0.3459
13987W        W29881  18.766   8.706   3.772 -0.2813  0.2186 -0.1118
13988W        W29882   5.282   5.341   2.664  0.0312  0.4956  0.1339
13989W        W29883   7.725  10.790   0.044 -0.0425 -0.1507 -0.4469
13990W        W29884  18.342   1.134  10.832 -0.1873  0.3812  0.3007
13991W        W29885   0.315   5.842   0.281  0.3317 -0.1128 -0.1290
13992W        W29886  11.323   7.755   3.827 -0.0458  0.4619  0.1601
13993W        W29887   1.554   4.106  14.319 -0.3745  0.1768  0.0450
13994W        W29888  18.764  14.965   4.967  0.2527 -0.1327 -0.3258
13995W        W29889   8.403  10.881   3.774 -0.0737  0.5465  0.1612
13996W        W29890  11.083   2.700   2.744 -0.0577 -0.0903 -0.1364
13997W        W29891   0.173   5.126   0.445 -0.1106 -0.0176  0.2298
13998W        W29892  10.008   5.107   2.066  0.3886  0.0371  0.0011
13999W        W29893  18.638  16.760   9.413  0.2659 -0.3793  0.0076
14000W        W29894  15.148  17.160  14.676  0.2309 -0.1512 -0.1195
14001W        W29895   7.245  11.016   2.591  0.1261 -0.2237 -0.2603
14002W        W29896  15.187  14.849   1.649  0.3079  0.3291  0.1406
14003W        W29897   2.946   4.842  11.448  0.0977 -0.3128 -0.2105
14004W        W29898   8.403   0.553   0.704  0.1905  0.1556 -0.0191
14005W        W29899   3.054   0.387   0.591 -0.1356 -0.0258 -0.1683
14006W        W29900   4.064   3.613   5.890  0.2588  0.0624 -0.1145
14007W        W29901  14.876  12.694   0.161 -0.1361  0.1434 -0.1905
14008W        W29902  14.140  17.472   4.128 -0.2992 -0.0974 -0.1961
14009W        W29903  14.845   6.641  12.436 -0.2181 -0.0293  0.2108
14010W        W29904  10.400   6.085  10.595 -0.0127 -0.0999  0.0654
14011W        W29905  13.734  16.568  12.749  0.0297  0.2657 -0.1357
14012W        W29906   4.096  10.840   0.704  0.0508  0.2392 -0.3572
14013W        W29907  11.183  18.562  12.159 -0.2888  0.0703  0.0349
14014W        W29908   5.975   5.390  15.094 -0.1424 -0.0413  0.1302
14015W        W29909  13.102   8.010   3.487  0.0648  0.1847 -0.1996
14016W        W29910  18.776  15.856   1.854 -0.0925 -0.1381  0.0036
14017W        W29911  11.997   0.900   1.309  0.0442 -0.2593  0.0350
14018W        W29912   2.036  17.595  12.871  0.0211  0.3228  0.0719
14019W        W29913  19.012   6.146  12.107  0.1388  0.2310 -0.0649
14020W        W29914  17.168   5.580   4.286  0.3763  0.1423  0.3995
14021W        W29915  17.890   5.276   3.567 -0.0044 -0.3257 -0.0837
14022W        W29916   6.948  10.401  12.232 -0.1439 -0.2738 -0.0187
14023W        W29917  11.828  10.036   2.029 -0.1955 -0.0845  0.0027
14024W        W29918   4.408  13.209   4.422  0.3766 -0.3005 -0.0314
14025W        W29919  12.555   4.653   9.438 -0.0146  0.0857 -0.0000
14026W        W29920   7.354   3.702   3.243  0.0559  0.0400 -0.1104
14027W        W29921  14.320   0.259  10.353  0.0707  0.0024  0.1291
14028W        W29922  19.039  10.214   0.765  0.1102 -0.2225  0.0939
14029W        W29923   4.993  11.526   0.102  0.3107 -0.4143  0.2844
14030W        W29924  18.518   6.827   0.008  0.1509  0.1706  0.0377
14031W        W29925   5.382   0.638  13.360 -0.0785 -0.0544  0.1638
14032W        W29926  16.419   2.899  14.265  0.1048  0.0553 -0.0683
14033W        W29927   4.637  14.712   1.830 -0.0398  0.1972  0.0410
14034W        W29928  17.612  14.176   3.673  0.1739  0.0208 -0.2603
14035W        W29929  17.085   3.978   0.401  0.4858  0.1121  0.2353
14036W        W29930  12.027   7.190  14.942  0.1408 -0.0706 -0.0099
14037W        W29931   9.275  14.221   1.811 -0.1490 -0.1255  0.0960
14038W        W29932  16.447  18.137  12.741 -0.0822  0.1236  0.1965
14039W        W29933  15.255  16.292  12.864  0.0070 -0.2070  0.0816
14040W        W29934   8.907  18.342  10.029  0.2095 -0.1188 -0.0495
14041W        W29935   3.664  11.630   0.275 -0.0479 -0.1795  0.2237
14042W        W29936  13.370  13.805   3.088 -0.0125  0.1358  0.1589
14043W        W29937  10.162   9.958   0.458  0.0915  0.2485 -0.0080
14044W        W29938   5.625   4.026  11.053 -0.0247  0.0130  0.1775
14045W        W29939   3.991   3.388   5.408  0.0421  0.0193  0.6878
14046W        W29940   0.243   2.207  11.154  0.2658  0.0358 -0.2512
14047W        W29941   0.697   0.287   2.983  0.0121  0.3138 -0.0587
14048W        W29942   3.668  15.651  11.557  0.0259 -0.0060 -0.1972
14049W        W29943  12.083  10.081   2.987  0.1410  0.1135  0.0650
14050W        W29944  19.070  14.012  14.032 -0.2083 -0.3346  0.0620
14051W        W29945   6.850   6.649  12.790 -0.1058  0.2933  0.1098
14052W        W29946  13.195  11.674  10.716  0.0354  0.1762  0.2142
14053W        W29947  11.886   6.667   1.954  0.3538  0.1635  0.1762
14054W        W29948  18.578  18.368  15.087  0.0874 -0.1794 -0.4229
14055W        W29949  14.419  14.273   0.843  0.1255 -0.0879  0.2624
14056W        W29950  11.290  17.224  13.347 -0.3369  0.3888 -0.1552
14057W        W29951   5.007  15.670  13.759 -0.0584  0.0722  0.3407
14058W        W29952   0.741   8.550   0.611 -0.3299 -0.1665  0.0123
14059W        W29953   5.175  17.928  13.318 -0.1850 -0.1114  0.1014
14060W        W29954  13.436  15.347  13.327  0.0771  0.3430 -0.2680
14061W        W29955  18.053   4.258   1.035 -0.2498  0.3802  0.1731
14062W        W29956  18.598   0.393  14.663 -0.3029  0.0297 -0.0138
14063W        W29957   6.195   7.393   0.006  0.0187  0.1669  0.2352
14064W        W29958  11.872  16.659  12.785  0.0045  0.2270  0.0267
14065W        W29959  12.985  12.627   4.722 -0.0184  0.3156 -0.2332
14066W        W29960   2.122   7.687   0.234  0.1899 -0.1055 -0.1003
14067W        W29961   9.828  16.774  12.418  0.0218  0.3554 -0.0791
14068W        W29962  13.318   7.552  12.390  0.2222 -0.0147 -0.0438
14069W        W29963  18.062   4.478  10.891 -0.1800 -0.1500 -0.1229
14070W        W29964   1.988  16.349  12.513  0.0974 -0.0501  0.0170
14071W        W29965  15.207   7.779   4.960 -0.3242 -0.0210 -0.0146
14072W        W29966   4.914  13.109   4.319  0.4951  0.2646 -0.0875
14073W        W29967  19.017   1.989   2.427 -0.1114  0.2660  0.2611
14074W        W29968  10.082  15.056   0.068  0.1854  0.0147 -0.2905
14075W        W29969   9.236   4.993  14.703 -0.0976  0.1153 -0.0457
14076W        W29970  18.003  17.403  12.070  0.0345 -0.0356 -0.0905
14077W        W29971   7.178   8.461   4.176  0.0999  0.3108  0.0669
14078W        W29972  17.780   0.675   3.939  0.0090 -0.0490 -0.0990
14079W        W29973   8.990   8.060   5.356  0.0402  0.0688  0.1037
14080W        W29974   3.744  18.244   3.954 -0.0954  0.0069  0.2639
14081W        W29975   5.958   0.761  12.795 -0.1986 -0.1140 -0.1730
14082W        W29976   6.039   6.447   5.742  0.1173 -0.2639 -0.1001
14083W        W29977  17.750   2.675   2.891  0.0308  0.1380  0.5683
14084W        W29978  15.656   9.091  14.159 -0.0850 -0.1495 -0.1757
14085W        W29979  11.305  10.661   2.329 -0.1362 -0.0101 -0.2369
14086W        W29980   9.287   0.149   4.097 -0.1735  0.1056 -0.1518
14087W        W29981   3.346   6.853   3.448 -0.0552 -0.0484  0.2006
14088W        W29982  11.056   5.665   3.274  0.0170  0.0318  0.2769
14089W        W29983  10.841   1.280   5.167 -0.0143  0.3873  0.2482
14090W        W29984   5.150   6.183   1.486 -0.0781 -0.0038  0.1188
14091W        W29985   3.500   2.282  11.887  0.0402  0.4450 -0.2549
14092W        W29986  16.053   7.522  13.254 -0.0446 -0.0579 -0.0978
14093W        W29987  11.219  17.918  10.519  0.2745  0.0002  0.0252
14094W        W29988  18.399  11.928   3.017 -0.1478 -0.1253  0.1534
14095W        W29989  10.737   6.653   2.766 -0.2266  0.3288 -0.1306
14096W        W29990   2.454  16.310  14.440 -0.3029  0.0420 -0.1632
14097W        W29991   2.257   3.770  10.580  0.2299  0.0521  0.0732
14098W        W29992  18.379  16.603   4.863  0.1240  0.4048  0.0492
14099W        W29993  15.928   7.464  11.901  0.1752  0.1227 -0.1966
14100W        W29994   6.604  10.286  14.416  0.0065  0.3295 -0.0774
14101W        W29995  13.830  15.514   3.221  0.1232  0.0499 -0.3266
14102W        W29996  16.119   8.903  12.064  0.1579  0.2578  0.2782
14103W        W29997  11.750   2.016   2.264  0.0030  0.2534 -0.1652
14104W        W29998   7.864   6.145   4.785  0.1436 -0.1290 -0.1213
14105W        W29999   4.971  17.124  14.831  0.0405 -0.0418 -0.2696
14106W        W30000   5.400   3.950  13.974  0.1318  0.6135  0.2666
14107W        W30001   5.948  13.575  11.677 -0.0126 -0.2617 -0.2452
14108W        W30002  15.169  12.000  14.951  0.0047 -0.3370  0.0622
14109W        W30003   9.733   9.143  14.348 -0.2544 -0.1539 -0.2382
14110W        W30004  17.119  16.425  10.443  0.0510  0.0534 -0.1224
14111W        W30005   2.278   0.648  11.549  0.1281  0.2662  0.1288
14112W        W30006  15.776  16.692   1.779 -0.3311  0.1592  0.1072
14113W        W30007   0.823   3.666   3.774 -0.0971 -0.0456 -0.1431
14114W        W30008  19.078   4.625  13.396 -0.0502 -0.1634 -0.0010
14115W        W30009  15.006  11.987  10.988  0.0739  0.0722 -0.2073
14116W        W30010  16.679  18.451   2.328  0.0343 -0.3970  0.3895
14117W        W30011   5.814  16.769   5.124 -0.1392  0.1095 -0.1599
14118W        W30012  10.415  14.492   2.346  0.0600  0.4402  0.0649
14119W        W30013   4.204   1.880  13.041 -0.1789  0.0532  0.0553
14120W        W30014   6.589   6.119   3.043 -0.5557 -0.1322  0.2601
14121W        W30015  17.575  16.807   2.312  0.0001 -0.0930  0.0707
14122W        W30016   4.015   6.459  12.603 -0.1143  0.0937  0.0637
14123W        W30017  15.526   5.575  14.243  0.0030 -0.2410  0.1111
14124W        W30018  15.270  18.678   1.414  0.2064 -0.1577  0.0689
14125W        W30019  15.358   4.854  14.654  0.3071 -0.3516  0.1955
14126W        W30020   4.741  11.894  12.193 -0.1104 -0.2412  0.0827
14127W        W30021   2.709  13.009   9.414  0.0700  0.0051  0.1833
14128W        W30022   2.898  10.206  14.310 -0.4074  0.0273  0.1160
14129W        W30023  18.193   7.520   3.191 -0.3500 -0.0008  0.0113
14130W        W30024  13.388  15.406   2.737  0.0126  0.1624  0.2224
14131W        W30025  17.925  11.658   5.484 -0.1425  0.4740  0.3297
14132W        W30026  13.052   6.399  12.765 -0.0796  0.0635  0.1308
14133W        W30027  16.266  14.070  13.081  0.1907 -0.0102  0.1396
14134W        W30028  12.400  10.931  14.006  0.2420  0.1289 -0.1262
14135W        W30029   7.765   4.810   0.434  0.1027 -0.0266  0.0797
14136W        W30030  18.099   5.663  12.014  0.1093  0.0548 -0.1610
14137W        W30031  12.327   3.047  12.893  0.0766 -0.0200  0.0289
14138W        W30032   1.343   8.645  10.602 -0.0757  0.1056 -0.0230
14139W        W30033  16.935   1.107   3.993  0.0675 -0.0086 -0.2082
14140W        W30034   7.715   5.481  12.199 -0.4497  0.2604 -0.5925
14141W        W30035  15.550   1.098   1.217  0.2154  0.0694  0.1482
14142W        W30036  10.963   2.103   3.225 -0.1832 -0.3534  0.1237
14143W        W30037   7.456   9.695  14.307  0.1451 -0.1283  0.1983
14144W        W30038  10.948   1.408   3.282  0.0167  0.0555 -0.1265
14145W        W30039  10.617   9.096  13.461 -0.1681 -0.2994 -0.1551
14146W        W30040  15.807  16.984   0.221 -0.5061  0.1657  0.1842
14147W        W30041  13.302   3.339   3.088 -0.1182 -0.1401 -0.0678
14148W        W30042  10.836   3.112   1.608  0.1227  0.1522  0.1431
14149W        W30043  16.271   5.613  14.702  0.1233 -0.0599  0.2112
14150W        W30044   2.082   9.161  10.960 -0.0688  0.2215  0.1373
14151W        W30045  11.081   9.688   4.553  0.2726 -0.2677  0.0429
14152W        W30046  10.056   7.569  12.543  0.0110  0.0357  0.1403
14153W        W30047  13.250   4.047  10.915 -0.3586  0.4763 -0.2075
14154W        W30048   6.350  16.734   0.364 -0.3648  0.3110  0.2343
14155W        W30049   0.437   6.598   1.457  0.2872  0.1871  0.0921
14156W        W30050  12.618   9.450   2.400  0.1796 -0.0449 -0.0619
14157W        W30051   8.540   5.313   1.489  0.1783 -0.1026 -0.0150
14158W        W30052   2.246  13.518   1.920  0.2784 -0.2382  0.1191
14159W        W30053  11.682  13.640  14.502  0.0975  0.1470  0.0595
14160W        W30054  17.855   4.385   5.364 -0.0244  0.0660 -0.0426
14161W        W30055  17.505  15.742  14.289  0.1412 -0.2000  0.0113
14162W        W30056   1.123  13.873   1.201 -0.0030  0.1475  0.0086
14163W        W30057  13.542   3.628  11.681  0.0134  0.0364 -0.2304
14164W        W30058  17.288   8.248  14.886  0.1081  0.1406  0.1801
14165W        W30059   4.334   4.171  11.370  0.1041  0.3119 -0.1284
14166W        W30060   3.835   7.707   5.451  0.0644 -0.1855 -0.1881
14167W        W30061   3.488   9.975  13.509  0.4928  0.2981  0.1727
14168W        W30062  18.712   0.199   1.926  0.1898  0.0041 -0.0194
14169W        W30063  12.208   1.781  11.475 -0.1583  0.2822  0.1144
14170W        W30064   5.785   7.374  11.688 -0.0850  0.2339  0.1203
14171W        W30065   1.059  13.938   9.796 -0.2713  0.0490 -0.0924
14172W        W30066  19.086  11.557  14.315 -0.2013  0.1037 -0.1170
14173W        W30067   4.994   0.907   3.782 -0.0377  0.1584  0.1687
14174W        W30068   4.762   3.850   0.907 -0.3248  0.1727 -0.0383
14175W        W30069  15.814   0.190  12.520 -0.0964 -0.6003  0.2711
14176W        W30070   8.518  15.841   3.400 -0.1444 -0.0779  0.2420
14177W        W30071   1.626   2.036  13.065 -0.2667  0.0773  0.0862
14178W        W30072   8.124   0.335  12.126 -0.0441  0.0883 -0.0070
14179W        W30073   9.563  10.225  12.271 -0.1891 -0.0736  0.0519
14180W        W30074   5.920  17.688   2.912  0.1055 -0.0536 -0.0894
14181W        W30075  10.936   8.594   1.176  0.2312  0.0752  0.0798
14182W        W30076  13.279   7.594   2.904  0.1024  0.1006  0.2206
14183W        W30077   4.521   8.957   4.369  0.2743 -0.2243 -0.1492
14184W        W30078   2.257  18.676   5.113 -0.0408  0.0732 -0.3926
14185W        W30079   0.727  10.027  11.988  0.1323 -0.1907 -0.2553
14186W        W30080   2.376  17.796  10.493  0.0743  0.0032  0.0544
14187W        W30081  11.041  16.969  13.663 -0.2106  0.3676 -0.1755
14188W        W30082   0.869   5.704   3.051 -0.2884  0.0628 -0.1938
14189W        W30083  11.927   7.767   1.456  0.1570 -0.4033  0.0897
14190W        W30084  15.193  17.067   0.063  0.0100 -0.2542 -0.1250
14191W        W30085  17.816   6.667   0.316 -0.0415 -0.2064 -0.0287
14192W        W30086  12.943   7.229   4.267  0.0695 -0.0816 -0.2554
14193W        W30087  17.728  10.206   5.237 -0.2608  0.0763 -0.0859
14194W        W30088   9.198   1.831   5.092  0.1735  0.0092 -0.1025
14195W        W30089   8.642  11.008  13.449  0.4971 -0.0835 -0.2030
14196W        W30090  18.795  17.918   4.452 -0.1670 -0.0381 -0.1411
14197W        W30091   5.829  10.538   0.273  0.0433 -0.1410  0.1776
14198W        W30092   2.994   5.897   0.980  0.3790 -0.1606 -0.0015
14199W        W30093   9.553   9.169  13.214  0.3534  0.2797  0.2996
14200W        W30094   1.322   2.670   1.402  0.2965 -0.0846 -0.2746
14201W        W30095  16.081  13.046  11.716 -0.0057  0.1683 -0.1161
14202W        W30096  13.366  15.637   3.270 -0.2356 -0.2884 -0.1543
14203W        W30097   0.581   1.488  14.840  0.2300  0.0945  0.2232
14204W        W30098  15.108   4.094   0.868 -0.0101  0.0524 -0.0728
14205W        W30099   2.317   6.363  11.766 -0.1439  0.0223 -0.4312
14206W        W30100   5.555   7.000   3.282 -0.1914 -0.0792  0.3200
14207W        W30101   3.690   2.645   2.333 -0.1263 -0.0865 -0.2884
14208W        W30102   9.430  15.649  12.413 -0.2770 -0.1935  0.0821
14209W        W30103  13.866  11.429   2.656 -0.0776 -0.1298 -0.1092
14210W        W30104  16.232   0.511   2.768 -0.1441  0.2617  0.2381
14211W        W30105   3.828  18.267  13.799  0.1022  0.0128  0.2445
14212W        W30106   5.836   3.040  13.400  0.0275 -0.2150 -0.1122
14213W        W30107   8.430   7.414   4.104 -0.0594 -0.0171 -0.4582
14214W        W30108  13.251  14.768   2.080 -0.2504 -0.0608 -0.0929
14215W        W30109   6.337  16.933   1.934  0.0715  0.1407  0.1378
14216W        W30110   4.563   8.684   0.847 -0.1556  0.1541 -0.1016
14217W        W30111  13.579   6.450  12.052  0.0369  0.3591  0.2784
14218W        W30112  17.408  16.263  14.073  0.0990  0.0522  0.4988
14219W        W30113   1.596  10.205   3.231  0.1009 -0.1238  0.1517
14220W        W30114  16.029   7.144  14.132  0.0859  0.3118  0.1922
14221W        W30115  11.206  18.761  12.717  0.0506 -0.0739 -0.2153
14222W        W30116   1.655  18.516  13.257 -0.1287  0.2398  0.4301
14223W        W30117   3.511   2.899  11.506 -0.0450 -0.2419 -0.1252
14224W        W30118  14.056   3.555  13.466 -0.1244  0.2997 -0.2944
14225W        W30119   5.144  18.895   0.188 -0.3287  0.0583 -0.0399
14226W        W30120   6.468   2.581   4.500  0.1526  0.0936  0.2597
14227W        W30121   2.572  12.374   4.698 -0.1393  0.0030  0.1908
14228W        W30122   4.871   2.254  13.608  0.1548  0.3438  0.1771
14229W        W30123  17.242   9.370   2.343 -0.1892 -0.3394  0.0616
14230W        W30124   8.087  13.983  13.168 -0.0628  0.2825  0.2055
14231W        W30125  10.982   9.925  10.265  0.5292 -0.2992 -0.0355
14232W        W30126   5.033   0.354  11.754 -0.0945  0.2613 -0.0937
14233W        W30127  16.502   4.367   0.832 -0.0593 -0.3298 -0.1646
14234W        W30128  17.183   3.461  14.121 -0.3054  0.2714  0.0016
14235W        W30129  16.748   4.472  14.450  0.3047 -0.2813  0.0767
14236W        W30130  14.348   6.953   4.345 -0.3534 -0.1515  0.0103
14237W        W30131   7.019   2.308   2.025  0.0870 -0.0326  0.0975
14238W        W30132   2.811  15.991   0.177 -0.0894 -0.0718 -0.2200
14239W        W30133  10.481  15.263   0.299 -0.0766  0.2739 -0.1139
14240W        W30134   7.294   2.188   1.608  0.1003  0.1550  0.2719
14241W        W30135  12.537  17.599  13.582  0.2692 -0.0691  0.0292
14242W        W30136  14.040   6.308  14.089 -0.1431 -0.3110 -0.0552
14243W        W30137   0.766  15.776   1.270 -0.2254  0.0156 -0.3486
14244W        W30138   1.095  16.862   2.801  0.1367  0.1242 -0.0990
14245W        W30139   6.255  15.099   0.645 -0.2205 -0.0020 -0.2532
14246W        W30140  16.183   9.165   2.882  0.0713  0.0771  0.0032
14247W        W30141  13.330   7.393  14.177  0.0565 -0.0894  0.1591
14248W        W30142   9.255   2.080  12.545  0.1757 -0.0633 -0.2163
14249W        W30143   2.142   0.177  13.348  0.0711  0.0775  0.5128
14250W        W30144  14.967   9.268  13.323  0.3779 -0.0660  0.0622
14251W        W30145  11.360  16.307   0.367 -0.2959 -0.2548  0.0504
14252W        W30146  14.157   1.244   0.599  0.0249 -0.2639 -0.2907
14253W        W30147  10.730  15.380   4.109  0.2306 -0.2285 -0.1321
14254W        W30148  14.412  12.246  11.243 -0.0208 -0.1793 -0.3065
14255W        W30149  14.877   0.371   3.985  0.2039  0.0624  0.0034
14256W        W30150   6.831  15.556   1.221  0.0799  0.1367  0.0572
14257W        W30151  11.664   0.858   2.951  0.0102  0.1417 -0.4291
14258W        W30152   0.479  17.204  12.551 -0.0504 -0.0538 -0.0799
14259W        W30153   3.731   4.158   0.780  0.1881  0.1939 -0.2330
14260W        W30154   2.466   1.874  14.089  0.0226 -0.1044  0.0734
14261W        W30155   1.571   8.857  13.002 -0.1499 -0.1302  0.1249
14262W        W30156  16.019  16.079   2.530  0.1601  0.1931  0.1964
14263W        W30157   4.699  13.278   3.850  0.3189  0.2198  0.0686
14264W        W30158   1.895  12.254  12.810  0.3792  0.0617  0.2315
14265W        W30159  14.048   7.752   0.548  0.0266  0.2364  0.0240
14266W        W30160   1.629   0.555   4.568 -0.1529 -0.0169 -0.1790
14267W        W30161  15.231   4.475   1.908  0.0524  0.1193  0.1720
14268W        W30162   3.019   4.076  14.265  0.0213  0.0327  0.3080
14269W        W30163  11.095   7.880   0.276 -0.0125  0.0762 -0.0354
14270W        W30164  15.067  17.370  11.986 -0.0555 -0.2461  0.0307
14271W        W30165  18.213   6.863   5.064 -0.2911 -0.2016 -0.1676
14272W        W30166   6.261   6.242  11.848 -0.3387 -0.1334 -0.1925
14273W        W30167  12.811  11.883   4.137  0.2213 -0.0337 -0.1004
14274W        W30168   4.248  16.073   0.296 -0.1693  0.3289  0.1527
14275W        W30169  11.804   0.536   1.718 -0.1967 -0.2999  0.3557
14276W        W30170   6.292   3.589   3.464 -0.3740 -0.0830  0.2379
14277W        W30171  18.141   4.811  13.511  0.3656 -0.1937 -0.1993
14278W        W30172   4.106  16.847   1.729 -0.0751  0.0448  0.1416
14279W        W30173   8.179   9.646  13.225 -0.4828 -0.0135  0.1510
14280W        W30174  17.619  10.712   1.288  0.1920 -0.0037  0.3745
14281W        W30175   5.796   0.990   4.143  0.1320 -0.1222 -0.0593
14282W        W30176  11.800   6.250   1.646  0.3942 -0.0101 -0.2340
14283W        W30177  13.131   6.179   1.890 -0.2768  0.1864  0.2949
14284W        W30178  18.766   4.831  12.985 -0.3038 -0.0594 -0.2345
14285W        W30179   0.317   1.541  10.100  0.2927  0.0288  0.0513
14286W        W30180  19.108  13.088   0.859 -0.2025 -0.1024 -0.2112
14287W        W30181   2.506  16.842   3.709 -0.1841 -0.1302  0.3196
14288W        W30182  10.929   1.701   5.383  0.1194 -0.1285  0.0564
14289W        W30183  10.505  15.638   3.191  0.3220 -0.1705  0.2039
14290W        W30184   3.993   8.436   5.084 -0.2619  0.2453  0.1478
14291W        W30185   7.876   0.536   1.013  0.0605 -0.1170 -0.1400
14292W        W30186   7.168  13.467  10.724  0.1096 -0.2725  0.1684
14293W        W30187  14.867   7.843  12.862  0.2873  0.0585 -0.1381
14294W        W30188   3.121   3.183  12.459  0.1767 -0.0398  0.3635
14295W        W30189   2.313  14.132  11.672 -0.0948 -0.0966  0.2233
14296W        W30190   6.408   3.336   1.574 -0.1333  0.0656 -0.1575
14297W        W30191   4.557   8.193   4.816  0.0651  0.3589 -0.1213
14298W        W30192   3.916  17.443  12.600 -0.2119  0.0260  0.2742
14299W        W30193  15.418  19.140   3.183 -0.2627 -0.2665  0.1989
14300W        W30194   0.845   0.013   0.386 -0.1320 -0.1978 -0.0976
14301W        W30195   8.664   5.810   1.672  0.4427 -0.4561 -0.3324
14302W        W30196   9.497   5.522  10.676 -0.1385 -0.1392  0.0021
14303W        W30197  15.746   7.114   3.876 -0.1061  0.2887  0.2410
14304W        W30198   5.380  11.170  11.999 -0.4725  0.3734 -0.1553
14305W        W30199  14.113  10.495   3.972 -0.1163  0.2611  0.0481
14306W        W30200   8.139  13.564  12.102  0.4135  0.0586  0.0059
14307W        W30201   9.497   1.427   3.435 -0.0987  0.0432 -0.2498
14308W        W30202   0.962  14.781  13.498 -0.3815  0.1466 -0.0098
14309W        W30203   7.537   3.570   5.198  0.1684 -0.2274 -0.4649
14310W        W30204   8.796   2.576   3.725 -0.2840  0.1337 -0.1077
14311W        W30205   0.593  16.783   2.085 -0.1826 -0.1516  0.2293
14312W        W30206   9.445   7.602  11.841 -0.0381  0.0919 -0.0696
14313W        W30207   6.791  11.026   2.250 -0.3120 -0.0963  0.1894
14314W        W30208   6.185   0.790  14.064 -0.2278 -0.0547  0.1005
14315W        W30209  17.979   6.314   1.334  0.0721  0.0848 -0.2062
14316W        W30210  19.212  14.689  11.348  0.2745  0.0393  0.0289
14317W        W30211  17.854   3.042   0.453  0.0570 -0.0219 -0.1035
14318W        W30212   9.015  18.107   0.143  0.0747 -0.0287  0.0768
14319W        W30213   7.898  14.572  12.158 -0.1881  0.3057  0.4374
14320W        W30214  13.833   1.908   3.375  0.4463  0.1987 -0.1679
14321W        W30215  15.958  10.267  12.759 -0.2027  0.4389  0.1542
14322W        W30216  18.905   8.804   4.362 -0.2359 -0.4521  0.1350
14323W        W30217  13.161   7.681   0.831  0.3378 -0.0354  0.1163
14324W        W30218  11.721  17.387   3.102 -0.1705 -0.0712 -0.2164
14325W        W30219  16.188   8.020   4.883 -0.1856  0.0529 -0.1492
14326W        W30220  13.970   2.546  13.885  0.0950  0.2027 -0.2444
14327W        W30221   9.949   1.049   3.599  0.1688 -0.2110  0.0174
14328W        W30222   8.130  14.399   0.853 -0.0171  0.0342  0.0447
14329W        W30223   8.354   5.706  11.553 -0.0167  0.2661 -0.2042
14330W        W30224   7.826   1.049  12.237  0.0381  0.1506 -0.0452
14331W        W30225  18.140  14.208  15.063  0.1228  0.0191  0.1209
14332W        W30226   6.544   6.702   0.436 -0.1596  0.2100 -0.1630
14333W        W30227  11.973  19.132   3.609  0.0164  0.3198  0.1275
14334W        W30228  11.585   2.870   1.698 -0.2046 -0.1289 -0.1915
14335W        W30229  14.035   1.059  13.564 -0.1361 -0.1756  0.0242
14336W        W30230  12.286   8.144   0.452  0.3875  0.3544 -0.1723
14337W        W30231   6.671   2.206   3.963 -0.4461  0.0294  0.2435
14338W        W30232  13.167   7.944  14.763  0.3332  0.2666  0.1593
14339W        W30233   1.405  12.394   5.028 -0.0118 -0.2948 -0.3059
14340W        W30234   8.034   3.123   3.806 -0.1613 -0.2318 -0.1933
14341W        W30235   2.772   9.537  14.852 -0.1495 -0.0195 -0.0336
14342W        W30236  12.072   9.700  12.637 -0.0795  0.2054  0.1593
14343W        W30237  13.998  14.242   2.473 -0.2207  0.0425 -0.1443
14344W        W30238  10.221   3.174   2.897  0.1577  0.0693 -0.2168
14345W        W30239  18.723   8.847   2.927 -0.0965  0.2006  0.0899
14346W        W30240   6.659  18.072  10.248 -0.0705  0.0205  0.0712
14347W        W30241  14.089  17.498  14.128 -0.3430  0.2214  0.0003
14348W        W30242  14.381  13.189   3.124  0.1211  0.1110 -0.1776
14349W        W30243  13.019   2.520   1.558 -0.1128  0.0533  0.1651
14350W        W30244   0.770  16.065  14.557  0.0737  0.0934 -0.1082
14351W        W30245  16.737  15.322   0.712 -0.3282 -0.0358 -0.1935
14352W        W30246  10.681   4.910   3.740 -0.0931 -0.1583 -0.0922
14353W        W30247  15.749  16.444  12.925 -0.2846  0.0216  0.1565
14354W        W30248  14.177  13.066   3.608 -0.1271 -0.1703 -0.1368
14355W        W30249   6.690   8.787   2.543 -0.0598  0.1006  0.3081
14356W        W30250  13.185   0.328   2.705 -0.0715  0.0659 -0.0473
14357W        W30251   1.674  10.123  12.210 -0.1078  0.2247 -0.2640
14358W        W30252   5.994   0.750  12.221 -0.0216 -0.2577  0.2034
14359W        W30253  10.853  14.554   3.150  0.0282 -0.3250 -0.0338
14360W        W30254  18.898  13.196  14.347 -0.2669  0.0789 -0.1618
14361W        W30255   5.742  12.043   0.082 -0.0543 -0.0932  0.0985
14362W        W30256   1.606  13.794   3.985  0.2439  0.0669 -0.1375
14363W        W30257  13.283   9.282  10.870  0.3219  0.1308 -0.1316
14364W        W30258   6.353   9.546  13.134 -0.0837  0.2074 -0.0052
14365W        W30259   5.687  11.023  10.355 -0.0864 -0.2855  0.0924
14366W        W30260   3.903   9.252  14.010 -0.1013 -0.2047  0.0404
14367W        W30261  13.882   1.851   4.186  0.1071  0.0765  0.0289
14368W        W30262   8.458  11.710   1.909  0.1936 -0.1847 -0.1934
14369W        W30263  11.367  15.411  14.028  0.1218  0.0810  0.1304
14370W        W30264   8.911   8.830   1.355  0.1686  0.5346 -0.2555
14371W        W30265  16.040  10.449  12.272  0.0980 -0.4532  0.4254
14372W        W30266  13.936  12.118  10.406  0.0762 -0.0777  0.1815
14373W        W30267   5.426  13.248   1.629  0.0841  0.5152  0.0154
14374W        W30268   9.040  10.571   1.423  0.0450 -0.0885  0.0459
14375W        W30269  10.481   3.397  11.347  0.0154  0.1419 -0.1395
14376W        W30270  19.223  14.747   1.039 -0.2519  0.0166 -0.0544
14377W        W30271   6.516   4.112  13.120  0.0996  0.3556 -0.3091
14378W        W30272   4.567   7.803  13.735 -0.1539 -0.1133 -0.1103
14379W        W30273   3.539   8.324   0.155 -0.3276  0.0862  0.2509
14380W        W30274  12.661   3.137   3.959  0.2666 -0.1333  0.0293
14381W        W30275  16.818  15.629  11.615 -0.1660 -0.0093 -0.2929
14382W        W30276   5.523   6.335  11.131  0.2673  0.1695  0.1530
14383W        W30277   8.441   6.146   2.887  0.1823 -0.2781 -0.0436
14384W        W30278  19.002  18.893   4.382  0.1107 -0.1528 -0.0492
14385W        W30279   5.827  15.314   0.422  0.0007  0.0220 -0.0839
14386W        W30280   3.762  14.931  14.586 -0.1286 -0.1382 -0.1261
14387W        W30281   5.540   2.513   4.944 -0.0736  0.0753 -0.7124
14388W        W30282   5.689   2.075  13.097  0.0819  0.3450  0.1468
14389W        W30283  12.196   2.595  12.610 -0.2720  0.2415 -0.1336
14390W        W30284   1.167   6.533   3.408  0.0044 -0.0171  0.4218
14391W        W30285  12.823  14.352   2.707 -0.2476  0.1385 -0.0414
14392W        W30286   6.231  18.136   3.019  0.6672  0.1862 -0.0904
14393W        W30287   9.615  13.615   1.557  0.2534 -0.0312 -0.0624
14394W        W30288   0.722  13.237  13.057  0.0790 -0.0492  0.0812
14395W        W30289   1.693   2.290  13.485  0.1389  0.2442  0.1021
14396W        W30290  17.615  11.423  12.204  0.0829  0.4480  0.1849
14397W        W30291   9.361  13.983  13.976 -0.2052  0.1983 -0.1970
14398W        W30292   6.521   7.265   0.417  0.1596  0.2319  0.0890
14399W        W30293   6.224  13.760   3.236  0.0436  0.0171  0.2227
14400W        W30294   6.978  17.964  14.592  0.0995  0.2580  0.0032
14401W        W30295  18.925   0.249  14.146  0.2061 -0.2566  0.1178
14402W        W30296  14.653   7.602   1.263  0.0380  0.0389 -0.1497
14403W        W30297  18.524   7.188   2.951  0.0141  0.0410 -0.1151
14404W        W30298   4.776  13.106  12.281  0.2601  0.3035  0.0147
14405W        W30299   2.035  13.346  13.967 -0.2178 -0.2645 -0.1232
14406W        W30300  11.291   8.909   3.412 -0.3852  0.1218 -0.1293
14407W        W30301  10.182  16.262   3.288  0.2788  0.1196 -0.1479
14408W        W30302   1.389   1.080   3.826  0.0563  0.1087  0.0098
14409W        W30303  18.962   8.346  12.657  0.1829  0.2553  0.0656
14410W        W30304   0.902   7.504   3.583 -0.0558 -0.1315 -0.0053
14411W        W30305  11.234  11.074   1.053  0.0625  0.1027 -0.1770
14412W        W30306  17.474   3.571  12.404 -0.0294  0.1650  0.1701
14413W        W30307  14.902  10.091   2.304  0.2632  0.0099 -0.3622
14414W        W30308  15.155   7.533   1.303  0.0485 -0.1855  0.4639
14415W        W30309   4.293   3.601   1.014  0.3906 -0.2842  0.1813
14416W        W30310  14.081  17.018   2.382  0.0904  0.2539  0.1908
14417W        W30311   2.330  15.360   9.408 -0.0073  0.0266  0.1466
14418W        W30312  17.229   7.398   1.254 -0.2176 -0.4415  0.0482
14419W        W30313   0.779  14.052   3.232 -0.2319 -0.0670 -0.0960
14420W        W30314  17.579  12.631  11.051  0.3677  0.1426 -0.1313
14421W        W30315   1.246   6.732   2.113 -0.1555 -0.1900  0.2603
14422W        W30316  13.397  11.765  12.127 -0.3788 -0.0174  0.0228
14423W        W30317   1.282  18.477  12.823 -0.4031 -0.0638  0.1791
14424W        W30318  14.316  16.052   3.874 -0.0673 -0.2789 -0.2712
14425W        W30319  14.674   2.764  13.736 -0.1286 -0.1585  0.2635
14426W        W30320   1.223   0.607  12.103 -0.0212  0.1976 -0.0570
14427W        W30321  11.072   9.865   0.322  0.0057 -0.2379 -0.1434
14428W        W30322  16.108   2.675  12.581 -0.0544  0.1371  0.0551
14429W        W30323   4.630  15.212  12.550  0.0983 -0.1063  0.2753
14430W        W30324   4.732   4.240  13.547  0.1804  0.3095 -0.2033
14431W        W30325  12.467   1.516   4.542  0.4068 -0.1380  0.2888
14432W        W30326   8.418   2.336   0.826 -0.1403  0.0711 -0.0416
14433W        W30327   0.192   8.536   1.209  0.0417 -0.0277 -0.1600
14434W        W30328  16.639  11.538   4.739 -0.1443 -0.1087  0.0754
14435W        W30329   4.097   5.856   0.604  0.2304  0.0287  0.2981
14436W        W30330   4.158   2.985   3.141 -0.2457 -0.0088  0.0697
14437W        W30331   9.596  10.313   2.274  0.1528  0.1646 -0.3234
14438W        W30332   1.309   6.398  14.019  0.0167  0.1815  0.1054
14439W        W30333  10.824  16.913  10.611  0.0427  0.0004 -0.1367
14440W        W30334  16.525  12.203  12.507 -0.2596  0.4404  0.3095
14441W        W30335  18.027   2.356   1.010 -0.0269 -0.2034  0.1175
14442W        W30336   4.772   1.118   1.038  0.0038  0.1733 -0.1711
14443W        W30337   7.164  14.759  13.970  0.1005 -0.1234 -0.1521
14444W        W30338   8.873   4.875  13.892  0.2799 -0.0768 -0.1199
14445W        W30339   1.179  13.999  10.661  0.0273 -0.0897  0.0137
14446W        W30340   9.616  11.602  11.943  0.3923  0.1883  0.1472
14447W        W30341  15.335   0.617   2.389 -0.1565  0.0887 -0.1229
14448W        W30342  11.780   3.781   0.455  0.0055 -0.2567  0.2383
14449W        W30343  15.193  16.528   4.120  0.0377  0.4217 -0.0612
14450W        W30344  15.499   8.437  12.748  0.1333 -0.0167  0.0987
14451W        W30345   4.898   7.223  13.880 -0.2074 -0.1737  0.0383
14452W        W30346   9.345   9.461   0.444  0.0063  0.1257 -0.0759
14453W        W30347  17.531  14.398  13.193 -0.0279  0.2903  0.0357
14454W        W30348  18.297  10.852  14.323 -0.0658 -0.1524  0.5829
14455W        W30349   9.532  11.409  10.919 -0.1822  0.0126 -0.0732
14456W        W30350   0.888   4.438   3.546 -0.2271 -0.1029  0.0427
14457W        W30351   2.377   5.553   4.318 -0.3423 -0.0730 -0.2148
14458W        W30352   8.652  16.635   4.115 -0.0298 -0.2789 -0.1990
14459W        W30353   5.036  12.745   4.698 -0.3767 -0.1650  0.2354
14460W        W30354  10.705   4.499   2.392 -0.1153  0.0282 -0.1087
14461W        W30355   7.683  10.646  10.644  0.1636 -0.1748 -0.1013
14462W        W30356   2.387   7.348  12.768 -0.2244  0.1624  0.2004
14463W        W30357   8.450   7.533   3.005 -0.0759  0.3535 -0.0903
14464W        W30358  18.096  15.537   9.245  0.0645 -0.2199 -0.0225
14465W        W30359   3.178   7.518   4.431  0.0615  0.2434 -0.0182
14466W        W30360  10.066  13.666  14.480 -0.3978 -0.3134  0.0600
14467W        W30361  12.223  18.067  13.703 -0.0652 -0.2703 -0.2111
14468W        W30362  12.346   8.455  10.564  0.0754 -0.1229 -0.0985
14469W        W30363   2.223   6.578   1.173 -0.0843  0.0897  0.0364
14470W        W30364  12.689  14.142   0.702  0.0270 -0.3804 -0.0422
14471W        W30365  13.327  13.473  13.034 -0.0420  0.0328  0.0711
14472W        W30366  12.519   1.836  14.838  0.0383 -0.1812  0.2296
14473W        W30367   2.932  15.009  13.484  0.1230  0.2039  0.2528
14474W        W30368  10.616  18.667  14.560  0.0522 -0.0264  0.1027
14475W        W30369   7.058  16.341   1.007  0.1952 -0.1626  0.0003
14476W        W30370   9.592  13.397  14.183  0.0034  0.0669  0.0146
14477W        W30371  15.133   0.610   4.529  0.3130 -0.0832  0.2591
14478W        W30372   0.781   3.926   3.292  0.3684  0.2959 -0.0419
14479W        W30373   3.288  10.108   3.782  0.0889 -0.1487 -0.1059
14480W        W30374  15.481   5.473   0.552  0.0477 -0.0541 -0.1946
14481W        W30375   6.971  11.754  10.960  0.1051  0.4025  0.2952
14482W        W30376  15.092   5.653  10.940 -0.1897 -0.4772  0.1792
14483W        W30377   0.123   4.658   4.705 -0.1587 -0.0996  0.1717
14484W        W30378  13.790   5.856   3.365  0.0363  0.3637 -0.1205
14485W        W30379  12.179   4.206   4.389 -0.2935  0.0962  0.2699
14486W        W30380  18.629   7.785   0.558 -0.2601  0.1825  0.1531
14487W        W30381  18.958   8.307  13.590  0.2105 -0.0480 -0.2581
14488W        W30382   9.520  16.193   2.091  0.1049 -0.1105 -0.1450
14489W        W30383   0.890   6.199   5.242 -0.0400  0.1434  0.2808
14490W        W30384  18.812   9.338   2.215  0.1444 -0.1191 -0.1438
14491W        W30385  15.974   3.770  11.975 -0.3681 -0.1098 -0.1325
14492W        W30386   9.082  11.028   1.893 -0.0896 -0.2705  0.0967
14493W        W30387  14.398   2.238   2.612  0.1038 -0.0258 -0.3099
14494W        W30388   1.198   5.837  11.248 -0.0868  0.0868  0.1628
14495W        W30389   3.145  16.347   3.474  0.1822 -0.0501  0.1194
14496W        W30390  17.513   4.369  10.351 -0.0098 -0.2652  0.1974
14497W        W30391   0.732  18.065   3.364  0.2082 -0.1192 -0.2124
14498W        W30392   5.292  18.511   2.400  0.2847  0.0769  0.0073
14499W        W30393  18.300   0.705  14.967  0.0193  0.1542  0.0785
14500W        W30394   4.343  11.836  13.057  0.1956 -0.1458 -0.1717
14501W        W30395   2.764  16.338  12.013 -0.2596 -0.2443 -0.0082
14502W        W30396   8.355  19.208  13.411 -0.2474 -0.2824  0.2068
14503W        W30397  17.415  13.089  11.138 -0.0776 -0.2010  0.0994
14504W        W30398   0.601  17.514   2.166 -0.0797 -0.0637  0.1702
14505W        W30399   6.959   6.575   1.689  0.1927  0.1090  0.1603
14506W        W30400  15.908  18.885  14.669  0.1645 -0.2228  0.1260
14507W        W30401   7.539   2.049   0.662 -0.0262 -0.0091 -0.0059
14508W        W30402  17.654  16.347  10.409  0.0902  0.0650  0.2889
14509W        W30403  13.114   9.749  12.187  0.2457  0.0490 -0.1220
14510W        W30404  12.338   4.619   1.309  0.1171 -0.0367  0.2783
14511W        W30405  18.678   4.995  14.009 -0.0954  0.0680 -0.0764
14512W        W30406  10.110   5.208  11.659 -0.0952 -0.2954  0.1180
14513W        W30407  11.767   4.375  13.926  0.0241  0.2515  0.3177
14514W        W30408   0.659  15.351  14.453  0.2813 -0.2301  0.3965
14515W        W30409  17.489   1.126   4.010  0.0538  0.0503 -0.1488
14516W        W30410   9.352  11.034   3.711  0.0106  0.2246  0.0655
14517W        W30411  11.220  19.178   4.954  0.1243 -0.2235  0.0277
14518W        W30412   6.582  11.554   3.226 -0.1226 -0.0626 -0.2303
14519W        W30413   0.712   8.178  12.147 -0.1469 -0.0886 -0.0942
14520W        W30414  14.038  18.041   4.703  0.0924 -0.0203  0.1973
14521W        W30415   1.053  10.287   2.830 -0.1548  0.2228  0.1470
14522W        W30416   5.725   9.153   1.324  0.0731  0.3773 -0.2753
14523W        W30417   2.165  14.743  14.024 -0.0551  0.3569 -0.0487
14524W        W30418   5.440  15.439   2.735 -0.0602 -0.0826  0.1044
14525W        W30419   5.239   5.794  12.557 -0.1482  0.2327  0.1316
14526W        W30420  16.657  16.690   5.569  0.0690  0.3480  0.2055
14527W        W30421  13.598  15.625   0.562  0.1516  0.4759  0.0551
14528W        W30422   8.782  11.717  11.502 -0.3037 -0.4506  0.0491
14529W        W30423  19.177  13.890   1.714  0.3984 -0.0331  0.3669
14530W        W30424   8.900   0.944  13.011  0.2384 -0.1404 -0.1754
14531W        W30425   2.876   5.526  15.100  0.0216 -0.0872 -0.2970
14532W        W30426   2.650  12.581  13.965 -0.1156  0.1724  0.1772
14533W        W30427  11.159  12.779   4.627  0.2333 -0.4183 -0.0680
14534W        W30428  14.482   5.841   3.082  0.0909  0.0599 -0.0731
14535W        W30429  18.868  11.294  11.017  0.0463 -0.1485 -0.1015
14536W        W30430   1.728   3.946   2.170 -0.0819 -0.3348  0.1321
14537W        W30431  13.617  10.883   3.356 -0.0188 -0.3732 -0.3929
14538W        W30432  18.013   7.408   5.726 -0.0493  0.2374 -0.2423
14539W        W30433  14.187   9.097   2.861 -0.1792 -0.0159  0.3403
14540W        W30434   8.919  18.043  13.098 -0.1233  0.3105 -0.2712
14541W        W30435   6.439  19.034   2.472  0.0718 -0.0560  0.1239
14542W        W30436  14.936   1.439   4.074 -0.0341  0.1689 -0.2825
14543W        W30437   2.230   7.126   1.338  0.0487  0.3176  0.3090
14544W        W30438   9.353   3.024   5.426 -0.0666 -0.0223 -0.1574
14545W        W30439   1.131  11.956  12.290 -0.1545  0.1789 -0.0084
14546W        W30440  15.956  18.117   0.152 -0.1862 -0.1730 -0.0437
14547W        W30441   3.773  12.167  12.055  0.3476  0.1699  0.0879
14548W        W30442  16.137   6.557  10.959  0.0019 -0.0672  0.0041
14549W        W30443   1.637   5.585   0.639 -0.1301  0.0489  0.0272
14550W        W30444   8.893   4.056   0.418 -0.1801 -0.5943 -0.1543
14551W        W30445  17.627   8.082   0.143 -0.0271 -0.0092 -0.0622
14552W        W30446   9.443  11.815   2.089  0.3186 -0.1222 -0.2861
14553W        W30447  13.138  14.449  12.065  0.2659 -0.2471  0.0297
14554W        W30448   8.118  14.382  10.814 -0.0344  0.1494  0.2268
14555W        W30449  11.818  18.219   4.059  0.0479 -0.2189 -0.1978
14556W        W30450  10.748   9.130   1.761  0.0823 -0.2606 -0.2063
14557W        W30451  18.395  11.910  13.116  0.1407 -0.3069  0.1769
14558W        W30452   1.501   3.254   3.266  0.0163  0.0911 -0.2028
14559W        W30453  15.069   5.124  14.973 -0.0397 -0.2012  0.1160
14560W        W30454  10.854   4.963  10.505  0.0959  0.1338  0.1398
14561W        W30455  14.670   1.632   1.609  0.0460  0.0452  0.0050
14562W        W30456   7.154  17.047   0.669 -0.0811 -0.2952  0.0338
14563W        W30457   5.611  16.518  13.717 -0.2383  0.1646 -0.1967
14564W        W30458   7.557   8.712   3.822  0.2548  0.1593 -0.0371
14565W        W30459   5.550   5.554   4.587  0.4488 -0.2085  0.0117
14566W        W30460  10.709   0.898   3.093  0.0982  0.1896 -0.1584
14567W        W30461   3.554   6.297  11.930 -0.0806 -0.2250  0.1721
14568W        W30462   4.056   1.334   1.753 -0.0371 -0.3454 -0.0329
14569W        W30463  15.774   3.029   1.291  0.1376 -0.2321 -0.4722
14570W        W30464   7.163  15.807   3.708  0.0597 -0.1170  0.1715
14571W        W30465   8.826   2.700   1.990 -0.2405 -0.3226 -0.1593
14572W        W30466   5.021  17.893   0.851 -0.1391 -0.1876 -0.3341
14573W        W30467   3.681  14.057  11.642  0.2611  0.0023 -0.1464
14574W        W30468   4.494  13.211   1.336  0.1178  0.1658  0.1505
14575W        W30469   6.241   8.489   0.146 -0.1644  0.2833  0.2525
14576W        W30470   5.803   8.469   4.621 -0.0383 -0.0049  0.0187
14577W        W30471  12.811  12.879  10.822 -0.2500  0.0791  0.0600
14578W        W30472   8.139  10.072  13.004  0.0390  0.1322 -0.2266
14579W        W30473  14.575  16.273   9.912 -0.1165 -0.0368  0.0999
14580W        W30474  12.319  10.360   0.755 -0.0220  0.3053  0.3594
14581W        W30475  10.768   0.439   3.762 -0.1331  0.0234 -0.0701
14582W        W30476  15.793  14.178  11.059  0.2636  0.1501  0.1773
14583W        W30477   4.703  13.902   3.096 -0.3754 -0.0466 -0.1114
14584W        W30478   2.961   5.385   4.272  0.1662 -0.0990  0.1013
14585W        W30479   6.611  15.756  10.972  0.1611  0.0795 -0.1832
14586W        W30480   9.704   4.883   4.563  0.0360  0.0004 -0.2357
14587W        W30481   0.385  13.682   4.478 -0.3509 -0.2866  0.2654
14588W        W30482   7.071   7.509  11.743 -0.3245 -0.2126 -0.0915
14589W        W30483  17.828   4.501  11.739  0.4153 -0.1281 -0.2147
14590W        W30484  19.179  15.074   2.390 -0.1827 -0.1912 -0.0037
14591W        W30485  17.404  17.388  11.363  0.0172  0.0486  0.1646
14592W        W30486   8.951   7.985   2.113 -0.1562  0.3378  0.1710
14593W        W30487   7.372   6.210   1.807 -0.0007  0.2156 -0.3406
14594W        W30488  12.430  10.279  10.484  0.0746 -0.3011 -0.2275
14595W        W30489  11.089  17.049  11.843 -0.1268 -0.2002 -0.3337
14596W        W30490  10.932  12.274  11.667 -0.0677  0.3787  0.1463
14597W        W30491  11.807  14.553  12.787 -0.0831  0.1380 -0.1772
14598W        W30492   7.349  11.386  11.829 -0.4718  0.0171 -0.0731
14599W        W30493   4.802  15.305  14.055  0.5185 -0.1919  0.1182
14600W        W30494  11.682   6.445   3.507  0.3022  0.0835 -0.0504
14601W        W30495   9.881   7.985   1.653  0.1633  0.1961  0.1658
14602W        W30496   1.718   1.485  11.138 -0.1120  0.2801 -0.0206
14603W        W30497   5.508   4.701  13.687  0.1316 -0.1539 -0.1244
14604W        W30498   9.748   6.638   0.013 -0.0146  0.0921 -0.4838
14605W        W30499   9.509  17.445   1.508  0.2161  0.1519 -0.2018
14606W        W30500   3.970  17.450   3.912  0.0681  0.2737 -0.1910
14607W        W30501   2.309  12.019   1.987  0.1628  0.0316  0.2640
14608W        W30502  18.948  14.938   0.219  0.0150  0.0578 -0.1979
14609W        W30503  18.933   0.958   3.267  0.2890  0.1857  0.0313
14610W        W30504   1.397   9.879  12.580 -0.1539 -0.2518  0.1587
14611W        W30505   5.261  15.462   4.408  0.0170 -0.0255  0.0848
14612W        W30506   9.165   6.079  13.674  0.2687 -0.0996 -0.3535
14613W        W30507   4.693   1.527  15.058 -0.0083 -0.0903 -0.3319
14614W        W30508  16.997  10.252  14.055  0.1356 -0.2652 -0.0230
14615W        W30509   2.595  17.566   0.033 -0.1125  0.1776  0.0770
14616W        W30510   8.430   3.368  11.308 -0.3436  0.0639  0.0396
14617W        W30511   7.798  15.810   1.990 -0.2096 -0.0168  0.0249
14618W        W30512   0.692   2.292  10.954 -0.0472  0.1976  0.0287
14619W        W30513  13.087   1.279  13.354  0.0425 -0.3521 -0.3659
14620W        W30514  11.119   1.279  13.795  0.0661 -0.3359  0.0067
14621W        W30515  16.558   6.852   5.396 -0.0393  0.0009  0.0969
14622W        W30516  16.558  19.051   1.389  0.2024  0.1507  0.0823
14623W        W30517  14.393  12.164  10.743 -0.1372 -0.1847  0.0103
14624W        W30518   6.819  14.778   1.380 -0.2393  0.1987  0.0830
14625W        W30519   6.422  19.179  10.849  0.0029 -0.1431 -0.2045
14626W        W30520   3.092   6.647   5.157  0.0123  0.1482 -0.0737
14627W        W30521   4.974   8.419  14.503 -0.2024 -0.2737  0.1232
14628W        W30522   3.278   1.913  12.577 -0.0214 -0.0421  0.1841
14629W        W30523   9.524   3.563   2.160 -0.3247  0.2073  0.1084
14630W        W30524  15.048   8.605   3.229  0.1421 -0.1012  0.1112
14631W        W30525   8.192  17.371  12.778  0.1853  0.0313 -0.0693
14632W        W30526  18.457  10.016   3.006 -0.4056 -0.3365 -0.0156
14633W        W30527   7.091   6.016   2.997 -0.0258  0.2501  0.1259
14634W        W30528  13.779   1.275  10.814  0.3267 -0.2773  0.3058
14635W        W30529   9.163   9.283   2.134 -0.2409  0.1441 -0.1058
14636W        W30530  12.660   9.004   4.342  0.3640  0.1774 -0.3273
14637W        W30531  18.189   7.339  11.832 -0.1654 -0.1974 -0.2415
14638W        W30532  13.987   3.338   0.898 -0.1669 -0.1610  0.0115
14639W        W30533   2.497   8.549  12.482  0.1261 -0.0288 -0.1043
14640W        W30534  11.954  15.106   0.011  0.2468 -0.0472 -0.0597
14641W        W30535  13.233  12.718  11.086  0.2725 -0.0411  0.0947
14642W        W30536   3.311   9.729   1.328  0.0344  0.1033 -0.1097
14643W        W30537  13.366   7.879  11.010 -0.4213 -0.0951  0.2328
14644W        W30538   0.283   0.500   2.433  0.1164  0.0238 -0.5208
14645W        W30539   0.678   2.036   5.206  0.1716  0.0103 -0.0994
14646W        W30540  18.866  16.532   3.489 -0.0801 -0.2207  0.1077
14647W        W30541   8.019   9.513   4.639  0.2490 -0.5271 -0.0516
14648W        W30542   4.331   3.700  12.982  0.0864  0.1237 -0.2314
14649W        W30543   5.101   1.458  12.833  0.0086 -0.2849 -0.2039
14650W        W30544   8.148  13.807  11.566  0.2330 -0.0935  0.1128
14651W        W30545   8.699   1.764   3.718  0.0500 -0.2682 -0.1817
14652W        W30546  10.363   0.689   2.804 -0.1246 -0.0791  0.1238
14653W        W30547  11.843  15.719   1.790 -0.0705  0.0640 -0.3932
14654W        W30548   5.177   3.895   3.620  0.0369 -0.2669  0.3409
14655W        W30549   7.710   3.729  12.400  0.0578 -0.0054  0.0581
14656W        W30550   8.297   2.113   1.942  0.3599 -0.2087 -0.2051
14657W        W30551  10.066  15.441  13.656 -0.0703  0.0153  0.3647
14658W        W30552   4.395  10.819  11.631  0.1377 -0.0712  0.0816
14659W        W30553  10.569  13.120  11.089  0.2491  0.2283 -0.0971
14660W        W30554   8.701   9.818   1.288  0.1290  0.3067  0.2685
14661W        W30555  15.546  16.054  10.801  0.2555  0.0081 -0.1220
14662W        W30556   9.467  17.494   3.235  0.2342  0.0173 -0.2025
14663W        W30557  12.835   1.805   0.749 -0.4938 -0.2161 -0.4303
14664W        W30558   6.854  11.521  11.808  0.0430 -0.1576 -0.1060
14665W        W30559   6.702   9.535  13.587 -0.2291 -0.1925 -0.0061
14666W        W30560  14.334   4.047  11.015  0.3401  0.2569  0.2302
14667W        W30561   5.908  17.192  13.517 -0.1778 -0.0085 -0.1878
14668W        W30562  16.018   1.123   4.589  0.0303 -0.1879 -0.4036
14669W        W30563   3.595  10.000  12.234 -0.2141  0.2859  0.3461
14670W        W30564   2.132  19.179   3.105  0.0804 -0.1281  0.0339
14671W        W30565   8.421  14.562   2.608 -0.3494 -0.0979 -0.2992
14672W        W30566  14.274   0.856   0.305  0.1756  0.3659  0.0884
14673W        W30567  19.220  12.189  10.722 -0.1876 -0.1350 -0.0947
14674W        W30568  14.678   7.277   2.939  0.0454 -0.4233  0.0682
14675W        W30569  11.567   4.290  12.460  0.5700  0.1370  0.4264
14676W        W30570   8.575   3.078   3.760  0.0052  0.0718  0.0957
14677W        W30571   0.886  17.078   2.367 -0.0209 -0.0957 -0.1144
14678W        W30572   6.782  17.656   1.359  0.1109  0.2788 -0.1208
14679W        W30573  15.288   7.816   2.720  0.1013 -0.1066  0.0520
14680W        W30574   3.842  10.384  14.870  0.1556  0.1700  0.3035
14681W        W30575  11.829   4.659   5.036  0.3978 -0.1735  0.1008
14682W        W30576  18.679   5.635  14.530  0.0375  0.1153  0.1716
14683W        W30577  15.545   7.837  11.849  0.2272 -0.1886  0.3080
14684W        W30578   1.591  10.668   4.195  0.0196  0.1003 -0.1009
14685W        W30579  18.536   5.997   4.533 -0.0854  0.2855  0.0734
14686W        W30580  10.662  14.862   0.006  0.3857  0.0031 -0.0151
14687W        W30581   7.649   5.218  11.227  0.1034 -0.2946  0.0595
14688W        W30582   0.494   7.983   5.172 -0.2762 -0.2183 -0.1786
14689W        W30583   9.245  18.851   2.541  0.0967 -0.2811 -0.0823
14690W        W30584   2.169   1.540   3.561  0.0287  0.1243  0.3373
14691W        W30585   8.689   4.025   1.493  0.2450  0.2672  0.0556
14692W        W30586  12.022  16.893  14.194  0.0820 -0.1721 -0.0910
14693W        W30587  11.163   3.967   1.756 -0.0204  0.1693 -0.1392
14694W        W30588  13.460  11.025  12.672 -0.3209  0.0259 -0.2175
14695W        W30589   1.137   0.892  13.516  0.2462 -0.1724 -0.0114
14696W        W30590   6.267   8.961   5.632  0.1221  0.0698  0.1652
14697W        W30591  13.802  17.620  13.669 -0.0957  0.2456 -0.1591
14698W        W30592  17.929  18.944   1.429 -0.1889  0.0217 -0.1650
14699W        W30593   8.420   4.799  12.784 -0.3918  0.3126  0.0637
14700W        W30594   2.612   9.855  13.186  0.1986  0.0199  0.2644
14701W        W30595  15.149  13.332   3.276 -0.4734  0.3277 -0.2549
14702W        W30596   6.127  16.896  11.163  0.1597 -0.0128  0.3232
14703W        W30597   1.061  13.136   3.128  0.0064 -0.0077  0.0270
14704W        W30598  17.110  10.621   1.187 -0.3880 -0.1188 -0.4564
14705W        W30599   5.874  16.738   1.973  0.1233 -0.0233  0.2566
14706W        W30600  16.986  16.091   1.063  0.0933 -0.0826  0.0051
14707W        W30601  12.131  17.062  13.725  0.0498  0.1400 -0.2859
14708W        W30602   4.277   5.369  10.800  0.1598  0.0581 -0.5489
14709W        W30603  16.966   6.454   0.765  0.0230  0.1009 -0.3574
14710W        W30604  10.193  17.423   2.261 -0.0520 -0.1716  0.3483
14711W        W30605  15.685  10.567   1.338 -0.2251 -0.3544 -0.0894
14712W        W30606  10.936  13.789  14.488  0.2456  0.1816  0.0843
14713W        W30607  15.260   4.926   9.916  0.1464 -0.0823 -0.1596
14714W        W30608  11.003   1.691   2.759 -0.2112  0.0917 -0.2215
14715W        W30609   8.578   0.097  15.092  0.0841 -0.0749 -0.4434
14716W        W30610  13.174   2.102   1.709 -0.2582  0.2592 -0.1435
14717W        W30611  16.705  14.787  12.312  0.1415  0.1181  0.3149
14718W        W30612  15.675   4.638   5.880  0.1700  0.0200 -0.0509
14719W        W30613   5.688  11.497   2.914  0.0649 -0.0227  0.4122
14720W        W30614   6.956  15.190  13.846  0.0075  0.0470 -0.2048
14721W        W30615   6.333   8.904  14.904 -0.0781 -0.2172 -0.2149
14722W        W30616   5.944  11.903  11.031 -0.0068  0.2298  0.0881
14723W        W30617  16.397   4.635   2.124 -0.0601  0.1706  0.2097
14724W        W30618  15.196   3.131   3.596  0.3428 -0.1290  0.3898
14725W        W30619   0.958   7.069   3.938 -0.3959 -0.0742  0.0723
14726W        W30620  10.363  18.639   2.757  0.3421 -0.1751  0.2877
14727W        W30621  14.179   6.633   1.568  0.0129  0.3990 -0.1440
14728W        W30622  17.684  18.018   2.601  0.0162  0.1625 -0.0933
14729W        W30623   9.565  15.437  13.845 -0.1865  0.1298 -0.2105
14730W        W30624  18.924  16.246  11.445 -0.0889 -0.2768 -0.3909
14731W        W30625   0.554   7.337  11.664 -0.1333 -0.0947 -0.0630
14732W        W30626  13.894   4.685  14.814 -0.0331  0.3099 -0.0322
14733W        W30627  15.462   1.465   3.730  0.1512 -0.0216  0.0048
14734W        W30628   6.966  10.405  13.119 -0.4127 -0.3188 -0.1515
14735W        W30629   5.031  10.920  12.865 -0.2600 -0.3301  0.0936
14736W        W30630  18.537  17.854   2.093  0.0091  0.0605 -0.0891
14737W        W30631  13.536  12.368  11.291 -0.2288 -0.1362  0.1771
14738W        W30632   8.094   4.703   0.823 -0.3361 -0.1559  0.3893
14739W        W30633  10.446   1.467   1.957 -0.0958 -0.0623  0.0464
14740W        W30634   2.369   8.437   2.496  0.2568 -0.0904 -0.0836
14741W        W30635   0.327   1.170   5.555  0.1843  0.1581  0.1968
14742W        W30636   1.278  13.839  11.709  0.1612 -0.0515  0.1300
14743W        W30637  18.899  15.152  10.803 -0.0435  0.4036  0.0738
14744W        W30638   4.120   9.177  13.087  0.0675 -0.1729  0.1766
14745W        W30639  17.717   9.757  14.117 -0.1149  0.2350  0.1341
14746W        W30640   9.373  14.727   2.681 -0.1576  0.0783  0.1901
14747W        W30641   1.539   5.797  13.802 -0.1140 -0.0017  0.1575
14748W        W30642   0.955  18.165   0.428  0.1793  0.0625  0.0082
14749W        W30643  14.111  13.556  13.548 -0.0722 -0.0792 -0.1063
14750W        W30644   0.894  18.628   5.799  0.4867 -0.0462  0.1819
14751W        W30645   0.375  15.992   2.785 -0.2792  0.0207 -0.2373
14752W        W30646   8.856   3.503   3.563 -0.1591  0.0806 -0.2420
14753W        W30647   2.103  14.706   0.340 -0.1062 -0.0173  0.3835
14754W        W30648  13.364  15.967  13.605 -0.2019 -0.1722  0.1080
14755W        W30649   7.518   1.947  10.057  0.0872 -0.1491  0.0066
14756W        W30650   2.155   4.200  12.196  0.1268 -0.0262  0.5026
14757W        W30651  14.844   4.127   0.033 -0.0473 -0.0836 -0.0097
14758W        W30652  12.476  16.231  13.698  0.0430 -0.1969 -0.1605
14759W        W30653  13.020  13.690   3.548 -0.2950 -0.3761  0.1174
14760W        W30654  11.499  12.021   0.009 -0.0216 -0.0407  0.2868
14761W        W30655   4.691  13.427  14.666  0.2006 -0.0169  0.0755
14762W        W30656   1.511  14.765   0.372 -0.0707  0.2303 -0.0493
14763W        W30657  16.252   5.317   4.723  0.1653 -0.0669 -0.2130
14764W        W30658  11.940  15.118   1.840 -0.1620 -0.1742  0.1171
14765W        W30659   2.071   5.598  11.511  0.1227  0.2377  0.0955
14766W        W30660   6.174  17.990   0.090 -0.2449  0.1846 -0.2337
14767W        W30661   6.782  18.801   5.921  0.2582 -0.0433  0.4545
14768W        W30662   3.140   4.819   0.165 -0.0900  0.2322  0.1807
14769W        W30663   1.721  18.828  14.232  0.2402  0.0048 -0.1294
14770W        W30664  12.391  18.447  10.218  0.1469 -0.0205  0.0367
14771W        W30665  11.661  18.987  14.501  0.0669 -0.1126  0.2330
14772W        W30666  16.528   3.670   1.994  0.1555 -0.0955 -0.0580
14773W        W30667  14.995  16.271   3.148  0.0045  0.3868 -0.2049
14774W        W30668   0.073   5.038  11.899  0.0628 -0.3814  0.1346
14775W        W30669   0.204   9.776  12.798 -0.2926 -0.2536 -0.1610
14776W        W30670   6.030  15.063  11.711  0.1079 -0.3742 -0.1158
14777W        W30671  10.106   9.495  14.315 -0.0855  0.0629  0.1385
14778W        W30672  18.468   4.166  14.937  0.4231  0.1279 -0.2452
14779W        W30673   1.775   6.115   0.569  0.1016 -0.1907  0.0563
14780W        W30674   1.032  13.339   2.432 -0.2913 -0.3714 -0.4166
14781W        W30675  12.716  11.003   1.758 -0.0664 -0.0675  0.1884
14782W        W30676   5.216   5.771  10.981  0.1406 -0.1122 -0.2488
14783W        W30677   8.445  13.495  12.570 -0.0841 -0.3875 -0.0648
14784W        W30678   1.663  12.297   0.894  0.1821 -0.2393 -0.0230
14785W        W30679  15.911  11.543  12.564 -0.1727  0.1351 -0.4552
14786W        W30680   8.922   0.660  12.041  0.0769 -0.3562  0.3037
14787W        W30681   0.595  18.485  10.025  0.2333  0.1147 -0.3406
14788W        W30682  15.309  10.124   4.803  0.0130 -0.0646  0.3496
14789W        W30683  14.287   3.054   5.428 -0.1249 -0.0219 -0.0653
14790W        W30684   1.748   3.769  12.392  0.0629  0.0718 -0.1364
14791W        W30685   9.727   2.244  12.548 -0.0796 -0.0180 -0.2672
14792W        W30686  17.237  10.605  11.540  0.0390  0.0272 -0.0441
14793W        W30687   5.471  18.339   1.873 -0.2282  0.1019  0.3340
14794W        W30688   3.127   6.093   3.684  0.1006  0.1327 -0.1255
14795W        W30689   4.502   6.848   5.244 -0.2844  0.1354  0.0891
14796W        W30690   0.882   5.146   0.705  0.2232 -0.1345 -0.0327
14797W        W30691   0.579  17.026   0.748 -0.1676  0.1952  0.0519
14798W        W30692   3.204   6.123  14.485 -0.1964  0.0112  0.2426
14799W        W30693  13.231   9.007   4.209 -0.0316  0.2576 -0.1528
14800W        W30694   1.306  15.790   2.364  0.1017 -0.3734  0.1344
14801W        W30695  18.365  12.936  14.321 -0.1371  0.1222 -0.0457
14802W        W30696  14.808  13.243  11.068 -0.0106 -0.2546 -0.2308
14803W        W30697  10.377   0.065   3.322  0.0907 -0.2922 -0.0400
14804W        W30698  19.147  18.600  13.882  0.1898  0.0292  0.0997
14805W        W30699  14.577   6.821  12.002 -0.2029 -0.1323 -0.1595
14806W        W30700   5.455  11.995   4.943  0.1580  0.3848  0.0962
14807W        W30701   2.236   6.073  13.245  0.0078 -0.1751 -0.1082
14808W        W30702   9.282  15.760  14.850  0.3257 -0.0070 -0.0895
14809W        W30703  17.437   8.275   5.245 -0.0391  0.1010 -0.0402
14810W        W30704   7.230  15.201  13.042  0.0057  0.0963  0.1624
14811W        W30705   5.859   0.550   3.435  0.0494  0.1622  0.3169
14812W        W30706  11.967  15.143  10.990  0.0421  0.2529  0.0098
14813W        W30707  18.143   7.671   4.007  0.1270 -0.1055 -0.1153
14814W        W30708  10.671  13.387   1.781 -0.0043 -0.0067  0.3142
14815W        W30709  14.132  14.726  14.884  0.2077 -0.3010  0.0848
14816W        W30710  15.927  17.631   1.490  0.0771 -0.1404 -0.1914
14817W        W30711  19.132  13.806   2.632 -0.1091 -0.0426  0.1888
14818W        W30712  11.941  15.498  10.603  0.1937  0.1642 -0.3373
14819W        W30713  14.750   9.870   0.604  0.0657  0.2532 -0.1721
14820W        W30714  17.850  10.328   2.619  0.2507  0.0875 -0.1202
14821W        W30715  17.182   0.603  12.744 -0.0059  0.1164 -0.0265
14822W        W30716   7.733  13.009  14.185 -0.0112 -0.0523  0.2178
14823W        W30717   3.421  16.553  14.774 -0.0083 -0.1342 -0.1052
14824W        W30718  15.604  12.354  12.842  0.4298  0.1245  0.1124
14825W        W30719   5.203   0.579   3.406  0.4400 -0.2344  0.4310
14826W        W30720   9.473   6.996  11.866  0.0404  0.2068  0.2116
14827W        W30721   8.471  12.802  11.562 -0.3608 -0.0554 -0.0242
14828W        W30722  12.392   1.715  13.965 -0.1226  0.0773  0.1606
14829W        W30723  11.130  17.082  10.966 -0.0072 -0.0370  0.0123
14830W        W30724  13.279   5.743  14.232  0.1320  0.0232  0.2520
14831W        W30725   0.116   9.722  10.437  0.3646 -0.1455 -0.3267
14832W        W30726   6.194  11.482  11.237  0.0641  0.1934  0.0492
14833W        W30727  14.986   6.804   5.655 -0.4053 -0.0589  0.3012
14834W        W30728   4.617  16.423   1.983  0.2851  0.3107 -0.0964
14835W        W30729   6.088  17.011  14.616  0.0041  0.3100 -0.1988
14836W        W30730  13.003   5.200   1.550  0.0651 -0.1558  0.1366
14837W        W30731   9.794   6.968  14.265  0.1033 -0.1067  0.1251
14838W        W30732  14.351   1.917   5.802 -0.3723  0.1112 -0.0518
14839W        W30733   0.535   7.005   4.196  0.1685  0.1674  0.0659
14840W        W30734   6.185  13.203   3.081 -0.1360  0.0159  0.0786
14841W        W30735   0.583   6.768  12.921  0.0249 -0.0031  0.0430
14842W        W30736  10.303  15.854   0.855 -0.2196 -0.1072  0.2660
14843W        W30737   9.556   1.498  12.448 -0.0135 -0.2926  0.4141
14844W        W30738   6.398   9.110  11.234  0.1302 -0.1342 -0.1587
14845W        W30739   6.057  17.627   4.338  0.4196 -0.2377  0.4621
14846W        W30740  13.944  18.424   5.225 -0.1455 -0.4330  0.0823
14847W        W30741   1.942  14.257  13.715 -0.3252  0.2316  0.2402
14848W        W30742  18.045  18.145   3.541  0.0136 -0.1086  0.0319
14849W        W30743  16.580  10.004  11.447  0.2886 -0.1385 -0.2928
14850W        W30744  17.730   4.680   4.368  0.0651 -0.0041  0.0794
14851W        W30745   1.093  11.995  13.042  0.1547 -0.1826  0.2818
14852W        W30746   0.476   8.526   3.754  0.2057 -0.1609 -0.2611
14853W        W30747   5.096   8.631   1.039  0.1756  0.3456  0.0341
14854W        W30748  12.400   9.567  14.588  0.0957 -0.1015 -0.1092
14855W        W30749  12.295  16.459   0.033  0.0423 -0.0148 -0.1986
14856W        W30750   5.582  13.702   4.325  0.3018  0.3384 -0.0853
14857W        W30751  16.836  17.073  15.047 -0.1348  0.0094  0.0417
14858W        W30752  12.776   5.999  10.958  0.2075  0.0606 -0.1726
14859W        W30753  18.246   6.657  11.059 -0.4232 -0.2890 -0.1523
14860W        W30754   5.890   3.867  12.681  0.1069 -0.2422 -0.3068
14861W        W30755  15.616   6.659   0.607 -0.3033  0.0826  0.1733
14862W        W30756   6.575  14.522  14.483 -0.1787 -0.0723 -0.2639
14863W        W30757   3.243   4.842   1.186 -0.3141 -0.2431  0.0012
14864W        W30758   7.755  11.234  10.750  0.3420  0.2677  0.0792
14865W        W30759   1.653  15.086   2.274 -0.2846  0.0072  0.0012
14866W        W30760   3.927   3.563   3.706  0.2789 -0.0976 -0.0904
14867W        W30761  11.940  11.177   3.820 -0.1706 -0.1120 -0.1230
14868W        W30762  17.289  12.335   1.333  0.0248 -0.0906  0.2287
14869W        W30763  13.695  13.926  14.613  0.1765  0.2128  0.1660
14870W        W30764   7.754  11.161   0.840  0.2480  0.2606  0.3105
14871W        W30765   9.904  18.886  12.626 -0.3159  0.1319 -0.1801
14872W        W30766   2.256  16.350   9.610  0.0353  0.0581 -0.1750
14873W        W30767   5.780   9.686   1.503  0.2807  0.1032  0.1936
14874W        W30768   9.999   1.070   4.432  0.0335  0.0928  0.0895
14875W        W30769   0.025   0.272   0.735  0.0904 -0.4788 -0.1784
14876W        W30770   2.445  14.561   2.061 -0.0484 -0.0392  0.0813
14877W        W30771  18.905  14.356  14.367 -0.0303  0.1467  0.1608
14878W        W30772  12.977  17.892  10.159 -0.0434  0.0361 -0.0070
14879W        W30773  18.992  16.670   1.588  0.0841  0.4725  0.2578
14880W        W30774  13.696  11.754   3.476  0.1382  0.0936  0.0126
14881W        W30775   8.007  17.920  13.540  0.1754 -0.1662 -0.0141
14882W        W30776  15.693  11.193   0.021 -0.2752  0.0977 -0.1303
14883W        W30777  17.679  15.804   4.623 -0.1181  0.0889 -0.1671
14884W        W30778  13.152  13.455   9.890  0.3015  0.1003  0.1299
14885W        W30779   5.460   9.680  11.237 -0.0602 -0.2599 -0.0073
14886W        W30780   5.711   4.371   0.086 -0.1370  0.2958 -0.2043
14887W        W30781  10.351  18.311   0.121 -0.0294  0.0699 -0.3403
14888W        W30782   4.638  14.296   5.432 -0.1736  0.0079 -0.0349
14889W        W30783   3.084   0.043   2.241  0.1494 -0.3128  0.0042
14890W        W30784   6.021   3.643   1.547  0.0034  0.1986 -0.0354
14891W        W30785   4.276   7.008   3.847 -0.2063  0.4497 -0.4879
14892W        W30786  12.166  17.449   1.349  0.0524 -0.0548 -0.1464
14893W        W30787  13.572  15.231  12.443  0.0766  0.0053 -0.0460
14894W        W30788  13.425  14.117   1.411 -0.2182  0.0256  0.2127
14895W        W30789  17.238  19.169   4.790  0.1017 -0.0272 -0.3065
14896W        W30790  13.818   9.671   1.424  0.0945  0.1865 -0.4085
14897W        W30791  12.626  10.480  14.475  0.1756 -0.5059  0.0093
14898W        W30792   6.827  16.782   9.345 -0.1340  0.0221 -0.1526
14899W        W30793  14.043  11.202   4.358 -0.1227  0.2065 -0.2017
14900W        W30794   8.518   9.412   0.372  0.1606  0.2351 -0.0113
14901W        W30795   0.963  11.870   1.321  0.1786 -0.0747  0.3280
14902W        W30796  18.757  13.340   1.820 -0.1222 -0.1870  0.0262
14903W        W30797   4.544   6.076   5.729 -0.1253  0.0092  0.0200
14904W        W30798   6.514   9.868   4.679 -0.0622 -0.2418  0.0933
14905W        W30799   9.016   6.876   3.491 -0.0042  0.0515  0.1050
14906W        W30800  18.121  15.618   9.796 -0.1616  0.3778 -0.1710
14907W        W30801  14.822  11.123   9.794 -0.1375  0.1320  0.3721
14908W        W30802   1.201  18.577   2.627 -0.0692 -0.0473 -0.1236
14909W        W30803  10.818   7.893   1.896  0.1150 -0.0802  0.3609
14910W        W30804   3.604  18.182  14.552  0.1115  0.1332 -0.1359
14911W        W30805  13.615  13.052  14.446 -0.2217 -0.2700 -0.0149
14912W        W30806  14.674   4.935   4.362 -0.0286 -0.1962  0.3026
14913W        W30807   8.416   3.378   0.860 -0.2690 -0.2009 -0.0615
14914W        W30808  17.458  18.771   1.182 -0.0747 -0.0205  0.0234
14915W        W30809  14.235   9.109  14.310 -0.1363 -0.1725 -0.0246
14916W        W30810  10.554   3.343   2.474 -0.1996 -0.0762 -0.0116
14917W        W30811   0.091  12.363  11.297 -0.1900 -0.0683  0.3402
14918W        W30812   6.342  16.879  10.714  0.0001 -0.1037 -0.1046
14919W        W30813   7.103  12.158  12.167  0.4215  0.2348 -0.1400
14920W        W30814  16.839  11.667  14.252 -0.0148  0.0370  0.0664
14921W        W30815  16.398   8.656  11.786 -0.1842 -0.2647  0.1091
14922W        W30816   8.329   4.287  12.671  0.0610 -0.1334 -0.0444
14923W        W30817   6.835  11.074  13.886 -0.0536  0.3108  0.0517
14924W        W30818  13.911   9.130   4.026 -0.0589  0.0065 -0.1063
14925W        W30819   6.103   0.094   1.939 -0.4194 -0.1747 -0.1186
14926W        W30820   6.341   5.073   5.099  0.0359  0.1770  0.1918
14927W        W30821   8.698   4.056  10.794  0.1597 -0.1071 -0.2435
14928W        W30822   4.632  16.696  14.729  0.0685 -0.1263 -0.2729
14929W        W30823   6.165   2.404  13.791 -0.1759  0.1471  0.2327
14930W        W30824  10.820   3.390  14.880 -0.3815  0.1351  0.0045
14931W        W30825   1.736  16.025   2.177 -0.0893  0.2270 -0.0058
14932W        W30826   1.192  17.275  11.562  0.2849  0.3000 -0.0346
14933W        W30827  16.935   6.963   0.596 -0.1075  0.0616 -0.0126
14934W        W30828  13.816   4.941  12.285 -0.3710 -0.1142  0.0161
14935W        W30829  12.821  10.878   4.262  0.1093 -0.0480  0.0609
14936W        W30830  17.072   4.079  13.678  0.0844 -0.1000 -0.2067
14937W        W30831  18.209  15.612   1.018  0.1388 -0.2322 -0.0884
14938W        W30832   9.234   2.804   0.086  0.2476 -0.0697  0.0763
14939W        W30833   5.708   3.252   5.271  0.2541 -0.2033  0.1190
14940W        W30834   5.271   1.999   4.891  0.0382 -0.4545  0.1925
14941W        W30835  15.032  12.217   0.273  0.3564  0.0421  0.0659
14942W        W30836   8.132  15.478   2.135  0.1631 -0.1108 -0.3091
14943W        W30837   6.433  13.780   0.895 -0.0606 -0.1967 -0.1118
14944W        W30838  15.497  12.744  13.382  0.0642 -0.1739 -0.1842
14945W        W30839   5.793  17.493   1.417  0.0691  0.6796  0.0425
14946W        W30840   9.619  17.153   3.651 -0.2388  0.1664  0.3783
14947W        W30841  11.480   0.247  12.006 -0.0523  0.3414  0.2075
14948W        W30842   5.810   8.422   0.709  0.0668  0.3947 -0.0358
14949W        W30843  17.119   4.385   1.118  0.4128  0.2503 -0.0807
14950W        W30844  12.354   3.862   3.483 -0.1260  0.0793  0.1495
14951W        W30845  11.103   1.380  12.160  0.1282 -0.2010 -0.0833
14952W        W30846  10.204  15.531   3.916 -0.3562 -0.2870  0.1290
14953W        W30847   4.136  11.655  15.073 -0.0495 -0.0191 -0.1659
14954W        W30848   8.907  12.213   0.388 -0.2315  0.2915  0.1199
14955W        W30849  17.368   1.931   2.554  0.0768  0.4524  0.0854
14956W        W30850   3.968   3.592  10.991  0.0989  0.2269  0.3344
14957W        W30851   1.671   9.447   4.412  0.2518  0.2842  0.2209
14958W        W30852   0.418   3.071   3.074  0.0034  0.0141  0.1165
14959W        W30853  17.944   6.017  14.761 -0.1558 -0.1957 -0.0690
14960W        W30854  11.724  15.744  12.630  0.2067  0.3502  0.2058
14961W        W30855  16.640  12.828   1.572 -0.0400 -0.0719  0.0449
14962W        W30856   0.720   5.594  15.026 -0.1660  0.0428  0.1428
14963W        W30857   2.349  10.437   0.766 -0.0757 -0.1277 -0.0058
14964W        W30858  18.025  11.915  11.639 -0.1044 -0.0263 -0.2943
14965W        W30859   4.032   2.383  13.037  0.1340 -0.2085 -0.0893
14966W        W30860  17.588   8.269   2.227 -0.2367  0.0408  0.1632
14967W        W30861   4.552  11.390  11.823  0.1289 -0.0943 -0.1629
14968W        W30862  12.226   8.183   4.752  0.1330  0.0680  0.3364
14969W        W30863   6.234  11.731   2.231  0.2806 -0.1928  0.0089
14970W        W30864  11.810   2.682  11.098  0.0835  0.4804  0.2378
14971W        W30865   9.041   0.887   4.531  0.2989 -0.2158 -0.0383
14972W        W30866   5.138   6.258   2.507 -0.0599 -0.3880 -0.2363
14973W        W30867  10.023  16.943   2.018 -0.1559  0.1398 -0.1510
14974W        W30868   2.534  13.934   3.119 -0.0562 -0.0876  0.0931
14975W        W30869   1.984  14.298   2.149 -0.1926 -0.3298  0.1965
14976W        W30870   0.510  13.929   3.649 -0.2311  0.0011  0.2320
14977W        W30871  11.460  10.450   1.923 -0.0220  0.5254 -0.0493
14978W        W30872   4.791  19.077   1.503  0.0943  0.1288 -0.3354
14979W        W30873  15.326   4.504  14.276  0.1168 -0.2022  0.2513
14980W        W30874  18.434   9.163   5.481  0.3342 -0.2718 -0.0114
14981W        W30875  12.237   1.203  11.612  0.2014 -0.1375  0.0676
14982W        W30876   0.253   4.139  14.916  0.1635 -0.2810  0.1134
14983W        W30877  17.655   4.491   1.872 -0.3493 -0.1458 -0.2116
14984W        W30878   7.619   9.555   0.566  0.4172 -0.2897 -0.2340
14985W        W30879   9.157   5.097   3.224 -0.1466  0.2444  0.0597
14986W        W30880   2.463  17.306  14.352 -0.1883  0.2009 -0.0452
14987W        W30881  17.893   7.827   3.525  0.1416  0.1501 -0.0805
14988W        W30882   2.562  11.100  12.906 -0.0773 -0.0580  0.0471
14989W        W30883   5.770   1.527   5.329  0.1112  0.0273 -0.0098
14990W        W30884  15.884   7.491   0.856 -0.3463 -0.2977  0.2099
14991W        W30885  16.230   3.919  14.010 -0.0305 -0.1981  0.0557
14992W        W30886   5.041  13.936  11.359 -0.2500  0.2635  0.0370
14993W        W30887  10.474  12.198   3.603 -0.2328 -0.1859  0.0433
14994W        W30888  11.337   5.446  11.793 -0.1074 -0.2720  0.0124
14995W        W30889   0.040   4.623  14.880  0.2526  0.3500 -0.0993
14996W        W30890   5.537  12.991   1.010 -0.0233 -0.0379 -0.1098
14997W        W30891  10.902   0.739   4.242  0.2372  0.1089 -0.1367
14998W        W30892  16.487  15.752   3.553  0.2868 -0.1972  0.0873
14999W        W30893   3.232  13.379  14.267 -0.0835 -0.3193 -0.2054
15000W        W30894  13.674  12.116   4.622 -0.0864 -0.2769  0.1064
15001W        W30895   5.043   9.541   0.962  0.1671 -0.0498  0.0336
15002W        W30896   0.009  10.005  10.056  0.1585  0.0424 -0.1688
15003W        W30897  12.480  15.445   4.003  0.1820 -0.0489 -0.0332
15004W        W30898  18.778   1.571  12.925  0.1184  0.2024  0.0613
15005W        W30899  13.940  14.086  11.802 -0.1681  0.0273 -0.2441
15006W        W30900  16.892  18.484  11.433 -0.1840  0.1085 -0.3201
15007W        W30901  18.844   8.479   5.361  0.1010  0.0433 -0.1430
15008W        W30902   6.283  11.049  10.983  0.3840 -0.0519 -0.2138
15009W        W30903  18.137  13.948   1.861 -0.2027 -0.1656 -0.0783
15010W        W30904  19.073   3.489   3.663 -0.0522  0.0543  0.2398
15011W        W30905  10.019   7.463  15.105 -0.0039  0.0560 -0.0648
15012W        W30906   1.014  10.736   2.174 -0.1401  0.0082 -0.1684
15013W        W30907   7.769   9.360  12.359  0.1825 -0.3970  0.1080
15014W        W30908  10.682   1.577  14.029  0.0275  0.0365 -0.0994
15015W        W30909  16.163  10.459  11.786  0.1556 -0.3998 -0.1518
15016W        W30910   7.386   6.155  11.710 -0.2931  0.0402  0.1619
15017W        W30911  10.000  12.392   0.488 -0.3361 -0.1953  0.0907
15018W        W30912  12.251   6.904  14.347  0.1649  0.2149  0.2470
15019W        W30913  14.854  14.661   4.083 -0.1122  0.0457  0.1866
15020W        W30914  12.444   0.835  11.140 -0.1315 -0.0384 -0.0530
15021W        W30915   3.527  10.816  10.971  0.1401 -0.0144 -0.0487
15022W        W30916  17.736  12.825  11.926  0.0909 -0.1178  0.1267
15023W        W30917  13.556   7.719  10.487  0.0058 -0.0121  0.1845
15024W        W30918   6.843  11.802  10.458 -0.1785 -0.1346  0.2037
15025W        W30919   8.222   1.616   2.646  0.0275 -0.1238 -0.2333
15026W        W30920   5.545   4.333  10.095  0.4903 -0.1558 -0.2661
15027W        W30921  13.362  18.446  14.068  0.2465 -0.1638 -0.1161
15028W        W30922   2.851  11.885   4.662  0.0090 -0.0439 -0.2671
15029W        W30923  11.915  17.677  12.826  0.2718  0.1415 -0.0982
15030W        W30924   6.811  15.450  13.095  0.1407  0.1202 -0.4338
15031W        W30925   0.440   9.021   3.926 -0.0071  0.2055  0.1173
15032W        W30926  15.596   1.504  14.849  0.2917 -0.0667  0.4176
15033W        W30927  18.498   1.770   3.541 -0.0621  0.1473  0.1288
15034W        W30928   4.054   8.273  14.365 -0.1584 -0.2201 -0.2382
15035W        W30929  12.770   6.918   1.508  0.4208  0.0922  0.3069
15036W        W30930   7.773   6.485  12.000  0.2259  0.1806  0.0210
15037W        W30931   6.424   0.868   5.209  0.0673 -0.1576  0.0905
15038W        W30932  14.540  15.186  12.019  0.0472  0.6187  0.0515
15039W        W30933  13.417  13.043   0.485 -0.0496  0.0386 -0.1355
15040W        W30934   9.154  15.685   1.887  0.3604 -0.3830 -0.0457
15041W        W30935   0.844  17.174   1.350 -0.5071  0.0140  0.0851
15042W        W30936   9.738  12.416  10.379 -0.0573 -0.0346 -0.3136
15043W        W30937   0.524   6.615  12.336 -0.4862 -0.3315 -0.1266
15044W        W30938  18.356   0.578   1.193 -0.1989  0.1416  0.1448
15045W        W30939   1.873   1.354   5.061  0.0991  0.1413  0.1785
15046W        W30940  13.021  18.386   4.118 -0.2059  0.3095 -0.2087
15047W        W30941   1.028   2.475  11.402  0.0917 -0.1313  0.2419
15048W        W30942   4.726   1.159   4.146 -0.1968  0.1349  0.2302
15049W        W30943   1.336   3.572   3.835 -0.2375  0.0448 -0.3717
15050W        W30944  13.477   4.181   0.635  0.1586  0.2379  0.1383
15051W        W30945  10.473  14.623  14.583 -0.1803 -0.6288 -0.0649
15052W        W30946   9.950  19.121   0.208  0.0807  0.1602  0.3902
15053W        W30947   0.952  15.754  11.058 -0.0358  0.1967  0.0978
15054W        W30948   7.169  14.434   0.378  0.0804  0.2049 -0.3401
15055W        W30949  15.659   1.983  10.475  0.0203  0.2277  0.1768
15056W        W30950  19.110  16.569   9.616  0.2148  0.3053  0.1035
15057W        W30951  14.695  18.929  11.796  0.0303 -0.0319  0.3063
15058W        W30952   0.264   5.224  12.303 -0.0049  0.3582  0.0138
15059W        W30953  12.362  13.331   1.764  0.1297 -0.0293  0.0136
15060W        W30954  16.733  11.516  13.756 -0.3376  0.1275  0.2233
15061W        W30955   2.170   8.455   5.104 -0.2314 -0.0981 -0.1591
15062W        W30956   9.409   7.946   0.239  0.3966 -0.3078 -0.2462
15063W        W30957   7.289   9.746   1.656 -0.1675 -0.1032  0.2228
15064W        W30958   1.728  14.566  14.136  0.0758 -0.0569 -0.1742
15065W        W30959   9.230  13.720  13.533  0.4845 -0.1683 -0.1746
15066W        W30960  15.001   1.949  11.944  0.1602 -0.2677 -0.0733
15067W        W30961  17.207   3.710  14.617 -0.1853  0.0314 -0.1295
15068W        W30962   8.533  11.418   4.132  0.1931  0.3158 -0.0914
15069W        W30963  16.026   8.594   2.846  0.1270  0.5110  0.1467
15070W        W30964   0.151  18.085   0.726 -0.0815  0.0193  0.2620
15071W        W30965   1.899   6.932   3.701  0.0304  0.0680  0.0248
15072W        W30966  14.559   6.248   2.234 -0.2390 -0.3501  0.0852
15073W        W30967   0.966  16.100   0.676 -0.3033 -0.0889 -0.1457
15074W        W30968   1.441   7.918   2.797 -0.0732  0.0481 -0.1219
15075W        W30969   9.330   1.652   1.835 -0.0251 -0.2062 -0.0026
15076W        W30970  18.200  15.253  13.880  0.0382 -0.0125  0.0635
15077W        W30971  17.106  14.516  12.442 -0.0044  0.2199  0.0692
15078W        W30972   2.807   6.376   3.961  0.0592  0.1913  0.0134
15079W        W30973  13.251   4.119   3.596  0.0785  0.1570 -0.0960
15080W        W30974  15.799   4.786   2.871  0.0935 -0.0472  0.3439
15081W        W30975   1.083   1.914  12.907 -0.2323  0.2125 -0.1874
15082W        W30976   3.335  11.239  10.820  0.1660  0.1363 -0.0320
15083W        W30977   4.507  10.589   3.433 -0.1955  0.0537 -0.1117
15084W        W30978   6.250   4.354  13.534  0.1704  0.0920 -0.1718
15085W        W30979   8.057  17.159   2.013 -0.3081 -0.5132  0.0535
15086W        W30980   2.530  14.074  10.132  0.0877 -0.1109 -0.0452
15087W        W30981  15.741  10.654   2.497 -0.1299 -0.1604  0.3042
15088W        W30982  12.917   6.651   0.698 -0.1771  0.0419  0.3750
15089W        W30983   4.328   8.468  12.751 -0.1079 -0.1156 -0.1907
15090W        W30984   8.980  14.719   4.028 -0.2664 -0.0610 -0.0044
15091W        W30985   4.745   7.101   3.992 -0.0767 -0.0189 -0.3900
15092W        W30986   9.180   5.040   4.695 -0.5148  0.1385 -0.0542
15093W        W30987  16.670   4.070   3.044 -0.7085 -0.2836  0.3323
15094W        W30988  11.602   8.523  14.313 -0.0994  0.0859  0.1146
15095W        W30989  18.306  12.467   3.098  0.4602  0.2548  0.1397
15096W        W30990   5.037  10.660  14.836  0.2569  0.1714 -0.1974
15097W        W30991  16.170   9.610   2.552 -0.2401 -0.1731  0.0952
15098W        W30992   9.508  10.145  12.742 -0.1144  0.1191 -0.1107
15099W        W30993   5.740   5.043   0.331 -0.0753  0.3024 -0.0333
15100W        W30994   9.857  13.211   1.005 -0.0044 -0.2050  0.0976
15101W        W30995  18.005  15.639  14.505 -0.0586  0.0445  0.0591
15102W        W30996  17.256  15.559   2.016 -0.0816  0.3197  0.0455
15103W        W30997  15.762  10.883   5.348  0.1271  0.1179 -0.0032
15104W        W30998   3.671   3.337  14.691 -0.3111  0.2152 -0.1361
15105W        W30999  17.654  10.857   2.626 -0.1501  0.0325  0.1426
15106W        W31000   6.051  13.491   4.539  0.1733 -0.0576 -0.4980
15107W        W31001   7.622   1.641   9.667 -0.3845 -0.0088 -0.0177
15108W        W31002   3.349  12.191   3.510 -0.0255  0.2449 -0.0903
15109W        W31003   2.242  18.994   4.308 -0.2553 -0.0703  0.0326
15110W        W31004   2.764  10.602   2.996 -0.0890  0.0741  0.1668
15111W        W31005  17.690  14.583  11.047  0.0392 -0.3548  0.0521
15112W        W31006  18.014  14.354  13.154 -0.0170 -0.1362 -0.0290
15113W        W31007  16.284  18.405  13.212  0.0402 -0.0802 -0.1475
15114W        W31008   0.883   1.172   2.402  0.0328 -0.0892  0.1271
15115W        W31009   1.640   0.884  13.706  0.0054  0.1069  0.0724
15116W        W31010   6.002   2.760  14.077 -0.0322 -0.2202  0.1942
15117W        W31011  17.549   8.220   2.814 -0.1883  0.2434 -0.0235
15118W        W31012   7.627  11.618   0.370 -0.3247 -0.0989  0.1264
15119W        W31013  12.891   7.885  13.529 -0.2153 -0.1208  0.0622
15120W        W31014  13.598  11.078   1.326  0.1593 -0.2029  0.0783
15121W        W31015   0.066  14.496   5.492 -0.2370 -0.1425  0.0161
15122W        W31016   5.920  14.072   9.420 -0.0385 -0.0103  0.0133
15123W        W31017  13.314  13.733   4.102  0.3857 -0.0230  0.4670
15124W        W31018   0.285   7.774   1.960  0.0107  0.1490 -0.1070
15125W        W31019   6.775   3.704   4.568 -0.2867 -0.2518  0.2289
15126W        W31020   0.578  11.892  14.026 -0.2335  0.1201 -0.0621
15127W        W31021  14.848  15.110   2.487  0.2270 -0.3111 -0.0849
15128W        W31022  15.987  15.221  11.397 -0.1602 -0.4485  0.0446
15129W        W31023  14.526  17.646  13.117 -0.1317  0.2588  0.3479
15130W        W31024   4.878   2.861   0.039  0.0206  0.2959  0.1295
15131W        W31025   3.807  11.337   3.643  0.1471 -0.0477  0.2772
15132W        W31026   0.941   9.796   2.686  0.4085  0.0788 -0.0668
15133W        W31027  18.837  13.695  14.282  0.3453 -0.0176  0.2645
15134W        W31028   6.226  13.048   5.325  0.0661  0.0564  0.3650
15135W        W31029  13.822   8.693  12.630  0.4743  0.2110  0.0130
15136W        W31030   8.991  17.504   2.504 -0.4086 -0.0641 -0.1809
15137W        W31031  14.419   6.322   3.151 -0.1823  0.1793  0.1805
15138W        W31032   4.122   7.061   2.560  0.0430 -0.0567 -0.1156
15139W        W31033   1.756   4.318   2.446 -0.0911 -0.1466  0.2173
15140W        W31034   1.744   6.414   1.103 -0.0517 -0.2173  0.1343
15141W        W31035   3.334   2.618   2.752 -0.0748 -0.0341  0.1429
15142W        W31036   5.461   3.385  14.307  0.2145  0.1088 -0.3014
15143W        W31037   3.033   3.946  11.764 -0.0675 -0.0208 -0.0875
15144W        W31038  18.774   4.277   9.700 -0.3702  0.1000 -0.2891
15145W        W31039   9.849   5.674  12.548 -0.1622  0.1661  0.1598
15146W        W31040   0.227  11.916  12.775 -0.1500 -0.0022 -0.0243
15147W        W31041  14.243  18.676  12.593 -0.1425 -0.3413 -0.5335
15148W        W31042   4.612  12.486   4.741  0.1784  0.0972 -0.4000
15149W        W31043  10.197   3.935  14.304 -0.0461 -0.0245 -0.0049
15150W        W31044   0.386  18.194   2.984  0.1296  0.1532  0.1917
15151W        W31045   7.043  19.152   1.263  0.0487 -0.0538  0.3386
15152W        W31046  13.236  19.050   0.160  0.0686  0.0833  0.4763
15153W        W31047   7.212   3.342  14.017  0.2855 -0.0144  0.1205
15154W        W31048   7.995   1.534   3.056 -0.0112  0.1777 -0.3129
15155W        W31049   7.025  16.564  13.763  0.1092  0.1512 -0.2928
15156W        W31050  17.975  15.971  10.253 -0.0378  0.1060  0.3695
15157W        W31051   8.271  12.479   3.867 -0.2424 -0.2744  0.0938
15158W        W31052  17.939   2.704   1.988 -0.4281  0.1211 -0.1328
15159W        W31053   9.175   3.260   1.949 -0.0579  0.0700 -0.1815
15160W        W31054   4.292   2.912  14.167  0.1422 -0.0088 -0.1348
15161W        W31055   7.215  13.279   2.934 -0.2668 -0.1194 -0.0662
15162W        W31056  10.011  16.908  13.499  0.2713 -0.0181  0.0765
15163W        W31057   5.768   7.247  13.289  0.1986 -0.0515 -0.4074
15164W        W31058   5.849   7.904   2.780  0.0850  0.2836  0.0651
15165W        W31059   3.693  13.465   4.065  0.0566  0.0466  0.2973
15166W        W31060  11.209  11.103   1.557 -0.1347  0.3812  0.2404
15167W        W31061  10.861  14.238  13.059 -0.1407 -0.1128 -0.0444
15168W        W31062   9.120   2.097   9.640  0.1842  0.1715 -0.0257
15169W        W31063   2.796   5.415  12.740  0.0272  0.1907  0.0733
15170W        W31064   7.866  12.516  10.466 -0.0581 -0.2103  0.2038
15171W        W31065   1.651  17.117   3.511  0.0257 -0.5728 -0.0858
15172W        W31066   0.969  11.372   4.109 -0.0319 -0.0873 -0.0297
15173W        W31067  14.519  10.673  13.039  0.3161  0.3709  0.0976
15174W        W31068   7.426  14.763  12.259  0.0995  0.4282  0.0133
15175W        W31069   4.653  16.331   0.318 -0.4337  0.2334  0.0664
15176W        W31070  14.811   4.167   4.382  0.1483  0.1918  0.0463
15177W        W31071   3.327   3.574  11.680  0.2276 -0.2467  0.2291
15178W        W31072   2.647  17.880   1.005  0.1390 -0.1581  0.1500
15179W        W31073   0.467  16.054   0.534 -0.1130 -0.0972  0.2023
15180W        W31074   9.829   6.678  10.260 -0.0241  0.1149 -0.2110
15181W        W31075   8.331   7.839   2.571 -0.2353 -0.1348  0.0355
15182W        W31076   2.930   0.736   4.454  0.3893 -0.2770  0.1491
15183W        W31077   9.868  10.078  14.495  0.2468 -0.1472  0.1971
15184W        W31078   9.301  10.081   4.469  0.1675 -0.1501  0.1067
15185W        W31079   6.130  16.227   3.285  0.3161  0.0410  0.1767
15186W        W31080   3.305  14.734  12.456 -0.0068  0.2573  0.0728
15187W        W31081  14.124   4.194   1.940  0.0463  0.0445 -0.2835
15188W        W31082   0.387  15.200   3.830  0.2378  0.2039  0.3501
15189W        W31083   0.123  18.437  10.489  0.0008 -0.1464  0.1851
15190W        W31084  12.113   0.409   2.122 -0.0412 -0.3191 -0.0207
15191W        W31085  10.830   9.771  14.904 -0.0850 -0.1288 -0.1050
15192W        W31086   0.076  15.471  10.796  0.4145  0.1069 -0.2101
15193W        W31087   4.827   4.197   2.648  0.0484  0.4063  0.0270
15194W        W31088  13.418  10.702   0.576  0.3766  0.0582  0.3333
15195W        W31089   3.372  15.461  10.810 -0.3389 -0.0977  0.1155
15196W        W31090  18.959  15.406   1.611  0.0782 -0.0458  0.1280
15197W        W31091   4.444  18.135   4.563 -0.1572  0.4716 -0.1446
15198W        W31092  10.521   4.396   3.443 -0.2108  0.1108 -0.3928
15199W        W31093  15.414   1.724  12.237  0.1668 -0.0041  0.0284
15200W        W31094  11.063   5.055  14.112 -0.1181 -0.0771 -0.1080
15201W        W31095   4.801  18.279   4.908  0.2399 -0.1887 -0.0476
15202W        W31096   0.331  12.473  12.782  0.1442  0.1549  0.0035
15203W        W31097   2.894  19.157   0.715 -0.0974  0.1371  0.0671
15204W        W31098   7.461  19.178   3.138  0.0894 -0.5025  0.0949
15205W        W31099   5.087   0.711   1.052 -0.1136 -0.2969  0.1106
15206W        W31100  18.923  18.055  11.243 -0.0292  0.1248 -0.0811
15207W        W31101   5.545  17.891  14.599  0.0302  0.0635 -0.1099
15208W        W31102   6.929   9.152  11.940 -0.0153 -0.1537  0.0622
15209W        W31103   3.227  11.173  11.284 -0.2109  0.3269  0.2037
15210W        W31104  12.731   0.439  14.951 -0.2601  0.1834  0.0553
15211W        W31105  18.711  12.432   1.709 -0.0537  0.1741 -0.0815
15212W        W31106   5.621   6.951  11.923 -0.1838 -0.1338  0.0300
15213W        W31107  16.136  16.893   2.887 -0.0927 -0.0296 -0.2146
15214W        W31108  12.535   7.145   5.459  0.1842  0.0925  0.0860
15215W        W31109  10.460  13.422   1.202 -0.2115 -0.1567 -0.1420
15216W        W31110   0.694  17.557  14.436 -0.1679 -0.3486  0.2362
15217W        W31111   1.176   2.741  11.838  0.2970 -0.1114  0.0266
15218W        W31112   2.857  10.475   0.779 -0.0855  0.2400 -0.0480
15219W        W31113   3.963  17.832   2.736 -0.1271  0.0188 -0.0037
15220W        W31114   9.802  18.264  11.016 -0.1551  0.0552 -0.3926
15221W        W31115  10.625   1.851   4.149 -0.4265 -0.2103  0.0909
15222W        W31116   7.916  17.564  10.744  0.1379  0.0383  0.3471
15223W        W31117   5.522   2.265  12.693  0.0666  0.1035  0.0602
15224W        W31118   2.874   9.896   1.590 -0.2390 -0.3126 -0.0199
15225W        W31119   9.743   4.144   5.646 -0.0602 -0.1205  0.2653
15226W        W31120  13.555  11.170   4.395  0.1180 -0.2549  0.2065
15227W        W31121   9.036  15.328   3.283  0.1786 -0.3845  0.2373
15228W        W31122   1.545  12.382   0.069 -0.1909  0.0771 -0.1368
15229W        W31123   9.705  12.624  13.705 -0.2381  0.0136 -0.0316
15230W        W31124   9.194   9.393   3.323 -0.1892 -0.0201 -0.2924
15231W        W31125  11.000  12.660  10.873  0.1537 -0.3870 -0.0698
15232W        W31126   7.117  16.890  10.694  0.2800  0.2485  0.0166
15233W        W31127  18.584  17.753  10.157 -0.1141  0.5592  0.0053
15234W        W31128  13.861   4.880  11.755 -0.0311 -0.1373 -0.1770
15235W        W31129   1.689   7.330  12.682 -0.1120  0.1059  0.0667
15236W        W31130  13.555   4.617  12.626  0.1040 -0.1083 -0.0381
15237W        W31131  13.388   2.222  13.266 -0.1157  0.2348  0.1798
15238W        W31132   7.809   9.921   3.879  0.2287  0.2755 -0.0726
15239W        W31133  12.175   7.231  10.938 -0.1467  0.1815  0.1145
15240W        W31134   8.658   9.100   4.764  0.1884 -0.1873  0.2463
15241W        W31135   6.475   7.908  11.194 -0.0718  0.0357  0.0787
15242W        W31136  13.493   1.185  13.031  0.1579  0.4895  0.3201
15243W        W31137  17.642   6.502  11.399  0.1044  0.1487  0.0580
15244W        W31138  18.739   2.984   0.903  0.0094  0.0978  0.0640
15245W        W31139  17.415   6.810   0.702 -0.1206  0.0659 -0.1708
15246W        W31140   1.644  11.021  14.473 -0.2214 -0.2089 -0.1463
15247W        W31141   4.492  18.227   4.040 -0.0557  0.1264  0.2923
15248W        W31142  17.253  13.581  10.445  0.0731  0.3192 -0.1041
15249W        W31143   2.509   6.127   1.306  0.3403  0.1696  0.0361
15250W        W31144   4.531   1.664   2.523 -0.1336  0.1244  0.2530
15251W        W31145  11.660  10.240   1.241  0.1989  0.0553 -0.0293
15252W        W31146   6.381  15.105   4.754  0.0282 -0.0303  0.1399
15253W        W31147   1.853  17.934   4.115  0.0942  0.1145  0.1547
15254W        W31148  14.246   2.186   3.522  0.0086  0.1918  0.0645
15255W        W31149  16.099  16.001   0.570  0.1836 -0.1226 -0.1775
15256W        W31150  11.077  10.764   4.309  0.3114  0.3222  0.1108
15257W        W31151  11.705   3.848   3.704 -0.0344 -0.0845 -0.0489
15258W        W31152  17.841  11.061   2.202 -0.5278 -0.1507 -0.1207
15259W        W31153  12.964  13.267  14.809 -0.1306 -0.0716  0.0586
15260W        W31154   8.324   1.139   1.470 -0.1440  0.2231  0.3399
15261W        W31155   7.214   3.345  14.520 -0.1432  0.3756  0.1446
15262W        W31156   0.954   4.365   2.448  0.4728  0.0751  0.1901
15263W        W31157  14.706   8.366   1.505  0.2420 -0.1190  0.1404
15264W        W31158   2.730   9.392  12.225  0.3411  0.2059 -0.0553
15265W        W31159   4.006  12.822  10.563 -0.2714 -0.0027 -0.0651
15266W        W31160   3.453   4.142  11.914 -0.0708 -0.1035 -0.0327
15267W        W31161   5.576  17.561   2.166  0.2921  0.5213  0.0063
15268W        W31162   9.167   8.411  11.258 -0.0665  0.2350  0.0936
15269W        W31163   3.100   4.276   2.698 -0.1050  0.1332  0.2060
15270W        W31164  10.284  14.060  13.102  0.0598  0.3124 -0.2996
15271W        W31165  14.277   4.916   4.651 -0.0484  0.2592 -0.0821
15272W        W31166   0.220   3.829   4.662  0.1538  0.0438  0.2605
15273W        W31167   1.832  13.702  13.680  0.3204  0.2103 -0.1898
15274W        W31168  12.572   7.909  11.358 -0.0197 -0.1624  0.0400
15275W        W31169   8.249   4.497  11.268  0.0694 -0.0970  0.0998
15276W        W31170  12.540   9.734   1.480 -0.0429  0.0893  0.2798
15277W        W31171   2.215   6.312  13.962  0.1212  0.0668  0.0107
15278W        W31172   0.759   5.606  12.158  0.1339  0.2120  0.5381
15279W        W31173   3.577  11.307  13.842  0.1024  0.0731 -0.0630
15280W        W31174  10.009  10.628   0.713  0.3208  0.0276 -0.0121
15281W        W31175  10.827   5.856  10.758  0.2434  0.1794 -0.4356
15282W        W31176   9.799   5.162   5.971  0.1878 -0.2938  0.1546
15283W        W31177   7.438  12.548  10.201 -0.1303 -0.1574  0.0962
15284W        W31178  11.309  11.850   0.807  0.2556  0.0922 -0.2916
15285W        W31179   8.539   4.638  12.313 -0.3444 -0.0021  0.2408
15286W        W31180   0.633  12.866  13.762 -0.0376 -0.1210  0.0214
15287W        W31181  18.453   1.253  14.987 -0.0521  0.2415  0.0069
15288W        W31182   5.822   3.695  13.971 -0.0553  0.4936 -0.2846
15289W        W31183   3.383   2.819  14.695 -0.2303 -0.2257  0.2097
15290W        W31184   8.185  18.547   0.312  0.1430  0.0046  0.1878
15291W        W31185  10.063  18.143  11.535  0.0690 -0.0832  0.2202
15292W        W31186  17.420  14.127  10.521  0.1762  0.0205 -0.0567
15293W        W31187   6.909  19.033  10.757 -0.0405 -0.1247  0.2266
15294W        W31188  13.526   6.121  14.571  0.2535  0.2856  0.2221
15295W        W31189  17.591  13.673   0.799 -0.0009 -0.1164  0.1122
15296W        W31190  10.049  11.580  10.117 -0.1446  0.4255  0.2312
15297W        W31191   2.360  18.129  13.451  0.3133  0.0280 -0.0997
15298W        W31192  13.486  12.146   2.551  0.0455 -0.2459 -0.3587
15299W        W31193  16.283   6.716  14.584  0.0223  0.0262 -0.4572
15300W        W31194  18.738   9.514   0.707 -0.0034 -0.2863 -0.4172
15301W        W31195   8.744  17.801   2.196  0.2922 -0.3796 -0.0912
15302W        W31196  17.273  17.205  13.321 -0.2151  0.1845  0.2631
15303W        W31197  17.209   8.838   1.309  0.3067 -0.2893 -0.2450
15304W        W31198   5.732   2.544   0.513 -0.0577  0.2556 -0.1542
15305W        W31199   9.988   6.403  12.546 -0.3142  0.0165  0.2148
15306W        W31200   7.891   3.877   1.047  0.1799 -0.1563  0.0460
15307W        W31201   4.300  10.872   5.236 -0.0865  0.0997  0.0083
15308W        W31202  17.077   1.791   5.386 -0.0793 -0.1627  0.0299
15309W        W31203   5.929  10.235  13.536  0.0859 -0.0738 -0.3295
15310W        W31204   3.433  10.451   0.704 -0.1608  0.1745 -0.2744
15311W        W31205  15.800   1.036   2.228 -0.1335  0.4210  0.0693
15312W        W31206   6.219  14.441  10.587  0.0198 -0.3882  0.2287
15313W        W31207   7.737   4.384  14.587 -0.0959 -0.0976 -0.1881
15314W        W31208  11.557  13.258  14.131 -0.1488 -0.0734 -0.2123
15315W        W31209  18.578   4.691   3.290 -0.3792  0.1180 -0.0645
15316W        W31210  13.535   0.755   2.886  0.0561  0.1757  0.1894
15317W        W31211   0.562  11.656  12.450 -0.0737  0.2555 -0.1532
15318W        W31212  11.344  16.091  12.775  0.2454  0.0561  0.1475
15319W        W31213   1.397   1.436  14.421  0.1105  0.1244 -0.1266
15320W        W31214   6.844   9.766   0.021  0.1379 -0.3554 -0.3016
15321W        W31215  12.873   6.229  12.033  0.1378 -0.3303  0.0973
15322W        W31216  17.758  18.782   2.462  0.0163 -0.0093  0.1318
15323W        W31217  18.406  13.281  11.447  0.0377 -0.5215 -0.3939
15324W        W31218  16.788   9.170  13.278  0.0343 -0.1694 -0.0913
15325W        W31219  10.838   9.962  11.558 -0.0884 -0.2215  0.2127
15326W        W31220   1.313   6.435  14.882  0.1454  0.0179  0.1649
15327W        W31221   9.295  18.371   5.423  0.1428 -0.0379  0.1509
15328W        W31222   8.892  18.027  11.303 -0.0369  0.0418 -0.1580
15329W        W31223  18.922  12.550   2.161  0.0099  0.1653 -0.2448
15330W        W31224   9.838   9.157  13.679  0.2808 -0.1268 -0.3909
15331W        W31225  12.102   0.480  12.745 -0.0169  0.3597  0.0131
15332W        W31226  16.253  16.446   3.035  0.2928 -0.0415  0.1330
15333W        W31227   4.901  15.759  11.138 -0.2758  0.0936  0.0524
15334W        W31228  15.790   9.200   0.962 -0.1499  0.0695 -0.1400
15335W        W31229   1.230  15.222  10.279  0.0025 -0.1774  0.0343
15336W        W31230  15.823   1.138   3.754  0.0201  0.1994 -0.0034
15337W        W31231  15.870  13.878  10.601  0.1936 -0.1534  0.0146
15338W        W31232   4.296  12.582   9.605 -0.3142 -0.1381  0.1885
15339W        W31233  17.631  16.824   3.697  0.3289  0.0154  0.1843
15340W        W31234  17.530  15.407   9.944 -0.1913  0.1426 -0.2779
15341W        W31235  18.501  16.629   5.715  0.3088  0.3351  0.0785
15342W        W31236   1.693  14.747  13.734  0.3357  0.0125  0.0689
15343W        W31237  15.550  14.548  11.250 -0.0482  0.0748  0.0082
15344W        W31238   0.182  10.167   4.884  0.1731 -0.4017  0.1995
15345W        W31239   1.740  11.941  14.274 -0.1646 -0.2007  0.1076
15346W        W31240   0.517   1.189  10.361  0.0290  0.0614  0.2742
15347W        W31241  11.419  18.192   1.854 -0.3165 -0.1686  0.0264
15348W        W31242  13.702  13.093   2.597  0.0095 -0.2359 -0.0019
15349W        W31243   8.010  12.389  14.094 -0.0927 -0.1466 -0.0467
15350W        W31244  18.946   5.226   1.798  0.0293 -0.1250  0.1264
15351W        W31245  12.968  11.795   1.329 -0.0290 -0.3259  0.0885
15352W        W31246  18.989   6.322   5.325  0.2326 -0.1034  0.0328
15353W        W31247   1.489   8.353   3.649  0.0820 -0.1322 -0.1719
15354W        W31248   3.670  17.136  12.031  0.2538 -0.3882  0.3721
15355W        W31249   2.263  16.618   1.739 -0.2172 -0.3143  0.2252
15356W        W31250   5.842  16.186  11.629  0.0071 -0.2584  0.1356
15357W        W31251   5.494   4.425  14.181  0.1306  0.0871  0.2689
15358W        W31252  11.077  14.855  10.907  0.5262  0.0492  0.0591
15359W        W31253  16.022  14.412  14.467  0.2211 -0.4583 -0.0019
15360W        W31254   9.704  17.773  12.548 -0.1253  0.0852  0.1617
15361W        W31255  12.087   3.859  11.637 -0.0488 -0.0936 -0.0964
15362W        W31256   3.811   5.884   2.860 -0.5609  0.2234 -0.2928
15363W        W31257  15.742  15.530  14.250 -0.0810  0.2312  0.1758
15364W        W31258   5.084   0.497  12.969  0.0250  0.0381 -0.0907
15365W        W31259   2.415   4.434   0.917  0.0851  0.2616  0.0301
15366W        W31260  16.667   5.160   1.576 -0.2864  0.3272 -0.2349
15367W        W31261  16.515  18.599   3.381 -0.0403  0.2081 -0.0055
15368W        W31262  12.787  12.659   3.593 -0.1006 -0.0242 -0.1227
15369W        W31263   3.311  16.649  13.340  0.0336  0.1095  0.1729
15370W        W31264   2.841   2.251   5.027  0.0552  0.2318 -0.1108
15371W        W31265   8.022   2.117   0.016  0.4603  0.0780  0.3135
15372W        W31266   9.850   3.043  13.349  0.0084  0.0626  0.1028
15373W        W31267  13.788  14.226   1.767 -0.1511  0.0990  0.1956
15374W        W31268  14.756  12.981   2.350 -0.1252  0.2303  0.1669
15375W        W31269   8.902  19.153  12.531 -0.1094  0.0213 -0.2105
15376W        W31270   3.297   4.028  11.302  0.1607 -0.2184 -0.1341
15377W        W31271  15.224   0.303   1.980 -0.2143  0.0429 -0.4383
15378W        W31272   2.519   8.550   2.033  0.2439 -0.0113 -0.3813
15379W        W31273   8.773   9.519   3.053  0.3831  0.4185 -0.1287
15380W        W31274   5.685   4.130  12.298  0.1021 -0.0370  0.2169
15381W        W31275  17.320  18.578  11.790 -0.0083 -0.1729 -0.0209
15382W        W31276  10.392   0.082  12.529 -0.1783  0.1629  0.0975
15383W        W31277   7.236  10.601  11.461 -0.1958 -0.3403  0.0304
15384W        W31278  17.933   6.118  10.464  0.1594  0.0637 -0.0049
15385W        W31279   6.310  11.551  12.685 -0.1323 -0.1330  0.2164
15386W        W31280   1.327  18.237   0.958  0.1527  0.1157 -0.1386
15387W        W31281   9.538   4.396   4.398 -0.0532 -0.0171  0.3248
15388W        W31282   9.770   8.576   1.932 -0.0423 -0.0574  0.1519
15389W        W31283  15.599   2.671  13.394 -0.3273 -0.0383  0.0300
15390W        W31284   3.351  18.518  12.638 -0.1715  0.3437 -0.3583
15391W        W31285   0.460   1.105   5.037  0.0414  0.1061 -0.0564
15392W        W31286   3.742   6.579  13.895  0.0572 -0.1385 -0.0465
15393W        W31287  10.898   7.881   9.117 -0.0762  0.0935 -0.1100
15394W        W31288   7.378  16.119   2.729  0.0103 -0.2863  0.1531
15395W        W31289   1.162  11.425  12.288  0.0217  0.3753 -0.3064
15396W        W31290  12.724  14.660   0.968 -0.0556  0.2291 -0.1603
15397W        W31291   9.857   3.864   1.627  0.0604 -0.1215 -0.0146
15398W        W31292   2.612   5.776   0.522  0.0625 -0.0567  0.0575
15399W        W31293   0.155  13.483   5.508 -0.0860 -0.0623 -0.2010
15400W        W31294  10.865  14.013  10.859  0.0960 -0.0121 -0.0134
15401W        W31295   8.810   6.965   0.960 -0.0184  0.1723  0.0650
15402W        W31296   3.520  14.404  14.494 -0.1556  0.1818  0.0754
15403W        W31297  16.572   8.034   2.438 -0.1458 -0.0984  0.4169
15404W        W31298   5.408  18.862  14.295  0.2037  0.0648 -0.1170
15405W        W31299  11.282   9.225   1.829  0.1159  0.1571  0.1497
15406W        W31300   0.551  14.773   3.853 -0.0558 -0.4176  0.2274
15407W        W31301   5.972  15.717   3.429 -0.1780 -0.1363  0.4334
15408W        W31302  10.935   8.497  13.075  0.0688  0.0866 -0.0908
15409W        W31303   8.525  15.885  13.540 -0.2000  0.1151 -0.1295
15410W        W31304  17.133   4.432  13.283  0.0224 -0.0337 -0.0504
15411W        W31305  11.664   6.494  11.353 -0.0718 -0.2002 -0.1037
15412W        W31306  17.489  16.757  11.940  0.1893 -0.0979  0.1320
15413W        W31307   3.549   5.286   1.994 -0.0328  0.4720 -0.0286
15414W        W31308   3.076  16.797   0.554  0.0698 -0.0019  0.2152
15415W        W31309  13.152   0.877   1.965  0.0240 -0.0486 -0.0634
15416W        W31310   3.423   6.113  13.366 -0.1577 -0.3638 -0.0969
15417W        W31311  12.001  15.764   0.350  0.4505 -0.0352  0.0690
15418W        W31312   6.540   9.429   1.970 -0.2309 -0.1430  0.0753
15419W        W31313   0.074   5.302   3.851  0.2060 -0.1928  0.2422
15420W        W31314   0.334   3.336  14.745 -0.3967 -0.0859 -0.1401
15421W        W31315   5.034  12.678  11.410  0.2303  0.1570 -0.0458
15422W        W31316   7.308  15.382   3.278  0.1146  0.3717  0.0124
15423W        W31317   0.467   7.978   4.668 -0.1120 -0.3027 -0.2179
15424W        W31318   6.467  16.459  15.072 -0.0123  0.0830  0.1980
15425W        W31319  10.378   6.953  11.589  0.2967  0.2595  0.0696
15426W        W31320   9.599   8.189   1.234  0.1354 -0.1157  0.2327
15427W        W31321   3.560   8.030   1.656  0.0894 -0.1218 -0.1102
15428W        W31322   2.777  13.128  13.278  0.0527 -0.1361 -0.2859
15429W        W31323   0.166  15.639   2.561  0.0082  0.1892 -0.2130
15430W        W31324  16.020  15.691   1.968 -0.5097  0.2053 -0.1168
15431W        W31325  10.687   6.436  13.983 -0.1396 -0.0539  0.1818
15432W        W31326   6.297  12.043   2.592 -0.0285 -0.1119 -0.4086
15433W        W31327   5.381  18.755   4.143  0.0107 -0.0832  0.0940
15434W        W31328  10.068  13.604   1.883  0.1379 -0.0854 -0.3800
15435W        W31329   1.427   1.578   4.802  0.1491 -0.1776  0.0876
15436W        W31330  10.214   9.734  12.762  0.0373  0.1633  0.2336
15437W        W31331  11.568   7.584  13.094  0.0184 -0.0104 -0.3094
15438W        W31332   9.932   6.300  11.475 -0.1545 -0.0688  0.0255
15439W        W31333  15.591  18.827  13.140 -0.2432 -0.0516 -0.2727
15440W        W31334   7.027   3.293   0.438  0.0210 -0.1385  0.1755
15441W        W31335   6.435   0.534   2.185 -0.3462 -0.1187  0.0280
15442W        W31336  17.263  18.354  12.321  0.0516 -0.2113  0.2823
15443W        W31337  17.036  18.170   0.674 -0.0314 -0.0221 -0.0139
15444W        W31338  13.841  15.650  14.807 -0.2066  0.2851 -0.0473
15445W        W31339  18.982   5.334   3.410  0.3231  0.1131  0.1358
15446W        W31340   0.025   1.223   4.646  0.0786  0.0543  0.1033
15447W        W31341  11.538  11.100  12.922 -0.2485 -0.2528 -0.0120
15448W        W31342  18.416   8.061   3.318 -0.1534  0.1761 -0.2362
15449W        W31343   9.555  13.360  13.240 -0.0461  0.1843 -0.2204
15450W        W31344   1.747   1.661   0.308  0.2878  0.0400  0.1678
15451W        W31345   0.135  13.777   3.955 -0.1919 -0.0043  0.0600
15452W        W31346  16.597   4.688  10.396 -0.2496  0.4223 -0.0055
15453W        W31347   1.692   5.638   0.152 -0.0652  0.1691 -0.2408
15454W        W31348   9.043  17.208  11.550  0.1290  0.1477  0.1105
15455W        W31349   7.579   4.030   2.147  0.1293 -0.0130  0.3754
15456W        W31350  17.042   2.293  10.660 -0.2607  0.3020 -0.0788
15457W        W31351   2.555  14.186   3.972  0.1756 -0.2162  0.1223
15458W        W31352   3.653   9.376   3.909 -0.0690  0.1451  0.1084
15459W        W31353  10.787  11.883  11.360  0.2733 -0.1215 -0.0022
15460W        W31354  15.807  10.105   1.549  0.2382  0.2658 -0.0630
15461W        W31355   7.648   8.675   3.056  0.1921 -0.0786  0.0445
15462W        W31356  12.238   3.339  11.499 -0.0439  0.0966 -0.2297
15463W        W31357  12.872  13.762  12.820 -0.0839  0.0151 -0.1897
15464W        W31358  17.705  16.865   5.424 -0.4296  0.1052  0.0727
15465W        W31359   1.198   1.929   1.070 -0.1692  0.0246 -0.1526
15466W        W31360  11.291   2.653  14.434  0.1700 -0.3569  0.3046
15467W        W31361   5.398   0.578  14.771  0.2800 -0.0422 -0.1094
15468W        W31362   2.876  14.195  11.001  0.1425 -0.0079 -0.1034
15469W        W31363  18.917  14.898   2.740 -0.1367  0.2100 -0.3203
15470W        W31364   3.193  16.421  14.314 -0.0954 -0.0731  0.0856
15471W        W31365   6.996   1.547  12.979  0.0770 -0.3612 -0.2520
15472W        W31366   2.173  10.267   3.460  0.1758  0.0490  0.1045
15473W        W31367   5.852  18.899   2.430 -0.0037  0.0644 -0.2410
15474W        W31368  16.160  15.144  10.275 -0.2264  0.1040 -0.0873
15475W        W31369   6.792  16.122   3.644 -0.3533  0.1019 -0.2165
15476W        W31370   2.467   7.746   3.443  0.0110  0.4959  0.1493
15477W        W31371   3.555  14.994  12.000  0.0086  0.1988  0.0521
15478W        W31372  18.578  10.564   3.011  0.0084  0.1833  0.2520
15479W        W31373   6.788   6.972  12.393 -0.0765  0.1329 -0.1388
15480W        W31374  18.306   0.535   3.095  0.4040 -0.0323 -0.0828
15481W        W31375   9.883  16.426  11.114 -0.0143  0.0551 -0.1524
15482W        W31376   2.186  10.882   0.865 -0.1175  0.1401  0.0888
15483W        W31377   7.745   7.752   3.829  0.0632 -0.1192 -0.0727
15484W        W31378  10.897   9.723   3.529 -0.0292  0.1994  0.1239
15485W        W31379  15.667   2.888   2.600  0.4684 -0.1139 -0.2597
15486W        W31380  12.322  12.667   0.270 -0.1034 -0.0275 -0.2330
15487W        W31381   9.870   8.166  13.513 -0.0581 -0.2580  0.1520
15488W        W31382  14.167   4.728  10.261  0.1495 -0.1214  0.2701
15489W        W31383  15.789  16.082   9.270 -0.2902 -0.2231  0.0961
15490W        W31384   2.323  15.939  13.782  0.2527 -0.0769  0.0064
15491W        W31385   5.258   1.191  12.265 -0.0583 -0.1961 -0.0036
15492W        W31386  14.776   7.850   4.487 -0.0966 -0.1701  0.0801
15493W        W31387  16.231   4.798  13.571  0.0652 -0.1755 -0.2520
15494W        W31388  16.334   6.985   1.190 -0.0764 -0.2739 -0.4688
15495W        W31389  11.204   4.206  11.826  0.2302 -0.3825 -0.1807
15496W        W31390   5.936  17.146   2.972  0.2467 -0.0457 -0.1084
15497W        W31391  19.030   5.287  14.228  0.0780  0.1640  0.0435
15498W        W31392  15.236  14.082  13.211 -0.3197  0.1360 -0.0000
15499W        W31393   1.223   4.521   3.942  0.0568  0.0624 -0.2550
15500W        W31394  11.232  10.586   0.178  0.1023  0.1828  0.0392
15501W        W31395  12.491   7.465   4.385  0.0549  0.2411 -0.1805
15502W        W31396  16.435   5.524  13.462  0.0352  0.1772 -0.1765
15503W        W31397  16.003   3.563   1.317 -0.0819 -0.0265 -0.0191
15504W        W31398  17.692   8.544   3.757 -0.1583 -0.0438 -0.1976
15505W        W31399   3.041   2.114  11.168 -0.0118 -0.1214  0.3830
15506W        W31400   8.406  12.124  11.994 -0.1965  0.3332  0.1302
15507W        W31401   8.840  17.622  10.920 -0.2266 -0.1128  0.2223
15508W        W31402  17.342   1.068  14.029  0.2486 -0.1645 -0.2226
15509W        W31403   5.438  14.548   3.190 -0.2558 -0.1369  0.1307
15510W        W31404   6.280   7.398  11.343  0.0038 -0.1198 -0.1015
15511W        W31405  19.109  16.803   0.242 -0.2371 -0.0138 -0.0465
15512W        W31406  19.051   9.358   1.677 -0.0395 -0.2489 -0.1309
15513W        W31407  18.468   1.138   1.962 -0.3109 -0.1259  0.1847
15514W        W31408  17.306   5.763   0.301  0.1766  0.0241 -0.0171
15515W        W31409  18.026   9.628  13.746  0.2425 -0.1674  0.1261
15516W        W31410   4.389  11.272   1.755 -0.0862 -0.0452 -0.2785
15517W        W31411   1.462  12.469   2.885  0.1120  0.0579 -0.1061
15518W        W31412   9.090   1.262   2.157  0.0707  0.0010  0.0925
15519W        W31413   7.205  16.901   3.422  0.0298 -0.1850  0.0271
15520W        W31414  16.350  12.989  14.070  0.2554 -0.0631  0.1533
15521W        W31415  13.020  17.447  12.037  0.2387  0.0701 -0.0325
15522W        W31416   9.709   3.144  14.330  0.1234 -0.0253 -0.4598
15523W        W31417   8.565  19.215  10.555 -0.0893  0.2292 -0.0438
15524W        W31418   4.619  14.622  13.549 -0.2252 -0.1525 -0.2390
15525W        W31419  10.495  13.541   0.203  0.0433 -0.1657 -0.0014
15526W        W31420  11.722  11.446  12.173 -0.0254 -0.1293  0.0857
15527W        W31421   9.097  13.478   2.542  0.1967  0.0188 -0.1452
15528W        W31422  16.582   1.204   0.243 -0.2417 -0.1071  0.0204
15529W        W31423   1.457  17.414  14.983 -0.0866  0.1351  0.3589
15530W        W31424  12.503  13.967  10.232  0.0270  0.0279 -0.2453
15531W        W31425  18.006   8.878  10.742  0.2475  0.3257  0.1359
15532W        W31426   9.052   3.323  10.663  0.2284 -0.1563  0.0957
15533W        W31427  10.605   4.712  13.210 -0.1474  0.0877 -0.0871
15534W        W31428   4.250  17.455   3.510 -0.0052  0.1197 -0.1115
15535W        W31429   0.838   9.355   0.092  0.1658 -0.0042 -0.2006
15536W        W31430   0.037  19.064  14.112 -0.0993  0.0794  0.1040
15537W        W31431  10.486   5.635   1.312  0.0417  0.2044  0.1053
15538W        W31432   2.715   0.668   1.463  0.3488  0.1577  0.2286
15539W        W31433  14.014   9.560   0.044 -0.1968 -0.1960  0.1235
15540W        W31434   9.265  17.580   0.135  0.1349 -0.0798 -0.0380
15541W        W31435   3.726  13.107  11.747 -0.1353  0.4362 -0.0028
15542W        W31436  13.971   1.479   9.272 -0.2008 -0.1375 -0.1273
15543W        W31437   1.015   2.968   5.618  0.1826  0.1446  0.4765
15544W        W31438  15.062   2.782   1.228 -0.2462  0.1468 -0.1025
15545W        W31439  18.472   6.237  15.076 -0.0358  0.3074  0.0395
15546W        W31440   6.377   1.140  12.511  0.1640 -0.0280 -0.0152
15547W        W31441  12.362   6.201  10.781 -0.0880 -0.3256  0.0995
15548W        W31442  10.507   6.152  13.240  0.2846 -0.1387 -0.1703
15549W        W31443   8.040  14.701  13.776 -0.0436  0.0827  0.0374
15550W        W31444   9.961  17.289   4.664 -0.0621 -0.0178  0.0081
15551W        W31445  15.084  10.711   2.609 -0.0555 -0.0849  0.0490
15552W        W31446  14.560   4.356  13.729 -0.2953 -0.0024  0.0151
15553W        W31447  16.571   3.714   9.853  0.1027 -0.0038 -0.0187
15554W        W31448   8.152   3.916   2.542 -0.1667  0.3115  0.1155
15555W        W31449   3.635   3.136   3.196 -0.1221 -0.2652 -0.0660
15556W        W31450   5.344   4.358   1.822 -0.0633  0.2103  0.0786
15557W        W31451   8.267   0.186   1.594 -0.5088  0.3373 -0.1423
15558W        W31452  13.121  18.762  10.372 -0.2565 -0.0069 -0.4622
15559W        W31453   3.118   3.073   4.984  0.1020  0.0078  0.0889
15560W        W31454  14.654   5.269   1.629  0.2712  0.1711  0.4374
15561W        W31455  13.252  18.613   1.137 -0.1057  0.5832  0.1388
15562W        W31456   1.150  15.544   4.864  0.1106 -0.0289  0.4741
15563W        W31457   8.672   1.415   3.022  0.1097 -0.1600  0.2815
15564W        W31458   2.672  18.526   2.129 -0.0454 -0.0230  0.0422
15565W        W31459  13.558  16.536  14.690 -0.2744  0.0839  0.0212
15566W        W31460  14.529  16.826  13.225  0.0254 -0.1094 -0.1477
15567W        W31461  11.320  12.481   4.260 -0.0322  0.3205 -0.0896
15568W        W31462  10.054   3.390   2.418  0.0180 -0.3620 -0.1504
15569W        W31463  12.482   0.766   0.923  0.0626 -0.0108  0.1568
15570W        W31464  16.840  15.241   5.151 -0.1075  0.2119  0.1192
15571W        W31465  11.860  13.294   0.254 -0.3988 -0.1248  0.1205
15572W        W31466  16.410   9.155   3.473  0.2661 -0.4618 -0.0301
15573W        W31467  12.815  13.773  13.834  0.2164  0.0207  0.0483
15574W        W31468   8.988   4.644   0.954 -0.0815 -0.0320  0.0913
15575W        W31469   7.099   0.855   1.545  0.0096  0.1484  0.3635
15576W        W31470   6.306  17.573   1.309  0.3122 -0.2828 -0.2140
15577W        W31471   1.898   0.995   0.985 -0.2926 -0.3353  0.0748
15578W        W31472  16.000   2.598   4.718 -0.1499  0.0707 -0.1398
15579W        W31473  19.148  10.778  14.674  0.0734 -0.1643  0.0348
15580W        W31474   7.301   1.064  13.761  0.2021  0.1397 -0.1198
15581W        W31475   3.648  10.206  10.572  0.3116 -0.0090 -0.0303
15582W        W31476  18.591  17.688   1.359  0.1925  0.0580  0.1572
15583W        W31477   2.323  11.930   4.454 -0.0544 -0.0768  0.3826
15584W        W31478   5.229  12.179  15.044 -0.1267  0.0297  0.0147
15585W        W31479   3.903   2.245  10.996  0.0624  0.0630  0.0420
15586W        W31480  10.119   2.320  13.868 -0.0076 -0.0646 -0.2071
15587W        W31481   0.707  15.081   1.931 -0.0274 -0.1291  0.1774
15588W        W31482  15.062   7.056  11.686 -0.1477 -0.0057 -0.0882
15589W        W31483  15.453  17.781  11.840  0.0286 -0.2998 -0.1515
15590W        W31484   9.958   3.036  10.246 -0.4069  0.4277 -0.0444
15591W        W31485  18.598   0.441   4.517  0.0209  0.0451  0.0922
15592W        W31486  15.550   0.597   1.056  0.1079  0.1663  0.2299
15593W        W31487  16.389  17.099   3.809 -0.1005 -0.2564 -0.0379
15594W        W31488  18.496  17.945   3.468 -0.1665 -0.0873  0.1775
15595W        W31489   0.728  16.558   4.304  0.0267  0.1240  0.0778
15596W        W31490   0.710   6.202   2.771  0.0915  0.4687 -0.1172
15597W        W31491   6.905   6.322   4.651  0.0372 -0.0474  0.0755
15598W        W31492  17.280   1.379   1.153 -0.1645 -0.1614 -0.0866
15599W        W31493  11.454  15.684  13.603 -0.1338  0.1460 -0.3637
15600W        W31494   1.455   7.564  14.176  0.1460 -0.1721 -0.2142
15601W        W31495   0.407   9.331  13.574 -0.0186  0.2163  0.0969
15602W        W31496   6.400   4.162   4.502  0.2316 -0.1348 -0.0793
15603W        W31497  14.072  18.032   0.748  0.0931  0.3604  0.3221
15604W        W31498   3.001  11.381   3.005  0.0581 -0.3120 -0.1469
15605W        W31499   1.455   1.992   2.811 -0.1619  0.0308  0.0859
15606W        W31500  14.678  11.295   3.727 -0.0090 -0.2322 -0.2793
15607W        W31501  11.078   2.864   3.712  0.3299  0.0665 -0.7506
15608W        W31502   5.267   5.775  14.690 -0.2363  0.0326 -0.0525
15609W        W31503   3.513   2.483   1.618  0.2654  0.0638  0.0196
15610W        W31504   5.905   3.748   3.034 -0.1970 -0.1844 -0.2882
15611W        W31505   4.661   6.533   1.384  0.1966 -0.3210  0.4240
15612W        W31506   1.733   7.885   3.720 -0.0922  0.0305  0.0573
15613W        W31507   8.703  16.337   3.657  0.1235  0.1619  0.1548
15614W        W31508   9.564   5.922   0.624  0.0387  0.0315 -0.0996
15615W        W31509   8.179  17.993  10.709  0.0443 -0.1531  0.0554
15616W        W31510  14.376  18.303   4.372 -0.3137  0.1663 -0.3928
15617W        W31511   1.578   0.752   2.499 -0.2353 -0.0591  0.1674
15618W        W31512  14.266  14.173   1.699  0.0437  0.2042  0.0652
15619W        W31513   7.667  16.776  14.447  0.3380  0.2404 -0.2148
15620W        W31514  13.503   0.851  13.586 -0.2018  0.1850 -0.1114
15621W        W31515  18.132  15.285  13.368  0.1005 -0.0887  0.1813
15622W        W31516   4.105   9.404   4.255 -0.1304 -0.3123  0.1115
15623W        W31517   1.359  14.285   3.346  0.0662 -0.0418 -0.5694
15624W        W31518   8.541   9.988   3.855  0.0465  0.0334 -0.1891
15625W        W31519  17.735  16.415   1.458  0.1585 -0.2316 -0.1181
15626W        W31520  13.453   1.023  12.462  0.1120 -0.1207 -0.2536
15627W        W31521  12.133  18.033   1.018 -0.0103  0.1950  0.1221
15628W        W31522   8.379   0.865  15.021 -0.1075 -0.2495  0.0935
15629W        W31523  16.316  15.449   0.928  0.0677 -0.1086 -0.1338
15630W        W31524   1.753   5.523   5.494 -0.0885  0.2132  0.1828
15631W        W31525   8.749  10.473  12.901  0.1962 -0.3172 -0.2092
15632W        W31526   0.170  10.666   4.960 -0.0884  0.1128 -0.0676
15633W        W31527  12.139  13.993   3.258 -0.4486 -0.3084  0.1465
15634W        W31528  12.203   8.616  11.222  0.1338  0.0164 -0.1975
15635W        W31529  13.501  18.495  10.753  0.0117 -0.0278 -0.0062
15636W        W31530  14.948  11.853  10.000 -0.0342  0.1194 -0.0237
15637W        W31531  14.844  10.336  14.348 -0.0365  0.1750 -0.0958
15638W        W31532  10.600   8.467  11.090 -0.0901 -0.1608 -0.0923
15639W        W31533  10.333  13.795  12.505 -0.1419  0.1080  0.2056
15640W        W31534  17.933  17.407  11.588  0.0389 -0.3106  0.4729
15641W        W31535  13.163  16.822   0.485 -0.4093 -0.2227  0.2440
15642W        W31536   1.846   0.437  11.315 -0.1191 -0.0680 -0.1685
15643W        W31537  10.991   5.223  11.534  0.1543 -0.0139 -0.0877
15644W        W31538   2.860  15.078  11.617 -0.0394  0.2515  0.0304
15645W        W31539  17.930  17.843   5.033  0.0608  0.1352  0.0407
15646W        W31540  14.955  14.090  13.638  0.0285 -0.1093 -0.2363
15647W        W31541  16.859   1.097   1.051  0.0636  0.0999  0.2292
15648W        W31542   4.432  11.306   4.125  0.0599 -0.2405 -0.2867
15649W        W31543   3.346  10.331  10.999  0.1082 -0.1599  0.2014
15650W        W31544   1.896   8.538   4.004 -0.0573  0.0524  0.2406
15651W        W31545   0.701   9.669   0.465  0.1280  0.0733 -0.2283
15652W        W31546  10.250  17.787   0.045  0.1590 -0.3300 -0.1460
15653W        W31547  18.921  18.402   2.641 -0.0785 -0.0804 -0.0978
15654W        W31548  15.513   1.592   1.310 -0.1472  0.0645 -0.3315
15655W        W31549  19.122  14.134  12.475  0.0066  0.2956 -0.3669
15656W        W31550   3.103   5.726  11.142 -0.0557 -0.0292 -0.0772
15657W        W31551  11.604   4.468   3.824  0.0883 -0.1842 -0.2010
15658W        W31552   5.325   3.111  10.066 -0.0435 -0.0737 -0.1031
15659W        W31553   6.827   2.159  12.274 -0.3469  0.2523  0.0330
15660W        W31554   2.157   1.365   1.236  0.1716  0.6553 -0.1049
15661W        W31555   7.298   3.582   2.338 -0.0961 -0.3313  0.2118
15662W        W31556   5.285  17.962   0.348  0.0067 -0.3230  0.0988
15663W        W31557  16.311   2.308  13.003 -0.0855 -0.2104 -0.2368
15664W        W31558  10.393   9.971  13.155 -0.3919  0.0985  0.0583
15665W        W31559  12.897  11.794  10.258 -0.2597 -0.1475 -0.2604
15666W        W31560   0.301  17.399  14.970  0.0356 -0.0021  0.4032
15667W        W31561   6.704   4.839   4.615 -0.3929  0.0113 -0.0429
15668W        W31562   1.063  11.659   9.068 -0.2950 -0.1022 -0.0843
15669W        W31563   9.036  15.398  10.487 -0.1965  0.0271  0.2150
15670W        W31564   1.723   7.925  10.878 -0.0590  0.2075  0.0303
15671W        W31565  14.508  16.522   0.630 -0.2058 -0.0376 -0.1444
15672W        W31566   7.225  10.388  13.532 -0.1321 -0.1254  0.1145
15673W        W31567   2.066   2.374  14.835 -0.1686  0.2046  0.0297
15674W        W31568  17.663   0.356  12.962 -0.1496  0.2771  0.0499
15675W        W31569   9.276  17.758  11.679  0.0986 -0.1641  0.0736
15676W        W31570   4.353   2.551  14.493 -0.2589  0.2108  0.3280
15677W        W31571  11.771   4.834  12.897  0.3837  0.1281  0.3140
15678W        W31572  10.514   2.783   2.666 -0.2971 -0.1784  0.1531
15679W        W31573  18.099   4.313  14.570  0.0826 -0.3542 -0.1298
15680W        W31574  10.223   8.229   0.696 -0.2849  0.1067 -0.0936
15681W        W31575  11.798  18.691   5.509  0.1208 -0.0665  0.2325
15682W        W31576   4.517  11.326  13.027 -0.1631 -0.2521 -0.2115
15683W        W31577  13.578   1.944  14.710  0.1354  0.0291  0.0702
15684W        W31578  13.968  18.695  10.579  0.1437 -0.0282 -0.0990
15685W        W31579  10.564  17.420   1.288  0.3742 -0.0422  0.0465
15686W        W31580  18.730  12.412   5.525 -0.0745 -0.0869 -0.2130
15687W        W31581   5.784   9.214   2.217 -0.3229  0.0189  0.1848
15688W        W31582  10.405   6.410   1.642  0.0334 -0.3654  0.2002
15689W        W31583  16.705   3.808   4.462 -0.0386 -0.1701  0.2332
15690W        W31584  18.063  11.513  13.934 -0.1330 -0.4287 -0.1939
15691W        W31585  19.018   9.097   0.754  0.2030 -0.5467 -0.0801
15692W        W31586  11.092  11.451   2.119  0.4361  0.1565 -0.0666
15693W        W31587   6.056  15.716  11.591  0.2268  0.1535  0.0337
15694W        W31588  12.351  16.935  15.016 -0.0889 -0.1246  0.2359
15695W        W31589  17.554  12.324   5.389  0.3159  0.2054 -0.1509
15696W        W31590   1.964  19.216  13.823  0.0191 -0.0002  0.2112
15697W        W31591  18.601  15.438   4.101 -0.1790  0.1463 -0.1347
15698W        W31592   1.494   1.490   1.878 -0.1007 -0.2361 -0.0602
15699W        W31593  13.622  17.941   0.303  0.2146 -0.0753  0.2961
15700W        W31594  10.363   0.062   0.498  0.1204  0.4060  0.0217
15701W        W31595  10.302  12.738  14.473  0.2733 -0.2839 -0.0725
15702W        W31596  13.709   3.328   0.462  0.0902 -0.0637  0.0554
15703W        W31597   1.578   4.146   1.281 -0.1808 -0.4416 -0.1099
15704W        W31598  16.146   7.420   4.228 -0.1898  0.0958  0.1889
15705W        W31599  14.431  17.354   3.718 -0.1430  0.0499 -0.0004
15706W        W31600  17.019  16.854   4.750  0.0452 -0.2862  0.0654
15707W        W31601  19.108  16.467  12.669  0.0333  0.0124 -0.2006
15708W        W31602   4.902   1.909   2.746  0.2745 -0.1458 -0.0354
15709W        W31603  18.903   9.959  15.104 -0.1870  0.1317  0.3644
15710W        W31604   8.080  16.564   4.915  0.2874 -0.0762  0.2515
15711W        W31605  15.788   8.448   4.919 -0.0820 -0.1681 -0.0903
15712W        W31606   4.885  11.004  11.831 -0.0454  0.2113  0.0136
15713W        W31607   2.106   5.485  13.957  0.1713  0.1830 -0.2196
15714W        W31608  18.621  13.494  13.492 -0.2001  0.2332 -0.1746
15715W        W31609  11.009  14.111   4.434 -0.1344  0.1834 -0.2912
15716W        W31610  13.512   0.173   5.088  0.0579 -0.1277 -0.0993
15717W        W31611   7.527   4.619  12.338  0.0802 -0.1916  0.2615
15718W        W31612  14.926   5.447  13.063 -0.4708  0.4128  0.2850
15719W        W31613  10.908  16.368   3.971  0.2659  0.0653 -0.0900
15720W        W31614   1.331  18.838   2.145  0.0310 -0.1366 -0.1902
15721W        W31615   9.295   1.859  11.621  0.1683 -0.1280  0.2284
15722W        W31616   1.080  17.727   3.090 -0.1182  0.2257  0.5023
15723W        W31617  18.059  13.115  13.905 -0.2718  0.2804  0.0405
15724W        W31618  16.066   2.677   5.695  0.2307 -0.1833  0.0227
15725W        W31619   2.096   9.799  13.520  0.1416  0.2217  0.0255
15726W        W31620   6.451   8.268   3.557 -0.0871  0.1938 -0.1808
15727W        W31621  18.835  15.615  13.802  0.1489  0.5132 -0.5055
15728W        W31622   9.394   6.943  10.477 -0.1246 -0.0748 -0.3961
15729W        W31623  18.976   9.820  13.726 -0.1522  0.0512  0.1613
15730W        W31624  18.390   5.545   2.758  0.3075 -0.0089  0.2160
15731W        W31625   7.986   2.217  12.115 -0.2795  0.2759  0.3309
15732W        W31626  15.601  15.176   0.807  0.0451  0.3461  0.1579
15733W        W31627  12.599   0.091   4.063 -0.1501  0.1244 -0.1201
15734W        W31628   7.809   9.038  11.520  0.1031  0.4111 -0.1764
15735W        W31629  13.710   0.794  14.023  0.0032  0.3921  0.3047
15736W        W31630   4.152  18.948  12.192 -0.1616 -0.0710  0.2508
15737W        W31631   9.314   0.829   2.054  0.1273  0.0211 -0.1812
15738W        W31632   0.060   1.835  12.930 -0.0960  0.1105 -0.6513
15739W        W31633  18.310  10.639   1.715  0.1038 -0.0110 -0.2459
15740W        W31634  13.269  13.012   2.397  0.0188  0.2718  0.2345
15741W        W31635  11.132   5.490  12.994  0.2981  0.2382 -0.0456
15742W        W31636   2.405   1.734   0.524 -0.4278  0.2250 -0.0831
15743W        W31637   6.396  17.067  13.636  0.0435 -0.0509 -0.0031
15744W        W31638  10.232  13.358  10.803 -0.0830  0.0710  0.2532
15745W        W31639   7.123  12.406  13.858 -0.0732  0.0473 -0.0395
15746W        W31640   5.081   2.888  10.460 -0.2772  0.0272 -0.1170
15747W        W31641  18.271  14.007   4.308 -0.2722 -0.1702  0.0127
15748W        W31642  14.386   9.049   1.889 -0.0108 -0.1940 -0.0765
15749W        W31643   0.165  14.555  13.213 -0.3054  0.0126  0.0619
15750W        W31644  12.198   0.238   0.199 -0.0631  0.2784 -0.1694
15751W        W31645  16.179   6.157  12.694 -0.0465  0.2660 -0.0903
15752W        W31646   2.831   8.138   2.737 -0.1984 -0.2267  0.1177
15753W        W31647  16.404   9.129  13.566  0.1005  0.0733  0.3396
15754W        W31648   1.872  17.819   4.624 -0.0204 -0.1300 -0.0131
15755W        W31649  17.613   0.372   0.187 -0.0369  0.1818  0.0053
15756W        W31650   3.712   1.518  14.988 -0.1030  0.2110 -0.0888
15757W        W31651  18.413  13.629   1.506 -0.0122 -0.0050  0.0935
15758W        W31652   8.846   7.835  10.953  0.1736 -0.1722 -0.1780
15759W        W31653   8.492  17.672   4.104  0.2253 -0.0519 -0.0209
15760W        W31654  16.684  15.370  13.164  0.1338  0.0053 -0.0157
15761W        W31655  15.622  11.678  10.210 -0.2409  0.0478  0.3072
15762W        W31656   2.886  15.953  14.427  0.0927  0.2198 -0.3277
15763W        W31657   5.776  10.255  13.038  0.2091 -0.1659  0.0193
15764W        W31658  10.905   1.070  11.210 -0.1872  0.0040  0.1879
15765W        W31659   0.035  15.047  13.345  0.3622  0.3904  0.1796
15766W        W31660   3.409   9.521   0.859  0.1713 -0.1060  0.1655
15767W        W31661  10.920   3.615   0.260  0.0767 -0.3332  0.0366
15768W        W31662  13.145  18.078   9.749 -0.1839 -0.3819 -0.0707
15769W        W31663  14.969  14.443  10.524  0.0265 -0.3182  0.0770
15770W        W31664  17.183  13.517  13.953 -0.7096  0.1367 -0.3211
15771W        W31665  11.873   2.549   3.601  0.1532  0.1992  0.4820
15772W        W31666  10.850  12.775   0.157 -0.0067  0.1353  0.0984
15773W        W31667  13.182   6.494   3.914 -0.0880 -0.1309  0.0248
15774W        W31668  13.697  10.891  10.736  0.3145 -0.1938  0.2411
15775W        W31669   4.745  18.291  14.211 -0.0175  0.3467 -0.2084
15776W        W31670  11.626   7.919   2.764  0.1132 -0.0556  0.2996
15777W        W31671   2.398  12.515   2.779 -0.2233  0.0629  0.1343
15778W        W31672   5.122   0.015   2.837  0.0172  0.0554  0.0802
15779W        W31673   1.876  16.592   5.291 -0.0899 -0.2593 -0.1575
15780W        W31674  18.107  11.847  11.144  0.2558 -0.0077  0.1014
15781W        W31675   0.271  13.592  10.268 -0.0288 -0.0020 -0.1167
15782W        W31676   6.959   2.353   4.347 -0.1928 -0.1802  0.3623
15783W        W31677  12.192   3.410   4.301  0.1638  0.0403 -0.4383
15784W        W31678   9.961  13.407   3.976 -0.1437  0.0730  0.2473
15785W        W31679  18.349   6.037   1.160 -0.2058  0.0608  0.2096
15786W        W31680  16.412   3.976  11.701  0.0503 -0.0300 -0.2078
15787W        W31681   7.724  16.542  13.616  0.1922  0.0894 -0.1764
15788W        W31682  13.751  16.874  13.326  0.0888  0.1508 -0.0925
15789W        W31683  17.915  11.880   0.399  0.1457 -0.1421 -0.3943
15790W        W31684   6.070  11.978  12.564 -0.0812  0.1293  0.3121
15791W        W31685   1.755   2.516   0.832 -0.0926 -0.3917  0.0680
15792W        W31686   2.140   3.603   2.164 -0.1382  0.3426 -0.0602
15793W        W31687   1.031   0.552  14.672 -0.2248 -0.0577  0.0724
15794W        W31688  17.187   7.486   3.901  0.4123 -0.1548  0.0808
15795W        W31689  11.739   2.312   4.253  0.0050 -0.2335 -0.3119
15796W        W31690  11.052  16.701   4.347 -0.1545  0.1107 -0.1660
15797W        W31691  19.103   2.892   3.270  0.0518 -0.2014 -0.3206
15798W        W31692  17.103   6.423   4.240  0.0703  0.0196 -0.2931
15799W        W31693   0.077  16.298  11.003  0.1485  0.0349  0.1182
15800W        W31694  14.725  17.825   2.525  0.2558  0.0930 -0.0281
15801W        W31695   0.935   2.344   1.240 -0.1356  0.0824 -0.2167
15802W        W31696  14.820  14.632   2.592 -0.3288 -0.0158 -0.1191
15803W        W31697   4.475   3.101   0.911 -0.4767  0.1458  0.0094
15804W        W31698   3.802   6.132   1.534 -0.2429 -0.1404  0.4226
15805W        W31699  15.755  16.158  13.811 -0.0059  0.2447  0.1683
15806W        W31700   3.430  11.900   0.661 -0.0776  0.3312 -0.1023
15807W        W31701  11.737   5.492   4.649 -0.1438  0.3008 -0.2151
15808W        W31702  18.665   5.584   0.661 -0.2490  0.3603 -0.1135
15809W        W31703  18.972   8.500  10.764  0.0072 -0.3008 -0.3501
15810W        W31704   7.876   9.484   0.960 -0.0275 -0.0929  0.1205
15811W        W31705  11.419   3.111   2.774  0.0513 -0.2980 -0.1659
15812W        W31706   2.052   0.315  14.634 -0.1837 -0.1161  0.3778
15813W        W31707  18.484  17.429   3.709  0.1678  0.1005  0.2221
15814W        W31708   7.264  11.374   0.102  0.0854  0.2407  0.3607
15815W        W31709   9.441  11.980  14.824  0.1288  0.0459 -0.0694
15816W        W31710   9.173   2.040  10.785  0.0104  0.1004 -0.0312
15817W        W31711   5.425   4.727   0.091  0.3905  0.1183  0.3415
15818W        W31712   9.942   3.798   3.982 -0.0055 -0.2422 -0.1796
15819W        W31713  10.207   6.452   3.477  0.1171  0.2092  0.1186
15820W        W31714   1.928  10.384   0.427 -0.1562  0.2610  0.3532
15821W        W31715   5.331   5.987  14.042  0.0183  0.3321  0.1687
15822W        W31716  17.137  17.492  12.451  0.1819  0.0056  0.3052
15823W        W31717   3.024   1.868   0.565 -0.2019  0.1358  0.2287
15824W        W31718   5.934  17.926   3.967  0.1340 -0.1711  0.1865
15825W        W31719   9.765   6.513   2.886 -0.5227 -0.1086 -0.3008
15826W        W31720   1.836  14.299   1.271  0.1171  0.1623  0.0139
15827W        W31721   7.268  16.908  14.049  0.0003  0.0297 -0.0891
15828W        W31722  15.432   8.642  14.253  0.1071  0.1890 -0.2469
15829W        W31723  17.388   6.185   6.230 -0.0016 -0.2317  0.1738
15830W        W31724  15.468  16.772   0.884  0.1389  0.0916  0.2367
15831W        W31725   7.821   1.494  11.763  0.5252 -0.0383 -0.2974
15832W        W31726   5.390  14.687  13.927  0.1190  0.0036  0.0286
15833W        W31727   4.530  11.831   0.300  0.3148 -0.0933 -0.2514
15834W        W31728  19.003  10.393  10.883 -0.0959  0.0685  0.0125
15835W        W31729  16.837   2.097   0.115 -0.1709  0.2380 -0.1652
15836W        W31730   1.159   1.098   1.770 -0.1783  0.1646 -0.1407
15837W        W31731   2.308   2.556  11.842 -0.1648  0.0258 -0.3767
15838W        W31732   9.158   7.325  10.275  0.1412  0.0957  0.0860
15839W        W31733   8.762   9.630  10.236 -0.0677  0.2916  0.2996
15840W        W31734  18.054  11.133   3.660 -0.2420  0.1190  0.1618
15841W        W31735  14.955   0.469   5.421  0.1876 -0.6227  0.2580
15842W        W31736   3.657  18.257  12.403  0.0509 -0.1532  0.2310
15843W        W31737  13.975  17.164  13.675  0.0938 -0.1827 -0.1595
15844W        W31738   0.374   2.953   4.094 -0.1285 -0.1864 -0.1141
15845W        W31739  12.254  16.789   1.339  0.1154 -0.2546  0.1060
15846W        W31740  18.787  15.538  12.886 -0.0052 -0.3361 -0.3355
15847W        W31741   4.274  13.557  13.894  0.2764 -0.3446  0.0554
15848W        W31742  12.454  11.690  13.405  0.0836 -0.2012 -0.0160
15849W        W31743   6.813  19.018   5.128  0.0389 -0.0009  0.0405
15850W        W31744   0.780  17.197  11.265 -0.0926  0.1572  0.0243
15851W        W31745   4.656  15.005   4.906  0.0012  0.1127  0.0528
15852W        W31746   3.086  16.319   2.084 -0.2808  0.2241  0.0506
15853W        W31747   1.627  10.099   1.827  0.2921 -0.1251  0.2998
15854W        W31748   4.139   9.823   0.377 -0.2469 -0.1287  0.1846
15855W        W31749   5.447   8.376  12.766 -0.0615  0.6976  0.1302
15856W        W31750  12.972  15.027   3.920 -0.2322  0.0367  0.0925
15857W        W31751  16.339  10.484   0.632  0.1412 -0.0197  0.0010
15858W        W31752  10.176  18.030   4.517 -0.0463  0.0703  0.1520
15859W        W31753  10.138   1.876  11.175  0.4245  0.1323  0.5424
15860W        W31754  14.408  15.910  12.651  0.0980 -0.0138  0.1317
15861W        W31755  16.997   5.187   3.970  0.1134  0.2187 -0.0010
15862W        W31756  14.275   1.881   3.046 -0.1091 -0.0265 -0.2246
15863W        W31757   7.407  18.981   2.118 -0.3481 -0.0718 -0.0365
15864W        W31758  11.584   0.018   3.011 -0.0038 -0.2011  0.2570
15865W        W31759   3.392   4.560   5.183  0.0086  0.0201  0.1545
15866W        W31760  16.032  15.560   9.967 -0.1696  0.1182 -0.3401
15867W        W31761   9.674   3.579  12.608  0.1835  0.1948  0.2465
15868W        W31762   7.990  15.397   0.827 -0.0823  0.1378  0.1899
15869W        W31763   8.616   6.332   2.136 -0.0742  0.0106  0.0934
15870W        W31764  17.481   7.107   3.326  0.0865  0.3321 -0.1281
15871W        W31765   0.803  18.751   4.267  0.0963  0.1028  0.2759
15872W        W31766  17.832  14.446  14.109 -0.1696  0.1094  0.0426
15873W        W31767  10.108   3.919   1.050  0.2967 -0.0930 -0.0002
15874W        W31768   0.820  13.662  11.624 -0.1418  0.1426 -0.3057
15875W        W31769  14.697  15.615  11.935  0.2283  0.0468  0.1573
15876W        W31770  13.507   0.314  13.385  0.2448 -0.0936 -0.0376
15877W        W31771  12.062  12.935  11.419 -0.2842 -0.1305 -0.0181
15878W        W31772  14.456  11.686  12.985 -0.0242 -0.2996 -0.7144
15879W        W31773  15.121   1.562   0.906  0.2411 -0.1738  0.0468
15880W        W31774  16.648   5.036   4.344 -0.0154  0.0838  0.0307
15881W        W31775   0.912  15.274  14.888 -0.4455 -0.1753  0.0604
15882W        W31776  11.217  13.823   9.473 -0.0367 -0.0164 -0.2228
15883W        W31777  15.620  14.779  11.881  0.0663  0.1263  0.2888
15884W        W31778   8.936   9.227  14.014 -0.2881  0.0054  0.1082
15885W        W31779  13.138  14.833   3.408  0.0479 -0.0748 -0.0276
15886W        W31780  15.808   0.611   3.703 -0.2181  0.3992 -0.2206
15887W        W31781  10.717  16.103   0.241  0.2333 -0.1419  0.0921
15888W        W31782  13.360   6.943   4.071  0.2847  0.0026 -0.1745
15889W        W31783  12.887   9.473   3.995  0.0384  0.1053 -0.0506
15890W        W31784   0.308  11.136  12.636  0.2424  0.1172 -0.2354
15891W        W31785   1.101   5.457   0.379  0.0073  0.2825 -0.1112
15892W        W31786   2.901  17.245   2.058  0.2644  0.0234  0.2322
15893W        W31787  11.578   8.352   9.504  0.0614 -0.2657  0.0957
15894W        W31788   4.809  17.112   2.443  0.0035 -0.2095 -0.0789
15895W        W31789  12.109  17.376  14.319 -0.1553  0.0822 -0.0788
15896W        W31790   9.215   6.986   4.328  0.0727 -0.2517 -0.0539
15897W        W31791  16.771   9.806   1.977 -0.0752  0.1376 -0.0280
15898W        W31792   8.722   9.593  14.277  0.2984  0.1136  0.2078
15899W        W31793   2.674  11.894  11.117  0.1934 -0.1417 -0.3172
15900W        W31794   7.031  12.651   3.817  0.0473  0.0703 -0.2075
15901W        W31795  11.550   6.485  13.704  0.0261  0.2941  0.0322
15902W        W31796  12.795  10.958   9.891  0.0508 -0.0012  0.2500
15903W        W31797  10.092   0.375   0.270  0.1172  0.1565  0.1011
15904W        W31798   3.339  12.813  11.363  0.1256 -0.1603 -0.0952
15905W        W31799  15.848  15.603   0.784 -0.1305  0.2544 -0.2903
15906W        W31800   0.239   9.338  14.434 -0.4812 -0.2775 -0.0665
15907W        W31801  10.366  18.596   4.808  0.0334  0.1022  0.1431
15908W        W31802  11.855  14.953  13.826  0.1047 -0.0646  0.0760
15909W        W31803  17.672  14.841   4.391 -0.3464 -0.0283  0.1462
15910W        W31804   3.871   3.804   0.297  0.0192 -0.3675 -0.1250
15911W        W31805   7.577   8.990  10.226 -0.1947 -0.0387  0.2001
15912W        W31806   4.740   7.875   3.852 -0.0783 -0.0037 -0.1628
15913W        W31807  16.459   0.110   2.921  0.1335 -0.1309  0.2777
15914W        W31808   7.437   3.031  10.784  0.3005  0.0973 -0.1079
15915W        W31809   5.492   8.398  14.522 -0.1222 -0.5965  0.1355
15916W        W31810   2.086   5.130  11.636 -0.0980  0.1050  0.0430
15917W        W31811  10.182   6.455   1.214 -0.0164  0.0237 -0.0057
15918W        W31812  12.897  19.070   9.607  0.1271  0.0348  0.1986
15919W        W31813   2.871  13.228   9.951 -0.2735 -0.3700  0.5845
15920W        W31814   7.859   1.935   3.395 -0.3687  0.1155  0.0972
15921W        W31815   3.715  13.464   2.428  0.0084  0.0471 -0.0261
15922W        W31816   1.454   9.752   1.490 -0.0186 -0.0220 -0.2685
15923W        W31817  15.104  16.889  10.149 -0.4558 -0.1012 -0.3742
15924W        W31818   7.018  13.306   4.935 -0.1374 -0.2542  0.0515
15925W        W31819   5.859   6.404  14.937  0.0107  0.3658 -0.0477
15926W        W31820  17.394  16.984  11.092  0.0906 -0.1087 -0.0629
15927W        W31821   6.765  18.054   4.580 -0.0002  0.0789  0.3348
15928W        W31822  19.100  13.532   3.580 -0.0585 -0.1937  0.0234
15929W        W31823   6.794  18.291   0.662 -0.3313  0.2064 -0.1797
15930W        W31824  15.351   5.361   2.862  0.1508  0.1171  0.0846
15931W        W31825  19.203  15.236  11.716  0.0168 -0.0975 -0.0230
15932W        W31826  16.961   2.867   4.722 -0.1280  0.1063  0.1920
15933W        W31827  16.895   4.371   4.152 -0.2446 -0.2748  0.0006
15934W        W31828   1.588   7.225   0.342 -0.1595 -0.3116 -0.4078
15935W        W31829   2.870  12.383  12.038 -0.1691 -0.1025  0.3484
15936W        W31830   5.357   4.832  11.183  0.0015 -0.1226 -0.2037
15937W        W31831   3.450  13.724   3.777  0.1470  0.2525  0.0162
15938W        W31832   2.691   4.007   3.510 -0.2154  0.1918  0.1510
15939W        W31833   8.088  11.207   3.961 -0.1005 -0.1046 -0.2212
15940W        W31834  16.884   3.482  13.116 -0.1819 -0.0233  0.0141
15941W        W31835   1.535   1.522  13.067 -0.2385  0.1875 -0.0398
15942W        W31836  14.916   9.325  12.826  0.1858  0.0652 -0.2136
15943W        W31837  18.734   3.813  12.453  0.0744  0.1245 -0.2625
15944W        W31838   2.669  18.700  13.741  0.0397 -0.1524  0.1734
15945W        W31839  10.492  17.318   0.784 -0.1564  0.0400  0.3667
15946W        W31840   8.433  10.338   4.261  0.4181 -0.0658 -0.0174
15947W        W31841   5.773  14.218  10.137  0.2710  0.2268  0.2553
15948W        W31842  15.057   3.898   0.414 -0.0871 -0.0373 -0.1735
15949W        W31843  19.174   4.183   2.084 -0.0297  0.2393  0.0635
15950W        W31844  13.287   0.903  11.684  0.0219  0.0785 -0.0777
15951W        W31845   2.412   6.507  13.071 -0.2676  0.1331  0.1892
15952W        W31846   8.704   5.915   5.189  0.1637 -0.2820  0.2034
15953W        W31847  10.480  16.447   4.875 -0.1884  0.0228  0.0216
15954W        W31848   4.504  13.768   0.001 -0.2385  0.1398  0.3634
15955W        W31849   7.587  16.701   4.385 -0.0046 -0.2217  0.2138
15956W        W31850   0.460  16.768  14.449  0.1452 -0.0359  0.1647
15957W        W31851   9.138  13.680   1.409  0.1154 -0.1230 -0.2136
15958W        W31852   2.680  13.330   4.358 -0.0809 -0.1800  0.0451
15959W        W31853  14.328  18.050  13.378  0.0110 -0.1606  0.0301
15960W        W31854   3.093   7.193  11.298  0.1842 -0.0391  0.2293
15961W        W31855  11.687   7.984   0.173 -0.0292 -0.1235 -0.0930
15962W        W31856  16.561  10.639   1.076 -0.5308  0.2696 -0.0873
15963W        W31857   0.894  12.736  11.711  0.1251 -0.0030  0.2189
15964W        W31858  15.385  14.097  11.399  0.2808  0.2961  0.0896
15965W        W31859   5.467  17.593  11.041 -0.1196 -0.1270 -0.3086
15966W        W31860  10.312   0.635   5.549  0.1882 -0.1995 -0.2176
15967W        W31861  11.333  15.079   4.721 -0.1049  0.0969  0.0146
15968W        W31862   2.812   8.074   4.670  0.0983  0.1819 -0.3491
15969W        W31863  10.540   0.721  14.017  0.1864 -0.3783 -0.1643
15970W        W31864  15.513   4.277  14.682  0.2289  0.0327 -0.4559
15971W        W31865   9.696   7.729  12.876  0.2134 -0.1182  0.0869
15972W        W31866  10.024  10.679  11.235  0.1732  0.2819 -0.0925
15973W        W31867   3.791   7.524  14.426  0.1942 -0.2368  0.1675
15974W        W31868   3.721   6.658  13.365  0.0626 -0.1769 -0.4492
15975W        W31869  11.893   4.112  14.310 -0.1695  0.0697  0.0936
15976W        W31870   9.993   7.478   9.837 -0.0283  0.0854 -0.1796
15977W        W31871   5.727  16.789  10.840 -0.1250  0.1384  0.3281
15978W        W31872  16.049  15.313  14.698 -0.0042 -0.0561  0.0337
15979W        W31873   1.361   3.005   0.119  0.1241  0.1353  0.1465
15980W        W31874   2.997  15.573   3.575 -0.1480 -0.1413 -0.3080
15981W        W31875   3.721   4.557  14.406 -0.3372  0.0814  0.0264
15982W        W31876   9.521   3.859  14.802 -0.0208  0.0941 -0.0509
15983W        W31877   9.192  15.119  11.067  0.1650  0.0383 -0.0364
15984W        W31878   2.070   8.187  14.039  0.0459  0.0868  0.2579
15985W        W31879   9.667   1.122   0.516  0.0141 -0.1401  0.0175
15986W        W31880  12.651   6.479   1.232  0.0386  0.0612 -0.1532
15987W        W31881  15.429  17.194   4.834 -0.0213 -0.0710 -0.1844
15988W        W31882   8.635  15.493  11.888 -0.1438 -0.3093 -0.0676
15989W        W31883   8.475  16.671   9.536 -0.0834 -0.0441  0.1432
15990W        W31884   3.057  16.839  14.517 -0.0093  0.0189 -0.2714
15991W        W31885  15.337   7.420   2.958 -0.2334 -0.0704  0.3119
15992W        W31886  10.598   7.982   2.723 -0.3548  0.1979  0.0114
15993W        W31887  14.231   6.292   1.114  0.1132 -0.2293  0.2956
15994W        W31888  16.959   1.475  13.088 -0.3559 -0.0052  0.0295
15995W        W31889  14.277   9.615  10.615 -0.2079 -0.0510  0.0367
15996W        W31890   4.698   9.814  14.870 -0.0798 -0.2238  0.2544
15997W        W31891  11.094   8.050   2.946 -0.0865  0.0686 -0.1137
15998W        W31892  15.550   0.575  14.166 -0.1478 -0.1443 -0.1060
15999W        W31893   5.343   7.263   4.898  0.1323  0.0227  0.0007
16000W        W31894  13.171  13.874  10.701  0.2000 -0.1248  0.1431
16001W        W31895  15.930   5.745   1.749 -0.1922  0.0597 -0.2677
16002W        W31896  18.254   8.715  14.332  0.4337  0.2053  0.0290
16003W        W31897   0.882  13.450  11.207  0.0067  0.1089  0.0480
16004W        W31898  10.047  17.438  12.300 -0.1683  0.1291  0.2464
16005W        W31899  12.248   8.119   3.943  0.1251  0.0138 -0.3459
16006W        W31900  13.051   3.645  11.922 -0.3022  0.0951 -0.0967
16007W        W31901  18.381   4.572   4.697 -0.2060  0.1170  0.0398
16008W        W31902   4.502  17.667   4.631 -0.3405 -0.0860 -0.2042
16009W        W31903  10.098  14.391   3.729 -0.0790  0.2403 -0.0510
16010W        W31904  14.979   2.804  12.630 -0.1837 -0.1285  0.1760
16011W        W31905  15.927  14.462   0.435  0.2427 -0.2564 -0.0644
16012W        W31906   4.537  12.306   4.137 -0.2642  0.4340  0.1076
16013W        W31907   8.242   5.657   2.855  0.0275 -0.0938  0.1927
16014W        W31908   4.070   9.931  13.567  0.2128  0.1108  0.2060
16015W        W31909  13.812   6.213   0.814 -0.2125 -0.3802 -0.1127
16016W        W31910  11.340   5.420  11.261  0.1468  0.0903  0.0875
16017W        W31911  14.245   7.492  13.428  0.0038  0.0581  0.1775
16018W        W31912   5.291  17.667   3.019 -0.0215  0.0474  0.1434
16019W        W31913   8.882   9.540   4.893  0.1474  0.0551  0.3102
16020W        W31914   3.717  11.758   9.767 -0.3609 -0.0357 -0.1301
16021W        W31915  14.057   9.572  14.375  0.2119  0.3227 -0.4211
16022W        W31916   0.956   4.159   4.482 -0.0563  0.2003  0.1277
16023W        W31917  11.361   9.491   3.205 -0.3469 -0.0013  0.0723
16024W        W31918  14.542   4.434   3.539  0.2110 -0.2324 -0.0912
16025W        W31919   9.809  14.623   1.284 -0.5384 -0.0695  0.0324
16026W        W31920   5.400   4.315  11.390  0.2283  0.1815  0.1182
16027W        W31921   4.044  10.512   2.160 -0.1232 -0.1607 -0.1672
16028W        W31922   2.502   4.035   1.303  0.1401 -0.2122  0.4648
16029W        W31923  10.922  11.677  12.564 -0.1006  0.0463  0.2015
16030W        W31924  16.141  16.796  11.693 -0.2492  0.2921 -0.0795
16031W        W31925   8.995  15.731   4.587 -0.1288  0.2984 -0.1198
16032W        W31926  10.358   3.950   1.807  0.0258  0.1692  0.2623
16033W        W31927  16.757  13.165   1.199 -0.2077 -0.3138  0.0143
16034W        W31928   3.737  11.766  11.821 -0.0997  0.2709  0.2814
16035W        W31929  12.624   0.304   0.570 -0.4291  0.5285  0.0871
16036W        W31930   7.964  18.490   3.001  0.1218 -0.0299 -0.1082
16037W        W31931  12.577  15.638   2.233 -0.2301 -0.0539 -0.1120
16038W        W31932  16.684  18.422  14.912 -0.0902  0.1383  0.1560
16039W        W31933  18.510  13.879  11.375  0.2958 -0.1630 -0.1957
16040W        W31934   2.192  12.478   4.375  0.0328 -0.2163 -0.0301
16041W        W31935   7.166  15.298  10.311 -0.0574 -0.1249  0.0257
16042W        W31936   0.203   2.129   4.557 -0.1235  0.0293 -0.0009
16043W        W31937  15.003  16.578  14.064 -0.1603  0.2499  0.2284
16044W        W31938  17.088  16.438  13.763 -0.2978  0.0698 -0.0762
16045W        W31939   9.554   1.292   2.245  0.1351 -0.0374 -0.0991
16046W        W31940  18.395  11.142  13.896 -0.1868 -0.0503  0.0207
16047W        W31941  11.285  10.413  14.792  0.0669 -0.2650  0.0332
16048W        W31942   2.676  10.991  11.046 -0.3012  0.0937 -0.0516
16049W        W31943   5.755  12.160   1.463  0.1157 -0.0749 -0.2115
16050W        W31944  17.687   1.821  11.867 -0.2161  0.0094  0.0152
16051W        W31945   6.703  17.474  10.044 -0.0038 -0.2877 -0.4057
16052W        W31946   9.821   1.349  11.028  0.2750 -0.2668 -0.0803
16053W        W31947  17.802  12.179   3.841  0.1359 -0.0008 -0.1833
16054W        W31948  15.591   8.892   9.655  0.4013  0.2371  0.0887
16055W        W31949  13.619   8.270  12.327 -0.2479  0.1133 -0.2951
16056W        W31950   5.442   7.309   5.650  0.1405 -0.2325 -0.2389
16057W        W31951   0.307   0.646   5.338 -0.0459  0.1696 -0.2547
16058W        W31952   5.237  12.065   1.529 -0.2394  0.0502 -0.1111
16059W        W31953   0.376  17.625   3.031 -0.0207  0.1388  0.0573
16060W        W31954  13.249   8.424  15.068 -0.1509 -0.2002 -0.0622
16061W        W31955  14.102  16.865  12.897 -0.0966 -0.1095  0.0205
16062W        W31956  13.062  13.042   0.118  0.0153 -0.2631  0.0517
16063W        W31957  15.840   5.851  14.652 -0.2813  0.0265  0.1178
16064W        W31958   0.264   1.372  12.718  0.0202  0.0554  0.2857
16065W        W31959   4.864  17.257  12.848  0.1892 -0.0564  0.1332
16066W        W31960   0.160   4.159   0.260 -0.0337  0.0802 -0.0972
16067W        W31961   3.729   2.606  14.021  0.0882 -0.3451 -0.2682
16068W        W31962   2.537  11.056   2.880  0.2624 -0.3066  0.1741
16069W        W31963  15.502  10.146  11.874 -0.0460 -0.0964  0.0969
16070W        W31964   2.342   5.100   3.583  0.3311  0.3652 -0.3281
16071W        W31965   5.418   4.683   5.364  0.0317  0.1194  0.0517
16072W        W31966  13.454   9.562   0.205 -0.0382 -0.2611  0.2576
16073W        W31967  17.921  13.003   1.988 -0.1090  0.2941 -0.0030
16074W        W31968  18.684   5.014   5.516  0.1900 -0.1509  0.1592
16075W        W31969   0.259   1.766  11.855 -0.3680  0.1734  0.1891
16076W        W31970   2.411  12.162   3.962  0.0468 -0.0727  0.0754
16077W        W31971   7.979   3.761  13.547  0.4364  0.1307  0.0633
16078W        W31972   9.675  18.243  11.892  0.0267 -0.2736  0.0061
16079W        W31973   2.686   5.288  14.602  0.0964 -0.0457 -0.2940
16080W        W31974   1.905   4.722  14.640 -0.0921 -0.2882  0.2465
16081W        W31975  12.603  13.968   2.937 -0.0913  0.0525 -0.1764
16082W        W31976   5.988   7.745   4.124  0.1706 -0.0033 -0.3430
16083W        W31977   7.910   6.533   1.058 -0.2840  0.0151 -0.2232
16084W        W31978   4.880  16.209   1.613  0.0586  0.0521 -0.2281
16085W        W31979  16.442  13.341   0.453  0.2021 -0.1186 -0.1891
16086W        W31980  12.168  10.190  11.937  0.2196 -0.0054  0.2463
16087W        W31981   0.268   0.511   1.106 -0.1844 -0.4123 -0.0066
16088W        W31982  16.856   2.229  13.791 -0.2585 -0.0518  0.3295
16089W        W31983  16.710   3.525   2.978 -0.2696 -0.2132 -0.0422
16090W        W31984  15.280   0.101  14.978  0.4373  0.2668 -0.1809
16091W        W31985  11.261   3.164  13.175 -0.1355 -0.2026  0.3218
16092W        W31986   0.781  15.167   0.720  0.2543 -0.2938 -0.0827
16093W        W31987   0.957  13.079  10.796  0.1190  0.3653 -0.4156
16094W        W31988  15.661  13.835  12.453 -0.0012  0.1443  0.1794
16095W        W31989  17.097  12.368   0.870 -0.0930  0.0678 -0.2865
16096W        W31990  11.398  10.402  12.088 -0.1925 -0.1394  0.0906
16097W        W31991  13.440  11.704   2.781 -0.0250  0.1039 -0.0226
16098W        W31992   9.475   3.003   1.530  0.1682 -0.2079 -0.1304
16099W        W31993  14.582  16.554   3.244  0.0688 -0.0096 -0.0332
16100W        W31994   9.389  12.298   2.394 -0.2475  0.2247  0.3327
16101W        W31995  18.465  16.054   1.265 -0.1101  0.2800  0.1552
16102W        W31996  17.884  14.272   1.071  0.0557  0.2357  0.2774
16103W        W31997   5.333   5.164   0.778  0.2101 -0.4325 -0.1544
16104W        W31998  17.124   1.371  14.880 -0.1156 -0.2767  0.2306
16105W        W31999   1.082  12.690  10.992  0.0182 -0.0969 -0.1623
16106W        W32000  18.161  15.100  11.801 -0.0368  0.2428  0.1117
16107W        W32001  11.675  13.413   4.320 -0.2983 -0.1142 -0.1435
16108W        W32002   1.332  10.814   9.956  0.0065  0.2666 -0.0291
16109W        W32003  10.563   0.654  14.531  0.1718  0.2691 -0.0901
16110W        W32004   9.763   5.012   5.379  0.1481 -0.1036 -0.3798
16111W        W32005   2.639  14.594   0.948  0.1437 -0.1208  0.2907
16112W        W32006  14.305  10.888   0.796 -0.3484 -0.1431 -0.0531
16113W        W32007   3.773  14.988   4.034 -0.0083  0.0953  0.0333
16114W        W32008   6.749   5.323   4.397  0.1996  0.2424 -0.3234
16115W        W32009   5.326   7.218  13.502  0.4127  0.1098 -0.0878
16116W        W32010  15.716  12.999   0.234 -0.0313  0.1200 -0.1096
16117W        W32011  11.315  13.682  11.340 -0.2214 -0.1503 -0.0886
16118W        W32012   9.282  10.173  11.743 -0.1960 -0.0693  0.0264
16119W        W32013   6.323  15.769  13.892  0.3669 -0.0117  0.0148
16120W        W32014   7.303   4.800   2.618 -0.0667 -0.0269  0.0541
16121W        W32015  16.983  17.376  11.066  0.0599 -0.1104 -0.3464
16122W        W32016  19.136   2.582  13.899 -0.1941  0.0443 -0.0572
16123W        W32017  11.641  10.841   4.650  0.0269  0.0467  0.1140
16124W        W32018  13.638   3.038   5.882  0.0884 -0.3376  0.3692
16125W        W32019   0.488   9.469   4.377 -0.1155 -0.0910 -0.0209
16126W        W32020  13.183  17.949   3.961  0.0710 -0.3091 -0.0753
16127W        W32021  10.229   4.987   5.066 -0.2282 -0.1149  0.1574
16128W        W32022   6.063   9.462   1.853 -0.0794  0.0858  0.0132
16129W        W32023   3.123  16.571   1.173  0.3008 -0.1001  0.3130
16130W        W32024  17.218  14.009  13.266 -0.0184  0.0005  0.0690
16131W        W32025   0.402  12.577   0.191 -0.2642 -0.0313  0.1422
16132W        W32026  12.155   4.553   4.710 -0.1430  0.2508 -0.2398
16133W        W32027   4.261   7.090   2.066  0.1082 -0.0609  0.3090
16134W        W32028   6.264  15.272   3.046  0.4492  0.0806 -0.4392
16135W        W32029   3.535   9.003   3.601  0.1174 -0.0023  0.0398
16136W        W32030   5.425  14.926   0.362  0.2362 -0.1161  0.0329
16137W        W32031   6.971  14.490   5.396  0.1162 -0.1469 -0.0547
16138W        W32032   7.558  11.218   2.971 -0.1089 -0.0163  0.1468
16139W        W32033  16.653  17.080  14.509 -0.2124 -0.3689 -0.3910
16140W        W32034   7.293   5.213   1.580  0.0393 -0.0690  0.1909
16141W        W32035  14.174  14.854  10.255 -0.0894 -0.4727  0.1106
16142W        W32036   8.771   3.594   1.189  0.0770  0.2177 -0.1976
16143W        W32037  11.482   6.158   4.692 -0.2361 -0.0867 -0.1720
16144W        W32038   2.463   0.153   4.557 -0.0292  0.3149 -0.0725
16145W        W32039   6.132  11.745  10.415  0.0305  0.0373  0.0091
16146W        W32040  11.587  17.274  12.024 -0.1774  0.0849  0.0759
16147W        W32041   1.400   2.639   5.215  0.2013  0.2808  0.0257
16148W        W32042   9.656   2.948  12.327  0.3449 -0.0122 -0.2005
16149W        W32043  10.676   8.918   2.762 -0.1121 -0.3575  0.3247
16150W        W32044  18.865   4.558   5.541 -0.2453  0.0569 -0.1312
16151W        W32045  10.246   4.910  10.875 -0.0123 -0.0550  0.0499
16152W        W32046  15.093  15.467   2.829  0.1679  0.2716  0.0533
16153W        W32047   7.438   9.822  14.874  0.2619 -0.1388 -0.0694
16154W        W32048  16.799  12.569   1.216  0.1296  0.1192 -0.1057
16155W        W32049   6.075   9.875  10.502 -0.0137 -0.1142  0.0966
16156W        W32050  12.169  13.321  13.265  0.1798  0.2543 -0.1095
16157W        W32051   2.563   3.497   1.124  0.1142  0.1836  0.0433
16158W        W32052  11.354  16.596  10.452  0.2081 -0.0541 -0.2470
16159W        W32053  10.476  16.618   1.114 -0.0697  0.2038  0.0678
16160W        W32054   5.168  14.273   4.842 -0.0415  0.3947 -0.6716
16161W        W32055  13.313   3.849  14.846 -0.0425  0.1787 -0.2242
16162W        W32056  16.885  18.649  12.116  0.2471 -0.2321  0.0793
16163W        W32057  13.585   0.127   2.203  0.2856 -0.0601 -0.1146
16164W        W32058  11.673  10.769   4.113 -0.2020  0.2591  0.2377
16165W        W32059   3.845  18.456  12.867  0.1459  0.1005 -0.2297
16166W        W32060  18.369  10.203   3.884  0.0839 -0.2219 -0.1885
16167W        W32061   2.903  13.855  10.443  0.0025  0.2792  0.3197
16168W        W32062   1.518   9.613  11.586  0.1272 -0.5856 -0.0369
16169W        W32063  13.273  13.381  11.499 -0.2106 -0.0868 -0.0727
16170W        W32064   1.381  15.717   1.890 -0.4036  0.2094 -0.3768
16171W        W32065  15.946   8.200   5.895 -0.1957  0.4258 -0.2823
16172W        W32066  16.951   7.841  14.652 -0.4612 -0.1698  0.0337
16173W        W32067  14.550  10.320  12.308  0.0156  0.0383  0.1181
16174W        W32068  13.339   6.821  12.719  0.0567 -0.1407  0.3242
16175W        W32069  11.721  16.242  12.481  0.0909 -0.0918 -0.0863
16176W        W32070   4.602   5.003  10.872 -0.0384  0.3029 -0.1940
16177W        W32071   1.298   5.210  11.625 -0.1422  0.2251 -0.2292
16178W        W32072   1.689  17.277  14.458  0.0205  0.0863 -0.3053
16179W        W32073  18.377  15.598  10.314 -0.0046  0.2039  0.1727
16180W        W32074  17.394   7.791   4.819 -0.2360 -0.1293 -0.2743
16181W        W32075  11.009  17.995  10.958  0.1777 -0.0165 -0.2403
16182W        W32076   7.445   5.261   3.208 -0.1179 -0.0171  0.0422
16183W        W32077   2.026   0.629  14.256  0.1767  0.0883 -0.2930
16184W        W32078   2.127  13.652   3.008  0.0057  0.2374  0.0060
16185W        W32079   3.015  13.700   0.529 -0.2464 -0.4912  0.4251
16186W        W32080   7.581   5.849  12.899 -0.3037  0.0244 -0.1881
16187W        W32081  18.998  10.527  13.218  0.2630  0.0992  0.3986
16188W        W32082  14.373   0.196   0.570 -0.0968  0.0879 -0.2163
16189W        W32083  12.699  15.185  12.666  0.1555 -0.1726  0.0139
16190W        W32084  11.860   4.533   1.163  0.1039 -0.1923 -0.1459
16191W        W32085  13.978  15.381   1.404  0.1180  0.1498 -0.1630
16192W        W32086  16.716   5.766   0.018  0.1132 -0.1265  0.3162
16193W        W32087  11.788  17.145   2.094  0.1274 -0.0185  0.0381
16194W        W32088   6.432   7.395   3.622 -0.4072  0.5012  0.5375
16195W        W32089   5.760  17.461   5.477 -0.0467 -0.0474 -0.1699
16196W        W32090   9.887   3.319   0.309 -0.1163 -0.2963  0.2418
16197W        W32091   9.809   7.324  12.152  0.1675 -0.0594 -0.1895
16198W        W32092  11.584   8.585   0.065 -0.1400  0.1881 -0.0884
16199W        W32093  17.252  15.834  11.983  0.0477 -0.0314  0.0278
16200W        W32094   6.719   5.648   2.930  0.0916 -0.2727 -0.1953
16201W        W32095  18.133  19.084  13.864 -0.3022  0.0746  0.2331
16202W        W32096  18.059  12.733   0.111  0.0976  0.0078  0.2858
16203W        W32097  12.622   2.747   3.092  0.0986 -0.0313 -0.2632
16204W        W32098   3.488   9.719   3.536  0.0789  0.1133 -0.1941
16205W        W32099  18.518  14.185   3.650 -0.0880  0.1444 -0.2459
16206W        W32100  14.928  12.280   2.613 -0.2483  0.0505  0.0271
16207W        W32101  10.925  13.160  10.418 -0.0152  0.0922 -0.0092
16208W        W32102  19.026  13.205  12.235 -0.2067 -0.0007 -0.1210
16209W        W32103   8.875  11.156  14.274  0.0499  0.0721 -0.0501
16210W        W32104  15.879   7.055  11.608  0.0620 -0.2102  0.1500
16211W        W32105  18.179   0.629   2.645 -0.0021 -0.0209 -0.3841
16212W        W32106   0.445   1.828  10.883 -0.2755 -0.0021 -0.2252
16213W        W32107   2.786  14.522  13.464 -0.1878  0.3273  0.0535
16214W        W32108   6.800  15.281  10.640 -0.0032 -0.0015  0.0612
16215W        W32109  19.026  15.833  14.237  0.2263 -0.0630  0.0242
16216W        W32110  10.134   1.856   4.057  0.0938 -0.1586 -0.0788
16217W        W32111   1.002   5.116   4.474 -0.0257 -0.0825  0.1113
16218W        W32112  14.372   0.867   4.801  0.1617  0.1402  0.1091
16219W        W32113  15.542   2.913   4.639 -0.0064  0.1772  0.1366
16220W        W32114   4.581   9.481   0.767  0.1617  0.0146 -0.1953
16221W        W32115   6.542   7.075  11.637 -0.0823 -0.1166  0.0680
16222W        W32116   7.911   5.776   2.569  0.4068  0.1294  0.0873
16223W        W32117   0.251  12.647  12.340 -0.4440 -0.0315  0.1161
16224W        W32118   5.217  13.132  10.472  0.1827  0.3262  0.3068
16225W        W32119   0.061   4.458  11.373 -0.0511 -0.1173  0.1965
16226W        W32120  14.143  10.483  13.681  0.0233  0.0502 -0.2220
16227W        W32121   6.656  14.441   2.368  0.0067 -0.1521 -0.1224
16228W        W32122   0.335  15.578  11.867  0.0286 -0.1938 -0.1775
16229W        W32123   6.370  12.599  10.822 -0.0058  0.0819  0.1375
16230W        W32124   8.623  12.499   0.739 -0.0151  0.1918 -0.4570
16231W        W32125   0.561   0.954  14.513 -0.4836 -0.0494  0.1741
16232W        W32126   1.393   6.429   6.535  0.0884  0.1539  0.1394
16233W        W32127   4.564  13.985  11.798  0.3131 -0.0634 -0.2830
16234W        W32128   7.965   5.460  14.909  0.0876  0.1995 -0.2654
16235W        W32129  19.075   9.486   0.025 -0.2337 -0.0672 -0.3794
16236W        W32130  11.653   5.540   0.842 -0.3972  0.4038  0.0692
16237W        W32131   3.687   2.340   3.105  0.1934 -0.2305 -0.1981
16238W        W32132   3.998   2.617   6.047 -0.3188 -0.2929  0.0117
16239W        W32133  14.786   8.215   2.125 -0.1495  0.2369 -0.1469
16240W        W32134   8.782  11.338  13.750 -0.1634 -0.0378 -0.0693
16241W        W32135   3.573  13.835   1.290  0.0959 -0.3151 -0.4443
16242W        W32136   4.673   9.360   4.672 -0.0280  0.1148  0.0234
16243W        W32137   6.490   2.075   4.375 -0.2426 -0.0022  0.0358
16244W        W32138  16.336   2.577  13.895  0.1059  0.0817 -0.1882
16245W        W32139  18.933  11.795   2.799 -0.0252 -0.0285 -0.1397
16246W        W32140  18.965  18.939  10.896 -0.2271 -0.0495  0.2253
16247W        W32141  13.520   0.655   5.877 -0.0794 -0.1043 -0.1355
16248W        W32142  13.427   8.208   1.673 -0.1136  0.1103 -0.0509
16249W        W32143  10.332   7.861  15.027  0.0873  0.1310 -0.2547
16250W        W32144  12.534  14.151  13.716 -0.0745  0.0323 -0.0854
16251W        W32145   0.580   5.211   3.801 -0.2874  0.1713 -0.1102
16252W        W32146   1.786   2.488   1.540 -0.1404 -0.0062 -0.1196
16253W        W32147  13.191  17.907   1.882  0.0716 -0.0206  0.0463
16254W        W32148   5.035   6.359  13.890  0.1552  0.0268 -0.1739
16255W        W32149  13.224   0.254  12.802 -0.1019  0.3158 -0.0273
16256W        W32150   6.985  12.934  11.876 -0.1414  0.1527 -0.2495
16257W        W32151  15.713   7.451  12.810  0.2228  0.1442  0.2112
16258W        W32152   4.708  16.016  11.567  0.0762  0.1594  0.2280
16259W        W32153   9.461  15.671   0.370 -0.2487  0.0885  0.1277
16260W        W32154  17.278  13.894  14.331  0.0169  0.1888 -0.2200
16261W        W32155  17.780   6.209   3.169  0.0629  0.3255 -0.1225
16262W        W32156   6.224  18.009  10.509  0.0405 -0.1666  0.1792
16263W        W32157   5.169   9.763   2.673  0.0977 -0.0852 -0.0859
16264W        W32158   6.424   3.040   0.263 -0.1192  0.3312  0.0377
16265W        W32159  18.664   1.739   5.088  0.0892 -0.1640  0.0392
16266W        W32160  16.286   8.498  12.977  0.0295 -0.1057  0.1469
16267W        W32161  11.274  15.549  14.952  0.2108  0.4809  0.1573
16268W        W32162  14.372   6.976  11.065  0.2384 -0.0433  0.0027
16269W        W32163   0.086  16.082  12.213  0.1290 -0.0344 -0.0823
16270W        W32164  14.043  14.335  14.564 -0.0056  0.3726 -0.0413
16271W        W32165  16.259  13.084   4.474 -0.2549 -0.2238 -0.1404
16272W        W32166  13.280   7.116   1.439 -0.1438  0.1233 -0.1375
16273W        W32167  16.805   1.919   9.690 -0.4097 -0.1685  0.3041
16274W        W32168  14.924  16.751   1.211 -0.2260  0.3397 -0.0352
16275W        W32169   7.669  13.251   2.766 -0.0500 -0.0627  0.1098
16276W        W32170   2.806  11.466   3.626  0.1529  0.2643 -0.3277
16277W        W32171   0.387  10.319   3.272 -0.1219  0.1558  0.0419
16278W        W32172  12.405  15.421   1.794 -0.2167 -0.1904 -0.5885
16279W        W32173  13.133  12.279  13.768  0.1040 -0.1822  0.0293
16280W        W32174  12.184   9.085   2.216 -0.0863  0.1961  0.0560
16281W        W32175  16.391   8.213  11.157 -0.0681  0.0814  0.4035
16282W        W32176  12.274   8.832   1.241  0.1284 -0.0794  0.3049
16283W        W32177   3.671  16.686   2.970  0.2317  0.0500 -0.2406
16284W        W32178   7.540   8.783   1.220 -0.0074 -0.0898 -0.1205
16285W        W32179  15.483  16.779  11.520 -0.2420 -0.0912 -0.0791
16286W        W32180   7.795   9.504   3.367 -0.0657  0.2688 -0.2086
16287W        W32181   0.857   4.320   1.929  0.0546  0.3095 -0.1280
16288W        W32182  18.867  18.952   2.087 -0.4191  0.0100  0.0296
16289W        W32183  10.542  16.933   2.030  0.0575 -0.0079  0.2764
16290W        W32184   6.079   6.362   1.340  0.0279  0.0838  0.1778
16291W        W32185  17.853  15.314   4.425 -0.2238  0.0846  0.3172
16292W        W32186   6.307  12.326  13.345 -0.2518 -0.0652 -0.1691
16293W        W32187  14.281  14.498   1.272  0.1575 -0.3262  0.0368
16294W        W32188  16.166   5.625  11.313  0.0184 -0.1793  0.0701
16295W        W32189   4.354   6.285   1.044  0.2612  0.1720 -0.2954
16296W        W32190   3.855  15.185  11.679  0.0522  0.0521 -0.2855
16297W        W32191   5.871   1.119   2.329  0.2835 -0.1564  0.2588
16298W        W32192   3.772   1.824  12.771 -0.0075  0.0364  0.0231
16299W        W32193  10.863   1.881  12.331  0.2416 -0.2681  0.2101
16300W        W32194  13.628  13.489  10.689 -0.0494 -0.1007  0.0088
16301W        W32195   3.333  14.562  10.949 -0.3290 -0.0622 -0.1387
16302W        W32196   9.466   8.889   2.341 -0.3529 -0.0563  0.2200
16303W        W32197  10.082  13.641  14.989  0.1628  0.2595 -0.4515
16304W        W32198  15.066  11.199   1.837 -0.0795 -0.0633  0.0509
16305W        W32199   7.320  13.622  12.181  0.0871  0.2348 -0.1468
16306W        W32200  11.238  13.532   2.678 -0.2180  0.0996  0.2742
16307W        W32201   6.257  13.341   2.210  0.1008  0.0855  0.2910
16308W        W32202   8.642  13.097  13.323 -0.1494  0.1727 -0.4269
16309W        W32203  12.917   1.153  10.781 -0.1883  0.1788 -0.0862
16310W        W32204  19.185  12.552   2.632  0.0075  0.1373 -0.1275
16311W        W32205  18.050   3.445   5.087 -0.0400  0.1614  0.0056
16312W        W32206   1.636   8.137   5.537  0.2628  0.0705  0.2126
16313W        W32207   6.320   3.629  13.979 -0.2622  0.0777 -0.1117
16314W        W32208   0.319   0.785  14.107 -0.5456  0.0715  0.3279
16315W        W32209   6.512   5.523   5.258  0.1795  0.0443  0.1453
16316W        W32210   2.738  11.060   4.876  0.1810  0.2249 -0.2359
16317W        W32211  12.761  10.183  15.074 -0.0122  0.1172 -0.1661
16318W        W32212   4.106  10.440  14.030 -0.1448 -0.3154 -0.4852
16319W        W32213  13.850   6.917   9.951  0.2454 -0.1438  0.0423
16320W        W32214  12.594   6.113   3.049 -0.0193 -0.1304  0.1912
16321W        W32215  12.168  10.532  14.304  0.0546  0.1656 -0.0938
16322W        W32216  13.445  10.108  11.710 -0.2101 -0.0868 -0.0251
16323W        W32217  13.294  15.791  14.118 -0.3854 -0.1286 -0.2147
16324W        W32218  12.876  17.377   3.389 -0.2291 -0.2309  0.2312
16325W        W32219   7.925   3.224   2.604  0.2109 -0.1960  0.0541
16326W        W32220   0.175   3.108   4.949 -0.2706  0.0929  0.1613
16327W        W32221  18.501   8.073  11.925 -0.2377 -0.2287 -0.1068
16328W        W32222   2.895  15.742   0.645 -0.5194 -0.1782  0.1609
16329W        W32223  17.050   3.285   1.244 -0.1743 -0.0846 -0.2491
16330W        W32224  13.811  14.739   3.312  0.3766 -0.1372  0.2400
16331W        W32225   2.063  11.587   1.515  0.0821  0.0632 -0.2675
16332W        W32226  18.024  14.053   0.602  0.0041  0.2827 -0.0648
16333W        W32227   9.236  17.006   1.255  0.0169  0.0487  0.1044
16334W        W32228  11.834   8.751   1.487  0.2187 -0.0385 -0.1093
16335W        W32229   3.773  12.173  10.585  0.1618  0.2895 -0.1261
16336W        W32230  18.933   4.958   3.134 -0.0313 -0.0253  0.3145
16337W        W32231   9.125  18.096   4.640  0.0559  0.0164 -0.4003
16338W        W32232   6.530  10.070   2.046 -0.0695  0.0999  0.3672
16339W        W32233   9.599   2.168  12.992 -0.3218  0.1043 -0.0615
16340W        W32234   1.912  16.197  12.988 -0.1027 -0.2589 -0.0755
16341W        W32235   6.481   7.878   2.728  0.2717  0.2764 -0.1326
16342W        W32236   1.543  15.587  10.375  0.0241  0.0630  0.2141
16343W        W32237  10.879  12.100  10.022  0.5406 -0.1133 -0.4552
16344W        W32238  17.392   0.401   9.521  0.1100 -0.0017  0.1358
16345W        W32239   1.586   2.924   2.870 -0.0858 -0.0562 -0.5051
16346W        W32240   5.585  11.594  15.025  0.1289 -0.3779  0.1102
16347W        W32241   3.190  13.911   5.433  0.1655 -0.1599  0.1600
16348W        W32242   8.742   0.823   1.215  0.1283 -0.0766  0.2265
16349W        W32243   8.134   8.386   2.472  0.3596  0.2071 -0.2057
16350W        W32244  15.328  14.429   1.407 -0.0653  0.1798 -0.2775
16351W        W32245  12.311  11.139   1.510  0.1737  0.1080 -0.2390
16352W        W32246  18.957  18.909   2.595 -0.1224 -0.0325 -0.0062
16353W        W32247   7.724   7.062  12.771 -0.1091  0.3605  0.0340
16354W        W32248  10.327   7.213  10.685 -0.2052  0.2413 -0.0269
16355W        W32249  11.615   4.291   0.378  0.1982  0.0294  0.2846
16356W        W32250  13.298   9.294   2.600  0.0330  0.2526  0.3398
16357W        W32251   1.090   2.705  14.817  0.1607  0.2797 -0.1268
16358W        W32252   1.388   7.457   3.819 -0.0987 -0.6348  0.1659
16359W        W32253  18.861  14.058   2.279 -0.0400  0.1475  0.1358
16360W        W32254  15.563   9.681   1.234 -0.1165  0.0885  0.2490
16361W        W32255  16.952  16.449   4.981 -0.1126 -0.5324  0.2390
16362W        W32256   8.357  11.354   1.551  0.0856 -0.2524 -0.3310
16363W        W32257   4.172   4.399   5.636 -0.1001  0.1791  0.3900
16364W        W32258  13.497  16.363  10.545  0.0804  0.0252 -0.2939
16365W        W32259   7.284   4.423  14.874 -0.2430  0.2054 -0.0738
16366W        W32260  11.496  14.010  10.454  0.0186 -0.2046  0.3817
16367W        W32261   9.249  16.104   2.626 -0.1178  0.0726  0.2572
16368W        W32262  12.811   2.261   4.559 -0.0802  0.0171 -0.1835
16369W        W32263   9.354  14.471  12.318  0.0470  0.1310  0.4091
16370W        W32264  10.828  17.066   0.509  0.4123 -0.2204  0.2146
16371W        W32265   9.191   8.329  13.374  0.4260 -0.3081  0.0054
16372W        W32266   4.160   6.102  13.315 -0.0140 -0.0973  0.1244
16373W        W32267   1.558  14.688   5.268 -0.0851 -0.0075  0.1543
16374W        W32268   7.346  13.376   3.404 -0.0584  0.3714 -0.1115
16375W        W32269   5.422  14.478   0.556  0.4266  0.0918 -0.0442
16376W        W32270  18.657  17.807  13.223 -0.2673  0.2438 -0.0651
16377W        W32271   7.069  14.193   1.397  0.0978 -0.0251 -0.0795
16378W        W32272  15.053  19.160   4.175 -0.1283 -0.0063  0.1504
16379W        W32273   9.185   4.504   2.296  0.0112 -0.1119  0.1017
16380W        W32274   6.665  12.455   3.524  0.0209 -0.1080 -0.1277
16381W        W32275   6.965  19.166   3.802 -0.2093 -0.0926 -0.0904
16382W        W32276  11.850   1.852   1.282 -0.1087 -0.0380 -0.0927
16383W        W32277   9.031  10.175   3.987  0.0878 -0.1380 -0.3254
16384W        W32278  18.190   6.977   5.549 -0.1058 -0.0911 -0.0493
16385W        W32279  14.213  18.535   3.440 -0.0898 -0.0610 -0.1495
16386W        W32280  16.110   9.862   9.750  0.2369 -0.1496  0.2863
16387W        W32281   6.446  15.714  12.152  0.5461 -0.1910 -0.0280
16388W        W32282   5.841  13.545  10.927 -0.1742 -0.0896  0.3851
16389W        W32283   5.847  11.476  10.105 -0.0358 -0.1596 -0.2029
16390W        W32284   5.137  12.364   2.036  0.1868 -0.1201  0.1371
16391W        W32285  16.766   6.540  14.575  0.1313  0.3854  0.1858
16392W        W32286  13.058   8.502   1.453 -0.1730 -0.3545 -0.2671
16393W        W32287  11.858   5.533  14.748 -0.0825  0.1130 -0.0675
16394W        W32288   1.255  13.534   4.364 -0.2282 -0.0631 -0.1368
16395W        W32289  18.244   0.250   1.751  0.1409 -0.1907  0.2185
16396W        W32290  14.631   4.765  12.601 -0.3067 -0.2173  0.2277
16397W        W32291   7.941   8.182   3.342 -0.0975  0.1334  0.1182
16398W        W32292   2.549   7.132   5.181  0.3929  0.0333  0.2749
16399W        W32293  17.210   5.228   1.492 -0.0959  0.1888 -0.0806
16400W        W32294  11.435  17.092  11.405  0.4071  0.0299 -0.0968
16401W        W32295   2.648  15.891  12.276  0.2510 -0.0729  0.0279
16402W        W32296  12.242   2.312  14.869 -0.1971  0.3505 -0.0663
16403W        W32297  14.316  16.770  14.693 -0.0560 -0.0758 -0.4978
16404W        W32298   7.792   0.820  13.915 -0.3550 -0.1689  0.0318
16405W        W32299  11.876  12.836   5.002 -0.1127  0.2516  0.1676
16406W        W32300  12.095  13.254   4.664  0.0371 -0.0087 -0.0006
16407W        W32301  17.583  17.180   4.117 -0.1383 -0.0654 -0.0677
16408W        W32302   5.676  18.363   4.058  0.0385 -0.2174 -0.3110
16409W        W32303   0.837  12.400   0.602 -0.1081 -0.4418  0.0307
16410W        W32304   1.199   5.639   2.660  0.2521  0.0290  0.1048
16411W        W32305   2.504  13.516  14.179 -0.1550 -0.1865  0.0446
16412W        W32306  13.755   8.779  14.627 -0.0924  0.1821 -0.2826
16413W        W32307  17.022  16.484   1.486  0.2040  0.1620  0.3368
16414W        W32308  14.512   8.762   2.301  0.0034  0.0001 -0.0022
16415W        W32309   8.384  11.900   3.855  0.1634 -0.1227 -0.2621
16416W        W32310  16.677   7.992   3.959 -0.1745 -0.1770  0.0748
16417W        W32311  13.437  17.802  13.065 -0.1139 -0.0394 -0.0046
16418W        W32312   3.973   3.003  11.264 -0.2689  0.2482 -0.4693
16419W        W32313  10.480   1.805  12.615 -0.1387 -0.1482 -0.1173
16420W        W32314   8.472   0.591  11.832 -0.1285 -0.1773  0.2244
16421W        W32315  12.702  11.274  14.382 -0.4239 -0.0403 -0.0653
16422W        W32316   0.864   1.823  11.783 -0.1301  0.0336  0.2606
16423W        W32317  14.100  13.924  12.231 -0.0584  0.0918 -0.0709
16424W        W32318   8.914  10.116  15.019 -0.1381  0.1958 -0.0396
16425W        W32319   9.912   0.562  12.293  0.0189 -0.2233 -0.0019
16426W        W32320  14.633  11.683   3.267 -0.0906  0.3075 -0.4349
16427W        W32321   4.345  18.909   1.410 -0.3525  0.2123 -0.0140
16428W        W32322   4.246  11.807   1.857 -0.2686  0.2018 -0.1630
16429W        W32323  12.829   2.980  13.041 -0.3316 -0.0351  0.1458
16430W        W32324  18.086   5.224  11.718  0.0254 -0.0467 -0.0130
16431W        W32325   3.788   9.048   0.629 -0.0755  0.0483 -0.0606
16432W        W32326   0.354   5.863  14.836 -0.0511 -0.0863 -0.1557
16433W        W32327  17.175   1.434   2.532  0.4670 -0.2165 -0.5303
16434W        W32328  12.785   1.761   3.332  0.1694 -0.0086  0.2832
16435W        W32329  17.588  12.112   2.789 -0.2950  0.3561  0.0058
16436W        W32330  14.462  12.352  13.114 -0.0770  0.1293  0.1615
16437W        W32331   6.084  18.062  10.997  0.0916 -0.0426 -0.0054
16438W        W32332   3.919   3.698  14.449  0.0761  0.2920 -0.0228
16439W        W32333  18.565   4.706  12.138  0.0878  0.1146  0.1556
16440W        W32334  11.096  10.425  10.352  0.1788  0.1905 -0.1057
16441W        W32335  18.151   0.051   4.380  0.4654 -0.0794  0.1130
16442W        W32336  12.702   8.172   3.743 -0.1719 -0.1090  0.3490
16443W        W32337  18.129   8.517  10.272 -0.1499 -0.2085 -0.2404
16444W        W32338   2.613  14.145   1.709 -0.2069  0.1771  0.1804
16445W        W32339  15.789  15.829  11.722  0.0269 -0.1924 -0.1835
16446W        W32340   6.916  17.731   2.488  0.1252 -0.0859  0.1249
16447W        W32341  14.525   3.253  14.013  0.4269  0.0498 -0.0283
16448W        W32342  13.335  14.362   0.134  0.1308 -0.0623 -0.2967
16449W        W32343   9.809   4.957  11.956  0.2722 -0.2180 -0.1898
16450W        W32344  18.546  17.444  13.575 -0.3466 -0.0957 -0.1477
16451W        W32345  13.213  13.724   2.166  0.3032 -0.0900  0.0356
16452W        W32346   5.026  10.839  10.267  0.1450  0.1171 -0.1439
16453W        W32347   4.538   5.253  12.073 -0.2261  0.0083 -0.0381
16454W        W32348   0.599  13.988   0.967 -0.0144  0.1255  0.1494
16455W        W32349   2.311   4.320  11.474  0.3731 -0.1383  0.1340
16456W        W32350  10.288  16.244   2.583  0.1523  0.0475  0.0877
16457W        W32351  11.812  13.592  10.594  0.1893  0.0462  0.2799
16458W        W32352  16.803   3.381   0.804  0.1831 -0.0442 -0.0456
16459W        W32353  12.994   0.241   9.974  0.1014 -0.0950  0.1362
16460W        W32354  18.903   6.392   0.187 -0.0360 -0.0616  0.0547
16461W        W32355   6.818  10.923  12.098 -0.1350  0.1425 -0.0029
16462W        W32356  17.081   4.227   2.745  0.0328 -0.2598  0.1730
16463W        W32357   8.561  11.516  11.897  0.2875 -0.4000  0.1907
16464W        W32358  11.227   7.119   3.978 -0.0491  0.1891 -0.1575
16465W        W32359  11.490  16.773  11.827 -0.1662  0.2120  0.2755
16466W        W32360   6.582   8.363   9.517 -0.0789 -0.2054 -0.0893
16467W        W32361   8.724   1.308   1.051 -0.3712  0.1289 -0.1810
16468W        W32362  17.398  18.604  13.460 -0.2495  0.1438 -0.2014
16469W        W32363  14.897  13.876   1.108  0.0762 -0.2537  0.0645
16470W        W32364  18.546   5.383  11.867 -0.0243 -0.0664  0.0376
16471W        W32365   1.946   7.472   3.908  0.0480 -0.0564 -0.1620
16472W        W32366  12.414  11.927  14.611  0.2387 -0.1987  0.0984
16473W        W32367   4.337   4.832   1.112 -0.1575 -0.1112 -0.1742
16474W        W32368  16.000   8.288  12.597  0.2396 -0.3026  0.2058
16475W        W32369   6.701   9.726   1.622 -0.2829  0.0912  0.1185
16476W        W32370  15.838  16.636  13.407 -0.0628 -0.3230 -0.1364
16477W        W32371   6.367  10.107   4.230 -0.0088 -0.3379 -0.0112
16478W        W32372   4.886   6.463  10.519  0.0439  0.0540  0.4039
16479W        W32373  15.357  16.815  13.279  0.0558 -0.3497 -0.1798
16480W        W32374   7.396  10.683  12.342 -0.2977 -0.2618 -0.0306
16481W        W32375   9.288  11.286   4.789 -0.1174 -0.1707 -0.1716
16482W        W32376   1.456  14.436  10.592 -0.0678 -0.0927  0.1716
16483W        W32377   0.261  13.010  12.989  0.1313 -0.1302  0.0014
16484W        W32378   1.197   7.290   0.630  0.0828 -0.1797 -0.0692
16485W        W32379   1.094  15.601   3.887  0.1707 -0.0487 -0.0563
16486W        W32380   4.915  15.933   2.547 -0.0277 -0.1550 -0.0299
16487W        W32381   8.844  14.683  10.985  0.1058  0.1149 -0.2822
16488W        W32382  14.728  13.591   3.074  0.1098  0.2785  0.2789
16489W        W32383  12.524  17.097  11.682 -0.4276  0.0247 -0.1181
16490W        W32384   9.336  13.060  11.272 -0.0789  0.0378  0.0098
16491W        W32385  15.240  11.332  14.201  0.0824  0.1583  0.1152
16492W        W32386   0.724  17.221   3.810 -0.0474  0.3549  0.1576
16493W        W32387  13.022  17.706   2.897  0.0434 -0.1339  0.0056
16494W        W32388  12.796   3.018   0.114 -0.0962 -0.3152  0.2980
16495W        W32389   7.207   5.186   4.655 -0.1247  0.1281 -0.2117
16496W        W32390   2.309   2.930   0.311 -0.1414 -0.1441 -0.2215
16497W        W32391   2.873   4.680  14.339 -0.2408 -0.1831 -0.0793
16498W        W32392  16.946  11.396  12.815 -0.1709 -0.0146  0.2874
16499W        W32393  17.933   1.859  11.040 -0.0992 -0.2297 -0.0771
16500W        W32394  19.100  17.016   4.206  0.0071 -0.1103  0.0170
16501W        W32395  12.075  11.577  10.212  0.2328 -0.0290 -0.1605
16502W        W32396   2.827   2.886   2.460  0.1740  0.0326 -0.0423
16503W        W32397  17.750   5.651  13.661  0.0043 -0.1232 -0.0340
16504W        W32398   3.965   7.723   0.850 -0.1705  0.1950 -0.2363
16505W        W32399  15.875  17.125  13.268 -0.0337 -0.1864 -0.1987
16506W        W32400   6.240  11.436   0.927  0.0502 -0.3752 -0.1346
16507W        W32401  16.435   3.181   3.299 -0.0348  0.2521  0.1101
16508W        W32402   5.467   2.820   1.342  0.1636  0.1198  0.1502
16509W        W32403  13.899  10.031   3.835 -0.1145  0.1878  0.2085
16510W        W32404  15.158   6.130   4.941  0.1794  0.0085  0.3249
16511W        W32405   9.471   3.431  11.131 -0.1182  0.0532 -0.1205
16512W        W32406   8.074   5.746   2.081 -0.0097 -0.0510  0.1782
16513W        W32407  16.297   3.924   2.800  0.2952  0.3021 -0.1595
16514W        W32408   9.402   5.473  14.453  0.2536 -0.0753 -0.1568
16515W        W32409  17.850  16.814  10.283 -0.0115  0.2310 -0.1733
16516W        W32410   5.709  10.888   5.598 -0.1017  0.0580  0.0244
16517W        W32411   1.470  12.346   1.747 -0.1193 -0.1204  0.1565
16518W        W32412  11.385  17.716   0.914  0.4404  0.1637  0.1387
16519W        W32413   2.702  10.282   3.545  0.2515 -0.2778  0.0567
16520W        W32414  10.059  16.393  11.597  0.1204 -0.2782 -0.0275
16521W        W32415  18.079   2.362   3.646  0.1455 -0.2682 -0.0047
16522W        W32416   6.872   2.199   1.422  0.1364  0.3543  0.1859
16523W        W32417   0.551  16.664   5.172  0.1917 -0.2900  0.2756
16524W        W32418  12.725  14.802  10.682  0.1154 -0.1308 -0.2048
16525W        W32419   8.702   5.303   0.388  0.0278 -0.1360 -0.2226
16526W        W32420  12.583   5.802  10.497 -0.3136 -0.1097  0.2914
16527W        W32421   8.208   5.153   0.531  0.0886  0.0510  0.2294
16528W        W32422   8.857   3.619   4.686 -0.0043  0.0897 -0.2212
16529W        W32423   4.749   9.984   0.701 -0.1946 -0.0838  0.4638
16530W        W32424   3.328   5.037  14.361  0.0638  0.0767 -0.3563
16531W        W32425  16.191   2.903  10.482  0.2578 -0.4202  0.0186
16532W        W32426  18.580   7.157  12.235  0.2502  0.1020  0.2309
16533W        W32427   9.820   2.465  12.084  0.0268  0.0621 -0.0466
16534W        W32428   4.029  11.839   3.434 -0.1039  0.0928  0.0080
16535W        W32429  14.590  10.959   1.721  0.1973 -0.1061 -0.2650
16536W        W32430   7.682   5.273  13.116  0.0931  0.2025  0.0380
16537W        W32431  10.751   1.046   2.068  0.0382 -0.2928  0.1745
16538W        W32432  16.570   5.321   3.013  0.3184 -0.0470  0.0143
16539W        W32433  19.130   7.904  14.230  0.1438 -0.1196  0.0934
16540W        W32434   4.620  12.760   9.265  0.1487  0.1045  0.3179
16541W        W32435   1.325   0.250   1.457  0.1311 -0.0809  0.0640
16542W        W32436  11.314   6.323   2.623  0.0329  0.1967  0.0152
16543W        W32437   1.849   4.454  13.526 -0.2316  0.2018  0.2322
16544W        W32438   5.144  16.670  13.844  0.0115  0.0474 -0.0426
16545W        W32439  16.054   5.625   1.294 -0.0729 -0.0815  0.1254
16546W        W32440   3.303   8.123  11.735 -0.2044  0.2441  0.1617
16547W        W32441   6.869  18.584  14.029  0.2925  0.0779 -0.0525
16548W        W32442  15.219   2.986  14.788  0.2650  0.2098 -0.3853
16549W        W32443   3.299  16.972  10.189 -0.0912  0.4931 -0.0270
16550W        W32444   9.803  10.159  15.006  0.1558 -0.1033 -0.1761
16551W        W32445  10.860  15.004   0.516 -0.1202 -0.0293  0.0753
16552W        W32446   5.616  12.173  11.318 -0.0067  0.2741  0.0332
16553W        W32447   6.267   4.172  12.549  0.0602 -0.1901 -0.0498
16554W        W32448  14.633   9.614  14.183 -0.4483  0.1256  0.3420
16555W        W32449   1.660   7.022  12.005  0.4760 -0.0791 -0.2685
16556W        W32450  19.144   6.688   5.073  0.2121 -0.1539 -0.2397
16557W        W32451  10.651  11.897   4.795  0.2067  0.0172 -0.0268
16558W        W32452   6.046  10.661  13.275  0.0207 -0.1058 -0.2218
16559W        W32453   6.891   2.945   1.691  0.0097 -0.0782  0.0391
16560W        W32454  10.575   3.461  13.679 -0.0059 -0.1885  0.1182
16561W        W32455   7.318  13.471  14.226 -0.1182 -0.0273  0.0159
16562W        W32456  10.974  17.579   0.616 -0.1561 -0.1272 -0.0842
16563W        W32457  15.847   4.018  14.354  0.0170 -0.4204  0.1279
16564W        W32458   8.281   5.255  14.571 -0.1065 -0.1926 -0.1217
16565W        W32459  11.930   6.495  12.313 -0.0320 -0.0767  0.0765
16566W        W32460  16.080   7.604   5.215 -0.1913 -0.1671 -0.1686
16567W        W32461   3.434  16.636   2.496 -0.3198  0.1488 -0.0496
16568W        W32462   1.158   9.872  10.314 -0.0799 -0.2144  0.0518
16569W        W32463   5.930   8.256  13.741  0.0000 -0.2435  0.0268
16570W        W32464   6.576  12.392  11.258  0.2562 -0.0637 -0.2601
16571W        W32465   1.015  15.685  10.259 -0.3125  0.0283 -0.0099
16572W        W32466   0.679   7.967  11.652  0.2965  0.2366 -0.2921
16573W        W32467  15.467  18.227  11.592 -0.0482 -0.0778 -0.0603
16574W        W32468  15.405  12.897   4.512 -0.2636 -0.0834  0.2532
16575W        W32469   4.085   0.083   0.379 -0.0844  0.1328 -0.1013
16576W        W32470   4.871  14.808   3.235 -0.1178 -0.1565  0.0185
16577W        W32471  11.759   2.416   8.863  0.1121 -0.1155 -0.3157
16578W        W32472   9.479  12.341  11.517  0.3724  0.0006 -0.2692
16579W        W32473  17.286   9.860   3.100  0.0093 -0.0883 -0.1211
16580W        W32474  17.552   5.575   1.377 -0.2467  0.0195 -0.1950
16581W        W32475   0.410  15.523   0.366  0.0048  0.5060  0.2833
16582W        W32476  10.656  11.580  14.577  0.0809  0.0869  0.1951
16583W        W32477   5.957   4.297  14.743  0.0927  0.1489 -0.0209
16584W        W32478  10.351   6.895   5.322  0.1095 -0.0651 -0.1131
16585W        W32479   8.207  14.592   2.164 -0.2000  0.2965 -0.0898
16586W        W32480  11.669   2.651   9.386 -0.2481  0.3365 -0.0731
16587W        W32481  15.233  18.770  14.021 -0.0131 -0.1897  0.0111
16588W        W32482  14.911   2.611  15.063 -0.2991 -0.0059  0.2654
16589W        W32483   1.534  14.605   2.126 -0.6220 -0.1607 -0.2011
16590W        W32484  18.058  14.405   3.896 -0.3223 -0.0883 -0.1045
16591W        W32485   3.583   8.158  12.303  0.1609  0.0084  0.5436
16592W        W32486  17.576   4.053  11.796 -0.0087  0.1298 -0.1203
16593W        W32487  18.551  19.002  13.433 -0.2742 -0.1368  0.0980
16594W        W32488  13.027   8.462   3.269  0.0043 -0.2520  0.0740
16595W        W32489   6.866   8.789  14.187 -0.1478  0.0953 -0.1890
16596W        W32490  12.100   8.166   2.843  0.1241  0.0382 -0.2837
16597W        W32491  17.743   1.045   3.628  0.2217  0.0248  0.1943
16598W        W32492  11.855  10.005   4.407 -0.1681  0.1293 -0.1564
16599W        W32493   1.960   3.386   5.412 -0.0369  0.0988 -0.0541
16600W        W32494  14.983  11.920   3.620 -0.0215  0.0121  0.2544
16601W        W32495  12.509   5.652   9.463  0.0903  0.1144 -0.0692
16602W        W32496   1.924   8.807   2.644 -0.0620  0.1053  0.0081
16603W        W32497   7.426  15.097   2.439 -0.1886  0.1518 -0.0061
16604W        W32498  18.105  12.396   0.476  0.2116 -0.1592  0.1231
16605W        W32499   9.426  12.688   2.091  0.1850  0.1716 -0.3676
16606W        W32500  11.692  15.343   0.321  0.3011  0.1838  0.2458
16607W        W32501   6.461  15.856   4.027 -0.0147  0.0068  0.4008
16608W        W32502  18.447  17.038   4.563  0.1363  0.1416 -0.0480
16609W        W32503   4.297   0.924   2.040 -0.0533  0.0735  0.4436
16610W        W32504  11.226   5.857  11.518 -0.3665  0.2333 -0.1341
16611W        W32505  13.919   8.734   5.912  0.1312 -0.0581  0.1616
16612W        W32506  18.906   4.153  11.373  0.0631 -0.1002 -0.1998
16613W        W32507  12.971  15.628   3.969 -0.1509  0.2220  0.1031
16614W        W32508  11.775  17.337  10.613  0.1412 -0.1566 -0.2449
16615W        W32509  18.890   7.123  14.418  0.3866  0.0866 -0.3527
16616W        W32510  16.025   4.479   2.623  0.0242  0.4989  0.2087
16617W        W32511   0.179   8.569  14.275  0.0319  0.0977 -0.1717
16618W        W32512  16.722   3.839  14.088  0.0026  0.2691 -0.1181
16619W        W32513   2.500   5.556  11.295 -0.1002 -0.2832  0.2101
16620W        W32514  14.862   5.590   2.892  0.1911  0.2943  0.0833
16621W        W32515  17.832  10.870  14.831 -0.2561 -0.1755  0.0900
16622W        W32516  17.598  11.420  13.938  0.0015 -0.1282  0.3193
16623W        W32517  17.798   6.432  11.912 -0.2548  0.1391  0.0470
16624W        W32518   2.128   3.390   0.580  0.1816  0.3091 -0.0707
16625W        W32519  12.856   3.969   0.922 -0.0638  0.5767 -0.3393
16626W        W32520  12.063  17.583  13.774 -0.1233 -0.0555 -0.2834
16627W        W32521   1.957   8.706  11.301 -0.0974 -0.1163  0.1008
16628W        W32522   5.071   2.086  14.721  0.0459  0.1480  0.0099
16629W        W32523   8.971   0.393   2.159  0.2836  0.1616  0.1412
16630W        W32524  12.738  18.164  10.458 -0.0260  0.1051 -0.0132
16631W        W32525   4.993   0.861   2.250  0.0113 -0.1031  0.3939
16632W        W32526   2.144  17.364   3.433 -0.0781  0.1943 -0.0349
16633W        W32527   9.057  14.347   4.761 -0.1773 -0.0267  0.1263
16634W        W32528   9.599  13.889   0.515 -0.0340 -0.0533 -0.2068
16635W        W32529  12.868   6.110   0.856 -0.2104  0.3745  0.1487
16636W        W32530  11.606  17.931  12.497 -0.1950  0.2567  0.0635
16637W        W32531   2.185   9.226  11.906  0.3484  0.1828  0.0080
16638W        W32532  19.206   9.372  10.864 -0.2824 -0.1676  0.3444
16639W        W32533   4.877  17.214   3.803  0.3057 -0.2000 -0.1773
16640W        W32534   0.927   7.251   5.870  0.0086 -0.0146  0.1710
16641W        W32535   0.021   6.430  12.545 -0.0202  0.0627 -0.1084
16642W        W32536   3.337   6.982  13.182  0.1058 -0.0548 -0.0852
16643W        W32537   8.282   9.122  13.342  0.5376 -0.0515  0.2343
16644W        W32538   3.605   9.221  11.802  0.0651 -0.1594 -0.1190
16645W        W32539  14.926   3.137   2.177 -0.3804 -0.1057  0.0744
16646W        W32540  17.206   3.455   4.438 -0.1201 -0.2827  0.2005
16647W        W32541   1.260   7.141  13.386 -0.1271 -0.0919  0.0898
16648W        W32542   9.717  14.200   0.890 -0.0221  0.0440  0.0877
16649W        W32543   6.720  14.080  11.813 -0.2299 -0.2893  0.2081
16650W        W32544  11.382  14.614  12.049  0.2202  0.0164 -0.3687
16651W        W32545   3.281  17.983   4.013  0.3008  0.0748 -0.2971
16652W        W32546   7.119   1.742   1.546  0.1538  0.4418 -0.1780
16653W        W32547   0.711   2.998   5.068  0.0060  0.0706  0.0084
16654W        W32548   6.829   1.862   5.142 -0.3015  0.2514 -0.2051
16655W        W32549   6.801   1.551   1.071 -0.1854 -0.0039  0.2759
16656W        W32550  14.602   6.614  14.041 -0.2776 -0.2296 -0.1816
16657W        W32551   9.136  16.611  15.108 -0.1172  0.0442  0.2436
16658W        W32552   5.607   5.580   3.610 -0.1280  0.1861  0.0729
16659W        W32553   2.895  15.839   4.035  0.0512 -0.0666 -0.0773
16660W        W32554  12.636   7.773   4.006 -0.0625 -0.0922  0.1512
16661W        W32555  18.203   4.773   4.197 -0.1271 -0.1537 -0.0645
16662W        W32556   8.782  13.604   0.950 -0.3007 -0.0331  0.1753
16663W        W32557  15.011   7.142   4.310 -0.1279  0.1232 -0.2403
16664W        W32558  14.416  15.733  13.562  0.2763 -0.2100  0.1497
16665W        W32559  17.120   5.741  10.845 -0.1716 -0.0480  0.1087
16666W        W32560   4.209   8.732  12.240  0.0141  0.1528  0.2645
16667W        W32561   4.759  16.944   1.328 -0.2967 -0.2315 -0.1704
16668W        W32562  12.537   8.445  12.987 -0.2833  0.1414  0.0933
16669W        W32563  10.914   5.828   9.504 -0.0536 -0.1950  0.0852
16670W        W32564  11.748  10.342   0.392 -0.0628  0.3739  0.0686
16671W        W32565   8.442   5.495  15.102 -0.2549 -0.0460 -0.2499
16672W        W32566   7.665  14.535   4.225 -0.2803  0.0963 -0.0934
16673W        W32567  17.193  14.018   4.328  0.0092  0.2400 -0.1081
16674W        W32568   3.295  15.043  10.991 -0.0618 -0.0162 -0.2233
16675W        W32569  15.913  11.362   4.524 -0.0301 -0.1729 -0.1502
16676W        W32570  15.817  14.360  11.707  0.0765 -0.3537 -0.0895
16677W        W32571  18.165   9.806   5.111 -0.1254  0.0326 -0.0502
16678W        W32572   9.623   7.762  12.379 -0.1016 -0.2336 -0.2605
16679W        W32573  10.064   9.578  10.694  0.1759  0.1684  0.2032
16680W        W32574  19.196  17.079   1.723  0.1529  0.2984  0.4691
16681W        W32575   8.650   8.304   2.640  0.0394  0.2559  0.0959
16682W        W32576   7.824  10.573  13.106 -0.0998 -0.0831 -0.0112
16683W        W32577   5.684   3.596   4.625  0.0183 -0.0674  0.0235
16684W        W32578   8.319  16.709   1.166 -0.0724 -0.0514 -0.1604
16685W        W32579   8.873  15.002  14.148 -0.3684  0.0478  0.2220
16686W        W32580   3.088   7.676   4.932  0.1776 -0.2191  0.0804
16687W        W32581  18.194  18.374   3.982 -0.0319  0.0618  0.0414
16688W        W32582  17.594  11.564   0.741  0.2349  0.1256 -0.0038
16689W        W32583   0.646  12.882  12.551  0.1435 -0.0164  0.1931
16690W        W32584   3.128   9.194  11.463 -0.2245  0.0144  0.2770
16691W        W32585  13.010  11.763   0.662 -0.3865 -0.0712 -0.0350
16692W        W32586  17.724   0.092   1.870  0.0177 -0.0215 -0.1397
16693W        W32587   1.960  10.543  14.230 -0.1988 -0.2523 -0.1189
16694W        W32588  12.727   3.351   1.632  0.3377 -0.0472  0.1729
16695W        W32589   3.398   0.543   0.998 -0.1016  0.0398 -0.0982
16696W        W32590   3.568   7.802   2.883 -0.0048  0.0477  0.0399
16697W        W32591   6.951   3.460   2.642  0.0996 -0.1293  0.0339
16698W        W32592  10.939   1.090   0.607  0.1644 -0.0760  0.1254
16699W        W32593  11.830  11.326   4.645  0.1252  0.0724  0.3392
16700W        W32594  12.751   4.528  13.943  0.1963  0.0939  0.1693
16701W        W32595  14.264  11.948  12.208  0.0791 -0.1456  0.2972
16702W        W32596   2.202   4.547   2.349 -0.0037  0.0579  0.1989
16703W        W32597  12.402  18.365  15.028  0.0735 -0.0077 -0.0982
16704W        W32598  12.584  16.316   2.672  0.0127  0.0464 -0.2105
16705W        W32599   7.029   8.213  14.169 -0.1200 -0.0867 -0.1675
16706W        W32600   7.594  15.759   0.686 -0.1821  0.3332  0.2269
16707W        W32601   2.693  17.084   2.775  0.3078 -0.1058 -0.0177
16708W        W32602   2.099   6.480   2.499  0.2610  0.1011 -0.0694
16709W        W32603   9.811  15.069   4.331  0.1910 -0.3701 -0.1716
16710W        W32604   3.460   9.357  13.304 -0.1064  0.1837  0.1665
16711W        W32605  17.513  14.532   1.568  0.0095 -0.1984  0.1430
16712W        W32606   7.007   3.857   5.034 -0.3004  0.0437  0.2775
16713W        W32607  10.505  16.078  11.707 -0.2324  0.3765 -0.2713
16714W        W32608  12.906   7.044  10.783  0.0261  0.2596  0.2162
16715W        W32609  10.036   8.737  12.461 -0.2336 -0.2875 -0.4048
16716W        W32610   6.697   8.782  11.401  0.4637 -0.1362  0.0312
16717W        W32611  10.518  11.258   2.778  0.0206  0.1802  0.3872
16718W        W32612  11.195  18.693   4.564  0.0842  0.1174  0.1953
16719W        W32613  16.690   0.748  12.335 -0.2823  0.1088 -0.0350
16720W        W32614  18.932   0.941   3.880 -0.1096  0.1277 -0.0033
16721W        W32615   3.873   7.507   3.780  0.0287 -0.0887  0.3563
16722W        W32616  17.109  15.695   0.762  0.1391  0.1514  0.0452
16723W        W32617  10.574   9.864   4.450 -0.0398  0.2320  0.1322
16724W        W32618  10.942  10.099   3.173  0.0962  0.0466 -0.3625
16725W        W32619   9.925  15.333   2.165 -0.1943 -0.1840  0.0990
16726W        W32620  18.159   4.646  12.655  0.1015 -0.4939 -0.1525
16727W        W32621  10.550  12.639  13.094  0.1106 -0.0336 -0.1028
16728W        W32622  14.797   2.807   5.094  0.1892  0.1883  0.3569
16729W        W32623   1.103   0.898   0.268  0.1073  0.2650  0.0137
16730W        W32624  17.359   3.839   4.749 -0.0310 -0.1724 -0.1787
16731W        W32625   9.174   2.182  14.144 -0.2600 -0.0101 -0.4565
16732W        W32626  16.898  13.170  12.286  0.1463  0.0839  0.0745
16733W        W32627   6.411   9.303   2.869  0.0036  0.3006 -0.1687
16734W        W32628  18.140  10.938   4.948 -0.0183  0.0456 -0.0074
16735W        W32629   1.362  14.135   5.511 -0.1988 -0.2547 -0.5011
16736W        W32630  15.107   1.304   1.361 -0.3979 -0.2221 -0.1689
16737W        W32631  18.187  10.626  12.045  0.2290  0.1854 -0.1860
16738W        W32632  17.346   4.757  12.925  0.2138 -0.0286 -0.1592
16739W        W32633   3.782  12.119   0.331  0.1104  0.0483 -0.1799
16740W        W32634  17.761  10.611   0.745  0.0582 -0.2746 -0.1497
16741W        W32635   1.570  12.173  12.143 -0.3076  0.0273 -0.2876
16742W        W32636   5.862   6.873   4.132  0.0892  0.1848 -0.1788
16743W        W32637   4.502   3.590   4.048  0.2781  0.1577 -0.1956
16744W        W32638  14.963   9.378  12.145  0.2329 -0.0214  0.0341
16745W        W32639  17.802   9.760  11.523  0.1254  0.0074 -0.0070
16746W        W32640  15.467  15.268   0.332 -0.3345 -0.3797  0.0284
16747W        W32641  19.148   0.593   3.591 -0.4382  0.0420 -0.3089
16748W        W32642  16.850   4.655  12.988  0.2154 -0.5426  0.0015
16749W        W32643   7.820   4.155  12.681  0.2476 -0.0983 -0.0010
16750W        W32644  18.075   5.756   2.292  0.0062 -0.0996  0.4067
16751W        W32645  15.854   1.090  14.861 -0.5421 -0.0002 -0.0152
16752W        W32646  11.440   8.504   0.956 -0.1469  0.3336 -0.0315
16753W        W32647   3.763  10.723   2.992 -0.2026 -0.3013  0.1804
16754W        W32648   3.760   7.128   0.133  0.4451 -0.4360 -0.1178
16755W        W32649   6.116  10.572  14.437  0.0584 -0.0799 -0.5217
16756W        W32650  12.029   2.907  13.685 -0.2213 -0.1857 -0.2144
16757W        W32651  11.665  10.704   5.113  0.1139  0.4190  0.2355
16758W        W32652   6.361  15.125   1.380 -0.2431  0.1773 -0.1507
16759W        W32653   6.380   8.324   4.742 -0.0392 -0.0807 -0.1610
16760W        W32654  14.385   2.216  10.966 -0.1863  0.3092 -0.0125
16761W        W32655   5.811   7.353  12.732 -0.0709  0.0035 -0.0906
16762W        W32656  16.838   1.336  12.167  0.0077  0.2589  0.3717
16763W        W32657  18.463  15.625  14.127 -0.2117  0.2493  0.0879
16764W        W32658   3.112  12.727  14.348 -0.3226  0.3343  0.6097
16765W        W32659  16.809   5.580  12.232 -0.0544 -0.1077  0.1311
16766W        W32660   3.651   8.872   4.111  0.1318  0.1850  0.0218
16767W        W32661  18.629   1.883  13.781  0.3041 -0.1650  0.1079
16768W        W32662   4.434   2.262  13.384  0.2195  0.1280 -0.2164
16769W        W32663  17.079  14.399  11.594 -0.0427 -0.1003  0.1994
16770W        W32664  13.160  15.857   0.824 -0.1206 -0.1817  0.1155
16771W        W32665  16.907  11.845  12.779 -0.1900 -0.1269 -0.1143
16772W        W32666   8.475  14.678   0.654 -0.0531 -0.0433 -0.0652
16773W        W32667   2.666   2.724  12.992  0.2870 -0.1144 -0.0017
16774W        W32668  14.762   4.080  11.688  0.2922 -0.0876 -0.1466
16775W        W32669   1.819  12.832   4.343  0.1609  0.3409 -0.0646
16776W        W32670   8.282  14.603  14.232 -0.0090 -0.0484  0.0084
16777W        W32671  14.976  17.471  11.495 -0.0867 -0.0942 -0.0242
16778W        W32672   9.449  14.748  13.463 -0.2314  0.0471 -0.2983
16779W        W32673  12.797   4.922   3.334 -0.3265 -0.0370  0.2937
16780W        W32674   2.948  13.675  12.910 -0.0400 -0.1236  0.1105
16781W        W32675  18.275  11.919   0.733  0.0034  0.1652 -0.0115
16782W        W32676   4.252   6.701   3.004 -0.0333 -0.3262  0.1121
16783W        W32677   0.262  10.814  12.204  0.1940 -0.0945 -0.2487
16784W        W32678  10.215  16.011  14.509  0.2944  0.2696 -0.2761
16785W        W32679   7.431  10.000   2.669  0.1048  0.2290 -0.1158
16786W        W32680   1.330   0.583  15.048 -0.3154  0.2383 -0.0281
16787W        W32681  14.809   6.962   5.242 -0.2137  0.1019 -0.0407
16788W        W32682   9.378  13.985  10.846  0.1484  0.0168  0.1653
16789W        W32683   1.326   9.611   4.092  0.0019  0.2038 -0.0717
16790W        W32684  11.645  14.492   1.071 -0.1497  0.1388 -0.0341
16791W        W32685  14.869   4.345  12.128  0.1183 -0.3208  0.2253
16792W        W32686   2.373   4.967   3.036  0.0083 -0.0495  0.1229
16793W        W32687   7.687   4.576  15.051  0.1281  0.1078 -0.2696
16794W        W32688   2.798   4.100  11.043  0.0284  0.2586  0.0142
16795W        W32689   4.803   0.549   2.548 -0.1191  0.2443 -0.1528
16796W        W32690  10.383  16.996  14.483 -0.1436  0.1482  0.0008
16797W        W32691  18.631   9.740   1.146 -0.0726 -0.1728 -0.2359
16798W        W32692  10.856  12.362   3.854 -0.1829 -0.2592 -0.2962
16799W        W32693   0.692  18.868  13.351 -0.1187 -0.1235  0.0471
16800W        W32694   3.785   8.504   4.496  0.1062 -0.0514  0.0421
16801W        W32695  13.076   5.153   0.380  0.1569  0.2014  0.1203
16802W        W32696   4.787  14.970  11.706  0.0457 -0.0482 -0.4873
16803W        W32697   3.304  15.810   1.203  0.0722  0.2246 -0.0586
16804W        W32698   7.871  13.201   3.261 -0.0042 -0.2537 -0.5565
16805W        W32699   1.659  12.653   2.152  0.1590 -0.2278  0.1886
16806W        W32700   8.781   9.225   2.547 -0.4186  0.2532  0.0414
16807W        W32701   9.320  17.467  12.274 -0.0299  0.0771  0.2537
16808W        W32702   0.056  18.900  10.393  0.1837  0.2025  0.1717
16809W        W32703   5.265  10.630  11.580 -0.0719 -0.2537  0.0674
16810W        W32704  11.823  17.054   1.478 -0.2501 -0.0045 -0.0825
16811W        W32705   7.156  15.903  12.242  0.3533  0.0952  0.2063
16812W        W32706  11.321   1.159   4.055  0.0526 -0.3476 -0.0733
16813W        W32707   0.994   3.992   5.791  0.3670  0.0490 -0.0981
16814W        W32708   5.575  16.935  13.250  0.1935 -0.3735  0.1174
16815W        W32709  12.698  14.224  11.946  0.0159  0.1625 -0.2612
16816W        W32710   3.672  12.062   1.173 -0.0241 -0.2763 -0.0956
16817W        W32711  15.290  12.501  14.023 -0.0523 -0.1426  0.0577
16818W        W32712   2.744   5.088   1.014  0.0040  0.1312  0.0890
16819W        W32713  15.926   2.930   4.315 -0.1672  0.0149  0.2391
16820W        W32714  17.945   1.220   1.848 -0.0376 -0.1048 -0.1248
16821W        W32715   7.795  13.707   3.214 -0.1338  0.2054  0.1652
16822W        W32716   2.548  13.419   3.262  0.0953 -0.0646  0.3417
16823W        W32717   4.731  17.040  13.825 -0.0007  0.1323 -0.0885
16824W        W32718   2.639   0.853  12.864  0.1113  0.0051  0.0680
16825W        W32719   5.016   6.153   3.084 -0.1571  0.1812 -0.2313
16826W        W32720  10.754  11.464   3.608 -0.0877  0.0408  0.1449
16827W        W32721  13.476  17.226  12.006  0.3626 -0.0148  0.0490
16828W        W32722   0.935  18.157   2.862 -0.1738  0.3676 -0.0690
16829W        W32723   9.178  10.713  14.236 -0.1062  0.2629 -0.0580
16830W        W32724  16.357   5.384   0.200 -0.3262  0.3754 -0.1457
16831W        W32725   6.520   1.614   4.544 -0.2119  0.0186 -0.1576
16832W        W32726   2.112   3.482  11.389  0.0255 -0.0853  0.3655
16833W        W32727   3.198  10.721   1.680  0.0219 -0.2538 -0.0570
16834W        W32728   2.215   4.181   4.022 -0.1639  0.1485  0.1980
16835W        W32729   3.422  18.993  13.382  0.0218  0.0278  0.2653
16836W        W32730   3.313  12.930  12.004 -0.1097  0.0293  0.1936
16837W        W32731  10.348   0.579   3.297 -0.0105  0.0160 -0.1488
16838W        W32732  16.187  11.318  12.981 -0.2042 -0.1768 -0.1044
16839W        W32733   1.406  13.152   2.132  0.1524  0.0029  0.0189
16840W        W32734  14.162   0.233   0.066 -0.3402  0.1121 -0.0690
16841W        W32735  11.683   8.582  12.608  0.1264  0.0906  0.0781
16842W        W32736  11.035  19.076  11.961  0.0791  0.0643 -0.2096
16843W        W32737  17.615  15.656  11.005 -0.0706 -0.0889 -0.0220
16844W        W32738  13.755  12.713   0.747 -0.3288  0.0029  0.0006
16845W        W32739  10.183  10.550   1.389 -0.0764  0.5538 -0.1837
16846W        W32740   4.218   9.725   5.904  0.1951 -0.2651  0.0915
16847W        W32741   0.773   8.886  14.292 -0.2263 -0.0353 -0.0579
16848W        W32742  17.168   0.645  12.032  0.1461  0.1483 -0.2648
16849W        W32743  15.169   8.776   9.954 -0.1145  0.2202 -0.4701
16850W        W32744  10.289   2.638   0.840  0.3392 -0.2324  0.1281
16851W        W32745  12.086   6.254   2.929 -0.2447  0.0314  0.2743
16852W        W32746  12.752  13.408   0.106 -0.0347  0.3082  0.1065
16853W        W32747  11.912  10.142   5.513 -0.0687 -0.3122  0.3634
16854W        W32748   5.831   0.580   2.950 -0.2997 -0.0581  0.0471
16855W        W32749   0.527  10.371  13.793  0.0410 -0.0119 -0.1244
16856W        W32750  17.530  10.223   1.424  0.0048  0.2115  0.2546
16857W        W32751   3.359   1.977  13.725  0.0100 -0.0239 -0.1491
16858W        W32752   4.963   1.404  14.079  0.3308  0.2014  0.1446
16859W        W32753  17.197  18.746  13.999 -0.3085 -0.4349 -0.3140
16860W        W32754  12.401   5.475  12.477 -0.0935 -0.1897 -0.2371
16861W        W32755   5.212   3.874  14.451 -0.0920 -0.1368 -0.2092
16862W        W32756   1.768  13.051   3.611  0.1391  0.0365  0.3579
16863W        W32757  12.845   4.747   1.235  0.5055 -0.1718  0.2100
16864W        W32758  18.331  18.422  10.324 -0.2089 -0.1781  0.0162
16865W        W32759   7.356   7.630   5.940  0.1238  0.0321  0.1219
16866W        W32760  15.020   5.976   1.607  0.0903 -0.0505  0.0298
16867W        W32761   3.093   1.968  11.673  0.1818 -0.0232 -0.2477
16868W        W32762  15.331   7.060  13.912  0.0922  0.2063  0.1989
16869W        W32763  12.756  17.309   5.580  0.0589  0.1775  0.1918
16870W        W32764   0.592   8.715  11.151 -0.1600 -0.1576 -0.0244
16871W        W32765   8.142  17.632  10.269  0.3874 -0.1262  0.3120
16872W        W32766  11.050  15.192  12.796  0.0176 -0.0465 -0.0711
16873W        W32767   0.640  11.200   1.582  0.0354 -0.1140  0.1730
16874W        W32768   1.781   4.453   3.966 -0.1741  0.1021 -0.1924
16875W        W32769  14.673   8.271  10.828  0.1372  0.3247 -0.2511
16876W        W32770   9.970  17.603  14.707 -0.1560  0.1696 -0.0550
16877W        W32771  16.461  11.762   0.350 -0.2666  0.1709 -0.2069
16878W        W32772   4.126  16.529  12.632  0.1760 -0.1535  0.2700
16879W        W32773   3.345  14.096  10.753  0.2428 -0.0351  0.2690
16880W        W32774   9.749  13.209  10.746  0.0503  0.0186 -0.0401
16881W        W32775  11.652  14.066  13.545  0.0532 -0.0767  0.0351
16882W        W32776   1.547   4.902  11.298 -0.1592 -0.0308 -0.1911
16883W        W32777  11.625  16.791   2.816 -0.2815 -0.1791 -0.1521
16884W        W32778   9.451   0.934  12.655  0.0640  0.1104 -0.1025
16885W        W32779   4.200  18.100   1.043 -0.6033 -0.4328  0.0729
16886W        W32780   0.050   9.949  12.337  0.1214 -0.2131 -0.0306
16887W        W32781  15.994   2.950   0.784 -0.2257 -0.3700  0.0762
16888W        W32782   2.472   9.245   3.469 -0.1101  0.3411 -0.1020
16889W        W32783   1.050  10.855   0.673 -0.1011  0.0112 -0.0226
16890W        W32784  12.530  17.447   4.151  0.2346  0.2541  0.0244
16891W        W32785   3.076   5.903  12.804 -0.1615  0.2051 -0.3188
16892W        W32786   7.666   4.965   1.373  0.2091  0.1988 -0.1486
16893W        W32787   6.506  14.451  10.184  0.2062 -0.1486  0.1161
16894W        W32788   7.801   4.843   1.870  0.1622 -0.0310 -0.0873
16895W        W32789  10.236  12.796  10.185  0.0006  0.0817 -0.0664
16896W        W32790  16.544   6.956   3.585  0.1602  0.3800 -0.3167
16897W        W32791   3.231   8.567   4.181 -0.0565 -0.0535  0.2279
16898W        W32792   2.401  13.622   2.493 -0.1480 -0.3144  0.0638
16899W        W32793   8.815   3.464  11.531 -0.1556  0.1518 -0.2343
16900W        W32794   4.352  13.466   2.884 -0.1953 -0.0669  0.3417
16901W        W32795   3.734   5.505   4.671 -0.2213  0.0473 -0.0544
16902W        W32796  18.423   8.272   5.157 -0.2647 -0.0507  0.0641
16903W        W32797   9.864   7.436  14.026  0.2751  0.0254 -0.2788
16904W        W32798   2.069  15.080  14.989 -0.0419  0.2929 -0.2362
16905W        W32799  10.024   9.488   0.547 -0.0639  0.3072  0.0390
16906W        W32800  11.851   4.877  13.931 -0.2730 -0.2221  0.1043
16907W        W32801  13.312   8.653  12.582  0.0089 -0.0230 -0.2638
16908W        W32802  11.330   4.672  14.751 -0.2530  0.1204 -0.3761
16909W        W32803   4.285   6.512   3.765  0.3365  0.1431  0.3524
16910W        W32804   4.081   2.802  13.716 -0.4524  0.1273 -0.1938
16911W        W32805   5.577  10.333   4.580 -0.3307  0.1455 -0.0017
16912W        W32806  17.062   6.965   3.950  0.0269 -0.0685 -0.0049
16913W        W32807   0.265  13.050  12.062  0.5544 -0.0362 -0.1981
16914W        W32808   4.894  11.378  11.027 -0.0344 -0.1562 -0.3729
16915W        W32809  13.387   0.620  14.930 -0.1924  0.2208  0.1662
16916W        W32810   0.146  16.929  14.870 -0.2627  0.0479 -0.2639
16917W        W32811   5.346  12.201   3.450  0.3059 -0.0082 -0.0542
16918W        W32812   2.066   2.959   3.901  0.5276  0.1988  0.1804
16919W        W32813   3.168  19.119   3.219 -0.0842  0.0585  0.0552
16920W        W32814  17.764  12.199   9.333 -0.0851  0.2619  0.1088
16921W        W32815   6.151   2.310   4.164 -0.2488  0.1965  0.2756
16922W        W32816   3.130  17.755  14.077  0.1580 -0.1674  0.0912
16923W        W32817  10.181   0.946  14.338  0.2100 -0.1982  0.1247
16924W        W32818   3.300  13.029  12.466 -0.0904  0.0339  0.1208
16925W        W32819  10.318   0.182  14.596  0.0071  0.1009 -0.2151
16926W        W32820  12.168  11.181  11.595  0.1758 -0.0201 -0.1747
16927W        W32821   0.566   2.687   1.712 -0.3159  0.2425  0.0291
16928W        W32822   6.974  13.272  12.247  0.4476 -0.0095  0.1486
16929W        W32823   0.750  16.354   2.877 -0.0322  0.2546 -0.0159
16930W        W32824  17.200  18.847  14.551 -0.0034 -0.0956  0.0401
16931W        W32825  15.609  16.419  14.187 -0.1095  0.3617  0.0965
16932W        W32826   7.534  15.908  14.234  0.0106 -0.2628  0.1130
16933W        W32827  17.414   3.475  12.941  0.2721 -0.0770 -0.2495
16934W        W32828   3.256   8.776  11.739  0.6040  0.2785 -0.1456
16935W        W32829  14.991   6.314  14.226 -0.0146  0.1192  0.0792
16936W        W32830  18.212   1.159  13.571  0.5881  0.1420  0.1658
16937W        W32831  11.184   6.945   2.814 -0.1473 -0.6835  0.5005
16938W        W32832  13.299  13.805   4.633  0.0814 -0.2623 -0.5190
16939W        W32833   5.197   0.541   2.872 -0.2004 -0.2496  0.1973
16940W        W32834  10.913   5.865  13.212 -0.1650  0.2998 -0.0189
16941W        W32835   1.142  13.651   5.413 -0.1864 -0.2008 -0.0221
16942W        W32836   8.964  16.249   4.098 -0.1155  0.0760 -0.1701
16943W        W32837  15.687  13.409  12.158 -0.0271 -0.1387  0.3155
16944W        W32838  13.361   1.721  12.897  0.0681  0.0640 -0.1934
16945W        W32839  10.414  13.810  11.637 -0.0082 -0.0429  0.2183
16946W        W32840  15.304   9.850   3.059 -0.0764  0.1789  0.0161
16947W        W32841  10.036   4.563   3.293  0.2312  0.4353 -0.0435
16948W        W32842  18.211   1.557  14.576 -0.0438  0.1511  0.0445
16949W        W32843  18.023  13.784   1.055  0.0050 -0.1530  0.0381
16950W        W32844   9.295  14.683   0.167 -0.0046 -0.2580 -0.1765
16951W        W32845  18.316  13.056   0.330 -0.3087 -0.2379  0.4897
16952W        W32846  17.149  17.475   2.919  0.3019  0.0926 -0.2740
16953W        W32847  16.453   2.193  13.523 -0.0962  0.1052  0.0011
16954W        W32848   2.547   9.029   3.017  0.0224 -0.1758  0.4361
16955W        W32849  18.073   9.378   1.773 -0.0701 -0.0323  0.2254
16956W        W32850  15.028   4.454  13.818 -0.1256 -0.0057 -0.0464
16957W        W32851  17.202   1.474  14.340  0.4002  0.3344  0.0545
16958W        W32852   9.372   8.657  11.692  0.0764  0.1264  0.2038
16959W        W32853  10.972  17.382  12.951  0.0037  0.2562  0.1030
16960W        W32854   2.834   5.808   4.485 -0.2188  0.2351  0.0842
16961W        W32855  12.097   9.356  11.590  0.0527 -0.0957  0.0232
16962W        W32856  10.516   6.239  12.642 -0.1115 -0.1749  0.0935
16963W        W32857  17.167   6.577   2.705  0.1866  0.3305  0.0315
16964W        W32858  10.166   7.754   2.004  0.1128  0.2853  0.2054
16965W        W32859  11.278  15.462   0.961  0.2595  0.0769 -0.1310
16966W        W32860  10.584  11.817  11.863  0.0158 -0.1124 -0.0022
16967W        W32861   5.312  18.555   4.674  0.0792  0.4119  0.2972
16968W        W32862  16.576  12.002   4.594  0.0265  0.1401 -0.1897
16969W        W32863   5.390   5.418  14.407 -0.2869  0.2096 -0.0326
16970W        W32864  12.376   2.764   2.677  0.2450 -0.5010  0.0025
16971W        W32865   6.366  10.543  10.988 -0.0300  0.1060  0.3126
16972W        W32866  17.042   5.167   2.437  0.0029  0.1641 -0.1386
16973W        W32867   9.548   8.653  13.370  0.1780 -0.0382 -0.0065
16974W        W32868   6.254  17.651  12.275  0.0798  0.0446 -0.0787
16975W        W32869  11.771   5.133  11.481  0.1648  0.1619 -0.3788
16976W        W32870  16.104  10.382  14.513  0.1040  0.0241 -0.0675
16977W        W32871  14.384   3.060  14.951  0.1453  0.0286  0.1591
16978W        W32872   0.735   1.688  10.489  0.1507  0.0979  0.1353
16979W        W32873   4.148   0.263  14.911  0.0068 -0.0939 -0.1191
16980W        W32874   6.432  11.921  11.257  0.1913  0.0397  0.0912
16981W        W32875   5.537   9.577   1.086 -0.1839 -0.0174  0.0645
16982W        W32876   9.602  10.096   3.083 -0.1325 -0.2175 -0.0590
16983W        W32877   7.560   8.612  11.679  0.1640 -0.0818  0.1713
16984W        W32878  13.977  19.022   2.310  0.0321 -0.1736  0.1669
16985W        W32879   2.672  19.217   3.521  0.0041 -0.0433 -0.2249
16986W        W32880  14.422   0.813  12.615  0.0106  0.0224 -0.2908
16987W        W32881   1.085   3.331   5.126  0.0972 -0.0733 -0.1277
16988W        W32882   8.733   0.077   1.012  0.0436  0.1856  0.1850
16989W        W32883  16.953  14.941   4.771 -0.0026 -0.4286 -0.1544
16990W        W32884   1.505  17.852   9.862  0.1110 -0.0216  0.2040
16991W        W32885   9.292  10.212   3.581 -0.1981 -0.0857 -0.0416
16992W        W32886  12.265   9.200   4.642  0.0979  0.1694  0.0644
16993W        W32887   0.531   9.708  13.159  0.1977  0.1530  0.0806
16994W        W32888  12.205  14.413   2.834  0.0027  0.2413 -0.0992
16995W        W32889  13.018  14.355  14.863  0.1117 -0.1685  0.0031
16996W        W32890   4.043   7.982  13.411 -0.3887 -0.1211 -0.3573
16997W        W32891  16.297  15.861  12.408  0.2649  0.2462  0.0463
16998W        W32892  15.250  15.683   4.804  0.1453  0.0727  0.1139
16999W        W32893   3.035  17.727   0.364  0.0589 -0.0206 -0.1947
17000W        W32894  12.898   4.628  11.464 -0.5904 -0.0435  0.3091
17001W        W32895  17.078   2.624   1.337 -0.0176  0.0450  0.1243
17002W        W32896  11.663   0.380   9.265  0.0430  0.3982 -0.0955
17003W        W32897   4.467  10.467   2.943 -0.0290 -0.1110  0.2718
17004W        W32898   8.234   7.360   1.546 -0.2539  0.2405 -0.0893
17005W        W32899   1.307  17.041   1.313 -0.0009  0.0265 -0.2519
17006W        W32900  16.459  14.031   2.533 -0.2163 -0.1230 -0.0946
17007W        W32901   5.535   0.206   3.616 -0.0546  0.1204 -0.1246
17008W        W32902  17.979   9.480  10.741  0.4226 -0.1924 -0.2167
17009W        W32903   3.745   8.351  13.703 -0.3823 -0.1607 -0.1352
17010W        W32904   0.669  10.033  14.151 -0.0785  0.0134 -0.0405
17011W        W32905  14.309   8.828  13.872 -0.0722 -0.0500  0.1477
17012W        W32906   2.000  12.315  14.736  0.2325 -0.3264  0.0219
17013W        W32907  10.286  12.369  10.500  0.0726  0.5092 -0.1216
17014W        W32908   4.104   1.254   0.722 -0.0497  0.0621 -0.0838
17015W        W32909  13.705   1.485   2.520 -0.0235 -0.0996  0.3564
17016W        W32910  18.334  11.085   2.033 -0.0936  0.1608 -0.0473
17017W        W32911  13.627   3.443  11.225 -0.3756  0.0296  0.0469
17018W        W32912  17.969  10.726   4.502 -0.2934 -0.0467 -0.0069
17019W        W32913   2.328   6.639   3.351 -0.0442  0.1173  0.2065
17020W        W32914   8.572  16.475   4.626  0.0198  0.0970  0.1718
17021W        W32915  17.214   8.659  14.549  0.1045  0.1480  0.0596
17022W        W32916  14.473   0.039   1.125 -0.4708  0.0626 -0.0970
17023W        W32917  15.958  13.423   0.521  0.1384  0.1550 -0.3035
17024W        W32918   2.491   8.647   0.989  0.3931 -0.0290 -0.0964
17025W        W32919   4.975   6.289   4.641 -0.0852 -0.0596  0.0596
17026W        W32920  19.221  13.645  13.421 -0.2675  0.2367 -0.2547
17027W        W32921   1.604   6.024  12.088  0.1181 -0.2212  0.2196
17028W        W32922  12.812  12.473   5.378 -0.1284  0.2014 -0.2152
17029W        W32923  10.052  15.459   1.624 -0.2275 -0.2017 -0.1233
17030W        W32924  16.168  18.634   1.411  0.1208 -0.0838 -0.1166
17031W        W32925   9.308  16.264  11.648 -0.0757 -0.0291  0.1913
17032W        W32926  15.118   1.285   2.825 -0.0891  0.1320 -0.0876
17033W        W32927  10.857   7.939   4.704 -0.0786  0.1865  0.2605
17034W        W32928   8.225  15.001   1.816 -0.2160  0.2132 -0.0649
17035W        W32929   9.836   9.489  11.759 -0.2565 -0.2506 -0.4662
17036W        W32930   0.729   0.102  12.416 -0.0772 -0.1085 -0.1409
17037W        W32931   5.516   1.688   4.628  0.2591  0.1265 -0.2932
17038W        W32932   7.929  19.137   1.333 -0.0189 -0.3550 -0.5424
17039W        W32933   9.041   8.719  12.050 -0.3281  0.0390 -0.4118
17040W        W32934  19.131  10.307  12.715 -0.0235  0.4591  0.3542
17041W        W32935   4.128  15.198  14.243  0.1715 -0.1161 -0.4071
17042W        W32936   9.208  17.626   4.424  0.3855  0.0159  0.0497
17043W        W32937   4.438   5.160   0.311 -0.0839 -0.2226 -0.0344
17044W        W32938  11.588   3.098   5.624  0.0963  0.0380  0.1300
17045W        W32939   9.392   0.531  11.126 -0.0296 -0.0832  0.1080
17046W        W32940  17.709  10.485  12.109  0.2210 -0.0553  0.0251
17047W        W32941  14.389  16.774   9.545  0.1045  0.4571  0.0273
17048W        W32942  16.652   1.085   1.945  0.1660 -0.0209 -0.2714
17049W        W32943   1.311   8.066   4.094 -0.1284  0.0458  0.0222
17050W        W32944  12.501  17.706  14.566 -0.1662  0.1436 -0.1513
17051W        W32945   0.406   5.516   3.402  0.0641  0.0056  0.1763
17052W        W32946   3.137  12.031   1.206  0.0440 -0.4194 -0.0955
17053W        W32947  18.546   9.186  11.375 -0.0101  0.1454 -0.1268
17054W        W32948   6.958  18.222   2.242  0.2122  0.0540  0.1281
17055W        W32949  16.799   4.646   2.957  0.0841 -0.1280  0.1217
17056W        W32950   9.598   4.546   3.882  0.0515  0.0400  0.0820
17057W        W32951   0.547  14.575   0.649 -0.2544 -0.1121 -0.1937
17058W        W32952   9.644   9.966   1.250  0.0234  0.3206  0.1746
17059W        W32953  12.850  12.068  12.969  0.2241 -0.3304  0.0915
17060W        W32954  14.548  15.532  13.043 -0.0525 -0.2818 -0.0779
17061W        W32955   6.487  15.320  12.457  0.2321  0.3799 -0.1188
17062W        W32956  16.829   7.926   0.042  0.1700 -0.1552  0.2938
17063W        W32957   0.349   4.337  11.863  0.1699  0.0415 -0.2034
17064W        W32958   0.207  14.278  11.542  0.1146  0.1165  0.0834
17065W        W32959  14.061   8.561   4.662 -0.2201 -0.3246 -0.0882
17066W        W32960   0.427  13.210  14.188  0.3193 -0.0643 -0.2271
17067W        W32961  10.972   4.608  14.399 -0.4582 -0.0426 -0.4218
17068W        W32962   6.385  17.397  14.035  0.0298  0.3030  0.1002
17069W        W32963  17.840  13.667   2.175 -0.0725 -0.1719  0.1406
17070W        W32964  14.096  14.483  12.264 -0.2684  0.1635  0.1747
17071W        W32965   4.000  17.150  14.406  0.0887  0.0491  0.2605
17072W        W32966   5.200   9.137   0.161 -0.0430  0.2916 -0.1629
17073W        W32967   3.695  16.686  12.974 -0.1099 -0.4742 -0.0081
17074W        W32968  13.528  10.007  11.224  0.0994 -0.0399 -0.0692
17075W        W32969   9.323   2.952  10.806  0.2647  0.1891 -0.0078
17076W        W32970  15.456   6.997  13.017  0.1671 -0.0568 -0.1331
17077W        W32971   8.475  17.590   1.239  0.0685  0.0862  0.1753
17078W        W32972  19.044   5.668  11.192 -0.0930  0.1785 -0.0107
17079W        W32973   1.755   0.441  13.917 -0.2830 -0.0982  0.0466
17080W        W32974  18.785   1.512   2.199 -0.1163  0.1016 -0.0067
17081W        W32975  17.559   8.107   3.350 -0.2297 -0.0954 -0.0002
17082W        W32976  18.064   5.263   4.943  0.3026 -0.0513 -0.0303
17083W        W32977  12.130  14.059  13.087 -0.0396 -0.2610 -0.1598
17084W        W32978  18.442   3.464   0.188 -0.1643  0.2114 -0.1949
17085W        W32979  13.593   6.635   3.599 -0.0073 -0.0809 -0.1652
17086W        W32980   4.280   8.933   1.246  0.0596  0.0443 -0.0502
17087W        W32981   0.930  12.379  13.441 -0.1726 -0.0309 -0.1594
17088W        W32982   6.222  10.989   5.386 -0.0139  0.1372 -0.0427
17089W        W32983   8.287  12.561  12.508 -0.4894 -0.2524 -0.1412
17090W        W32984  18.384   8.684   0.592 -0.0552 -0.1124 -0.4113
17091W        W32985   9.005   1.189   1.633  0.0031 -0.0885 -0.2853
17092W        W32986  17.263   7.841  11.377 -0.3724  0.1148 -0.2139
17093W        W32987  14.075   2.713   2.766  0.2778  0.1465 -0.0143
17094W        W32988   1.735   5.099   0.200  0.0096  0.1543 -0.2779
17095W        W32989   5.532  19.170   1.707 -0.0646 -0.0983 -0.0519
17096W        W32990   7.127   7.939   2.782  0.2773 -0.1435  0.2429
17097W        W32991  13.527  15.384   3.682  0.0523  0.0974 -0.0809
17098W        W32992   2.934  18.549  11.533  0.2422  0.1242  0.0044
17099W        W32993  10.465   1.426   3.916 -0.0988  0.3454 -0.1907
17100W        W32994  17.300  14.944  12.287 -0.1962  0.1407  0.1605
17101W        W32995   1.434  18.585   3.045 -0.1254  0.1528  0.5073
17102W        W32996  10.116  14.074   4.618  0.2855  0.1238 -0.0330
17103W        W32997   4.189   4.798  14.222 -0.3031 -0.1545 -0.2517
17104W        W32998  10.942   7.461   4.579 -0.1060 -0.0556  0.0602
17105W        W32999  17.437  11.661   2.897 -0.2436  0.0609  0.1764
17106W        W33000  13.200   9.236   3.677  0.0301 -0.2556  0.3074
17107W        W33001   2.636   0.822  14.841 -0.0654 -0.1854 -0.1112
17108W        W33002  13.937  11.540  12.013 -0.1924 -0.1047  0.1311
17109W        W33003   1.426   9.846   2.796 -0.0469 -0.1618  0.1064
17110W        W33004  10.980  16.616   3.078 -0.2097  0.1213 -0.2041
17111W        W33005  10.212  12.069   1.703  0.0024 -0.5271  0.3040
17112W        W33006   6.814   0.016  11.246  0.4523  0.0680  0.0364
17113W        W33007  17.158   6.823  12.161  0.1494  0.0288 -0.3012
17114W        W33008   7.275   4.613   4.751 -0.2396  0.2473 -0.0771
17115W        W33009   7.868   7.801  10.605  0.1526  0.1684 -0.2242
17116W        W33010  17.608   7.416  11.087  0.0428  0.0951  0.2377
17117W        W33011  11.767  11.830   9.963  0.1201  0.4253 -0.1883
17118W        W33012  12.606  18.692  11.064 -0.2602  0.1604 -0.2368
17119W        W33013  11.987   5.224   4.289 -0.2899  0.0336  0.2339
17120W        W33014  17.873   1.723  10.537  0.2211  0.1491  0.1827
17121W        W33015  11.278  14.901   1.097 -0.0363 -0.0715 -0.0437
17122W        W33016   1.442  18.079   2.791  0.1271 -0.1898  0.1346
17123W        W33017  15.496  11.619  14.581  0.0967  0.1638 -0.0812
17124W        W33018   5.242  17.292  13.131  0.0004  0.0693  0.2398
17125W        W33019   7.511   4.332   4.351 -0.1737 -0.0040 -0.2622
17126W        W33020   3.061   3.986   2.285 -0.0254  0.0266  0.0061
17127W        W33021   6.542  16.545  11.184  0.0914  0.0730 -0.0623
17128W        W33022  11.948   3.821   4.147  0.3026 -0.1518  0.1601
17129W        W33023   4.727   7.694  12.370 -0.3789  0.0483 -0.0375
17130W        W33024   6.454  10.538  12.886  0.3686 -0.1016  0.1762
17131W        W33025   9.973  15.116  12.887 -0.1249  0.0365 -0.4062
17132W        W33026   7.395   4.556  13.590 -0.0429 -0.1021  0.2140
17133W        W33027   2.833  17.640  13.634  0.2359  0.1875  0.1385
17134W        W33028  13.153  17.073  11.271 -0.2424 -0.0221 -0.0334
17135W        W33029  15.440  11.815  12.171  0.0655 -0.4513  0.0380
17136W        W33030   3.314   4.073   1.861  0.0417 -0.1197  0.2399
17137W        W33031  18.161   9.396   2.273 -0.0361  0.0840 -0.0007
17138W        W33032   7.629  10.417  14.050  0.2260 -0.1288 -0.3823
17139W        W33033   9.365   3.996  11.985  0.0435 -0.0785  0.1807
17140W        W33034   0.095   3.048   1.608  0.4205 -0.3271  0.1052
17141W        W33035   9.480  14.366   0.525  0.3037 -0.1948  0.2782
17142W        W33036  13.252  16.192   1.863 -0.2705 -0.0211 -0.0141
17143W        W33037   0.751  17.561   3.430 -0.1271  0.3572  0.3147
17144W        W33038  13.399   5.970   1.542  0.1932  0.1912  0.0202
17145W        W33039  18.753   5.165  14.679  0.1639  0.1061 -0.1901
17146W        W33040  11.513  14.388  11.504  0.1461 -0.0539 -0.0179
17147W        W33041   3.599  17.864  13.982 -0.0484  0.1061 -0.2475
17148W        W33042  10.236  19.060  11.721  0.0815 -0.0019  0.1206
17149W        W33043   4.073  14.534  11.479  0.2104 -0.0937  0.0091
17150W        W33044   2.425   3.053   2.814  0.1383 -0.0091 -0.1252
17151W        W33045   6.445   7.959   5.135  0.1886 -0.1746 -0.0781
17152W        W33046   0.238  10.312   1.797 -0.1903 -0.0875  0.5647
17153W        W33047   5.688   8.376   5.196 -0.1356  0.1909  0.1212
17154W        W33048   4.229  14.706  13.322 -0.4766 -0.1239  0.1908
17155W        W33049   1.585  14.623  11.576 -0.0775  0.0202 -0.0927
17156W        W33050   6.731   4.095   5.816  0.0867 -0.0782  0.0041
17157W        W33051   0.757  17.348  12.916 -0.4723  0.1912 -0.2743
17158W        W33052   7.756   3.615   0.083 -0.0421 -0.1204 -0.1328
17159W        W33053   4.274  16.307  13.477  0.2219  0.2383 -0.2035
17160W        W33054  13.580   5.422   4.122 -0.0603  0.2357 -0.3127
17161W        W33055  12.174  11.350   2.602  0.0391 -0.0824  0.1020
17162W        W33056   3.329   3.615  13.120 -0.0192 -0.1636  0.1822
17163W        W33057   5.467  12.166   2.379  0.1336 -0.1090 -0.0232
17164W        W33058   3.409  18.674   3.874 -0.1776 -0.4285  0.0650
17165W        W33059   7.749  18.893  11.049  0.1376  0.3006 -0.1909
17166W        W33060   7.107   5.855  11.519 -0.3808 -0.0096 -0.1933
17167W        W33061  14.258   6.430  10.755 -0.1397 -0.0367  0.1571
17168W        W33062   5.230  13.590  14.472  0.0882 -0.0287 -0.1441
17169W        W33063  17.378  15.999  11.272 -0.1660 -0.0875  0.0705
17170W        W33064  12.869   5.823   3.496 -0.2828  0.0162  0.0854
17171W        W33065  17.403  12.440  14.854 -0.2712  0.3655 -0.3429
17172W        W33066   1.933  17.263   3.998  0.0509 -0.0865 -0.3560
17173W        W33067  11.613  10.577  10.689  0.1216 -0.0756  0.2225
17174W        W33068   8.281  11.989   1.527  0.2409 -0.0743 -0.1188
17175W        W33069  10.705   5.342  14.867 -0.0097  0.2116  0.1667
17176W        W33070  16.234   2.926   0.165  0.1458 -0.2660 -0.0803
17177W        W33071   4.147   2.003   4.451 -0.1178 -0.0402 -0.3036
17178W        W33072   7.495  10.171  14.454 -0.2074  0.2837  0.3183
17179W        W33073   1.498   4.552   5.257 -0.2954 -0.2069 -0.1206
17180W        W33074  10.410   4.893   3.315  0.0171  0.1363  0.0946
17181W        W33075  16.492   1.772  15.052 -0.3046 -0.0272  0.2094
17182W        W33076  13.970  11.021   2.996 -0.2797 -0.1542  0.1013
17183W        W33077  18.493   1.099  14.483  0.1498  0.0826  0.5127
17184W        W33078  14.912   2.263   3.728  0.0468 -0.2769  0.4138
17185W        W33079   1.252  18.202   4.907 -0.2483 -0.3464  0.2922
17186W        W33080   7.399  12.285   4.028  0.1261 -0.0821  0.3551
17187W        W33081  10.091   3.502  12.315  0.1719 -0.0699 -0.2627
17188W        W33082  12.384   7.641   0.396  0.2596  0.2299 -0.2536
17189W        W33083   5.079  12.954   1.308  0.3175  0.0970 -0.2315
17190W        W33084  12.393   3.822  13.326 -0.2145  0.2217  0.0567
17191W        W33085   5.965   4.882  13.329 -0.0338 -0.1789 -0.1991
17192W        W33086  19.181  12.177   2.957 -0.2164  0.0195 -0.0641
17193W        W33087  13.225  15.511  10.760  0.0162 -0.2243  0.1354
17194W        W33088   2.155   9.752  13.023 -0.1040 -0.2802  0.2283
17195W        W33089   1.273  16.373  10.421  0.2404  0.2220  0.3004
17196W        W33090  14.747   9.679  12.540 -0.2014  0.3035 -0.1988
17197W        W33091  17.545  18.995  13.172 -0.1219  0.0663  0.0811
17198W        W33092   0.641   4.859   5.492  0.0721  0.1815  0.1721
17199W        W33093   4.441  15.929   1.652  0.1909  0.0613  0.2488
17200W        W33094  14.126  10.355  13.145  0.1423  0.1991 -0.0595
17201W        W33095   5.202  15.991  12.523  0.2256  0.0023  0.2976
17202W        W33096  19.086  14.573   4.180 -0.4405  0.4530 -0.3080
17203W        W33097   1.587   3.969  11.236  0.0059  0.1530 -0.1410
17204W        W33098  11.581  18.491  14.473 -0.4031 -0.0293 -0.1650
17205W        W33099   0.373   3.208   1.142 -0.0693 -0.0160 -0.1649
17206W        W33100   3.661  14.020   4.087  0.1747 -0.0528 -0.3811
17207W        W33101  17.917   0.406   2.251  0.0698  0.0704  0.0494
17208W        W33102  16.113  13.482  11.912  0.0428 -0.0845  0.1523
17209W        W33103   7.842  11.308  12.384  0.2732  0.2701 -0.3922
17210W        W33104   1.913  18.455  15.004 -0.1872 -0.3283 -0.0880
17211W        W33105  15.640   6.036   0.435  0.0534  0.2056 -0.0625
17212W        W33106  17.055   5.147  12.913  0.0884 -0.0870 -0.0411
17213W        W33107   8.437   0.338  11.363 -0.3105 -0.3289 -0.3479
17214W        W33108   6.855  11.189   1.203 -0.2863 -0.4535  0.2460
17215W        W33109   6.987   2.300  13.353 -0.2765 -0.1335 -0.1418
17216W        W33110  12.663   4.516   4.572  0.1527 -0.2366 -0.2293
17217W        W33111  12.249   6.021  12.540  0.0363 -0.2328  0.2643
17218W        W33112   4.873   9.240   3.385  0.1374  0.1277 -0.0311
17219W        W33113  18.595   1.005   0.292  0.3084  0.0302 -0.0786
17220W        W33114   3.582   5.872   0.177 -0.0115 -0.1192  0.0251
17221W        W33115   3.780  17.314  14.913 -0.3117  0.0149  0.0145
17222W        W33116   8.132  17.543   4.460  0.1881 -0.3217 -0.3683
17223W        W33117  15.376   2.852  12.949 -0.0716 -0.0052  0.0007
17224W        W33118  16.863  14.254   1.647  0.1244  0.0134 -0.2087
17225W        W33119  17.813   7.515  10.654  0.2929  0.1926  0.3162
17226W        W33120   1.294  18.308   5.627 -0.0433  0.0437  0.1044
17227W        W33121  11.573   1.075  13.683  0.2659 -0.1305  0.0223
17228W        W33122   0.294   1.428   2.509 -0.0703 -0.0860  0.0800
17229W        W33123   7.467   2.765  13.346 -0.0913 -0.0452  0.0655
17230W        W33124   0.532   4.463   4.061 -0.1269  0.0068 -0.2914
17231W        W33125  17.666  16.461  11.275 -0.4028 -0.0591 -0.0500
17232W        W33126   9.047   3.111  11.197 -0.0411  0.0733 -0.4179
17233W        W33127   3.147   6.154  12.338 -0.0146  0.2518 -0.2510
17234W        W33128  10.920   4.381   3.152 -0.5800  0.1459 -0.1731
17235W        W33129   5.090   8.578   4.088 -0.4579  0.0003  0.0394
17236W        W33130  17.889  14.929   3.838 -0.0351 -0.0744 -0.1956
17237W        W33131  17.965   4.711   4.916 -0.1890 -0.1263  0.2317
17238W        W33132  17.873   6.681  12.792 -0.2737 -0.1841 -0.0688
17239W        W33133   4.499  14.098   2.668  0.0556  0.1964  0.0107
17240W        W33134   7.291  18.740   2.767 -0.0078  0.1353 -0.1091
17241W        W33135   1.330  14.388  14.852  0.2058  0.1604 -0.2494
17242W        W33136   8.340  16.278   4.119  0.0138 -0.1218 -0.1490
17243W        W33137   2.960   2.366  10.348  0.0440 -0.1727 -0.1839
17244W        W33138  16.498  10.273  13.929  0.3318 -0.1653 -0.1743
17245W        W33139   6.029   7.618  12.218  0.2327 -0.0130 -0.1290
17246W        W33140  10.134  12.481  13.987 -0.1363 -0.2987 -0.1071
17247W        W33141   2.354   7.743   3.996 -0.1556  0.1739 -0.2853
17248W        W33142  16.770   2.395   4.968 -0.1368  0.2521 -0.0735
17249W        W33143   5.266   4.367   2.783 -0.0462  0.0104  0.4855
17250W        W33144   8.515   7.806  13.942  0.1378  0.1001 -0.2450
17251W        W33145   9.440  15.678   2.795 -0.1732  0.0630  0.4231
17252W        W33146   8.965  14.233   5.234 -0.1181 -0.1154  0.0528
17253W        W33147   3.706  15.453  12.143 -0.0307  0.1065 -0.1608
17254W        W33148  17.681   3.708  13.262  0.2894  0.0438  0.2125
17255W        W33149   9.927  16.467   2.928  0.2653  0.1086 -0.2028
17256W        W33150   2.729   9.351  13.554  0.3649 -0.0738  0.0868
17257W        W33151  15.680  11.186  10.123 -0.0204 -0.1614 -0.1542
17258W        W33152   8.518  15.293   0.796  0.0299  0.0466  0.0213
17259W        W33153  17.735  15.140  12.041  0.0011 -0.1572  0.0619
17260W        W33154  16.847   1.797   1.799 -0.2470 -0.0517  0.2276
17261W        W33155  15.988  17.837  10.636  0.1210  0.4325 -0.4727
17262W        W33156  11.200   2.169   5.385 -0.0361  0.1358 -0.2316
17263W        W33157   9.353   0.309   1.654 -0.0176 -0.1239  0.4366
17264W        W33158  16.895  14.792  11.159 -0.3409  0.2928  0.0075
17265W        W33159   6.101   5.685   0.579  0.0619 -0.3755  0.1029
17266W        W33160  17.834  17.642  14.460 -0.0993  0.3109 -0.1123
17267W        W33161  16.023   5.871   4.639 -0.4597  0.2759 -0.2062
17268W        W33162   0.782  10.853  13.710 -0.0238  0.1436 -0.0779
17269W        W33163   4.794  12.591   2.821  0.1329  0.0461 -0.1771
17270W        W33164  16.019  17.933   2.849 -0.1357 -0.0223  0.0431
17271W        W33165  14.227   7.736   0.001  0.2254 -0.0902 -0.1366
17272W        W33166   9.146   1.107  10.547  0.2272  0.2050 -0.0596
17273W        W33167   8.016   2.903  12.577 -0.1596  0.0928  0.0191
17274W        W33168  19.048  13.465  13.835  0.2718 -0.0954  0.2350
17275W        W33169   7.907  11.975   4.033  0.2495 -0.1581  0.1387
17276W        W33170   2.876   8.249  14.222  0.0983 -0.0176  0.2020
17277W        W33171   1.607   1.201   1.499  0.2390 -0.1818  0.0800
17278W        W33172  19.179  18.449  11.502  0.1525 -0.1507 -0.3472
17279W        W33173  11.839   1.406   9.863  0.0758  0.1969  0.0195
17280W        W33174   0.947   5.874  12.662 -0.3129  0.1816  0.4633
17281W        W33175   1.624  13.420  14.234  0.2185 -0.0535  0.0219
17282W        W33176  18.802  12.710   0.877  0.0650  0.3058 -0.1102
17283W        W33177  10.660  19.095   1.139 -0.2293 -0.1126 -0.1005
17284W        W33178   5.689   4.200  11.824  0.0992 -0.4185 -0.1288
17285W        W33179   1.995   8.390   0.745  0.1249 -0.2432  0.2235
17286W        W33180  17.197  11.923   2.479 -0.0477  0.2351 -0.1925
17287W        W33181  12.498   1.964  13.313  0.1460  0.2362 -0.4174
17288W        W33182  14.976   9.018  14.920 -0.1540  0.0106 -0.0931
17289W        W33183   2.863  15.085   5.301 -0.2612  0.0148  0.0465
17290W        W33184   5.661  10.183  14.617  0.1336  0.1231 -0.1235
17291W        W33185  19.125   4.780  10.957 -0.2725  0.2515  0.2717
17292W        W33186   6.858  15.659  14.809  0.1101 -0.0760  0.1826
17293W        W33187  18.264   1.623   2.045  0.0421 -0.2500 -0.3471
17294W        W33188   6.547  18.172   2.643 -0.3286 -0.1260 -0.1973
17295W        W33189   7.327   5.874   0.954 -0.0692 -0.0063 -0.1253
17296W        W33190   5.143  15.223   3.138  0.0971  0.1859 -0.1093
17297W        W33191   6.832  19.210   2.927 -0.1224 -0.2588  0.2230
17298W        W33192   8.122  14.463   4.403 -0.0434  0.4400  0.0203
17299W        W33193   0.845  12.349   1.276  0.2619 -0.2069 -0.2789
17300W        W33194   2.203   2.785   4.782 -0.0205 -0.2792 -0.0320
17301W        W33195  17.350  19.083   0.831  0.2062  0.2655  0.3195
17302W        W33196  16.858  14.862  12.795 -0.1577  0.1514  0.1371
17303W        W33197  16.198   1.690  13.502 -0.1381 -0.1090 -0.1984
17304W        W33198   8.241  17.046   2.470 -0.0958  0.2754  0.0630
17305W        W33199   4.145   7.751   3.302  0.0739 -0.0869  0.2602
17306W        W33200  14.809  19.221  13.314 -0.3666  0.2218  0.0691
17307W        W33201  12.034   4.140   5.203 -0.2353  0.0139 -0.2035
17308W        W33202  13.755   1.311   0.371 -0.1183  0.0354  0.1345
17309W        W33203  13.671  18.499  10.220 -0.1770 -0.2837  0.0792
17310W        W33204   5.803  15.621   0.873  0.2707 -0.0459  0.1130
17311W        W33205   6.023  17.305   1.965  0.0772  0.2585 -0.2638
17312W        W33206   7.387   5.658  11.865  0.2349  0.1288 -0.0627
17313W        W33207   9.972  17.328  14.327 -0.3586  0.1273  0.1641
17314W        W33208   0.753  12.238  14.395  0.1681  0.2850  0.2910
17315W        W33209   8.151  16.381  12.112  0.2813  0.2037  0.0363
17316W        W33210  15.921  17.312   1.047 -0.1553 -0.3130 -0.0634
17317W        W33211   0.929   9.263  13.993 -0.0440 -0.1184 -0.1515
17318W        W33212   7.836  17.002   0.860  0.0298 -0.1736 -0.1549
17319W        W33213  15.494   2.206  11.888  0.0481 -0.1962  0.0177
17320W        W33214  14.306   3.903  14.334  0.1818 -0.1889  0.1484
17321W        W33215  10.918   4.173   4.303 -0.0474 -0.0988 -0.0809
17322W        W33216  12.932   1.614  12.218  0.0025  0.0386 -0.0870
17323W        W33217  14.274  12.790  11.669 -0.0987 -0.0280 -0.0724
17324W        W33218  15.429   6.207   1.752  0.0689 -0.1115  0.0112
17325W        W33219   5.491   1.610  12.131 -0.0863 -0.0855 -0.0470
17326W        W33220   8.787  12.085   3.689 -0.0185  0.2106  0.1017
17327W        W33221  14.869   8.336   0.513  0.0947  0.5584  0.4482
17328W        W33222  16.761   3.276   4.512 -0.0624 -0.1779 -0.1985
17329W        W33223   7.154   8.709   3.335 -0.2887  0.2244 -0.1010
17330W        W33224   6.881   7.570  13.430 -0.2022  0.0091 -0.1798
17331W        W33225  15.646  13.166  11.176  0.1967  0.2758 -0.0615
17332W        W33226   6.317  17.450   3.232  0.1235  0.0009 -0.3670
17333W        W33227  17.966   0.629   3.458 -0.2528 -0.0390 -0.1958
17334W        W33228  12.988   0.275  11.412  0.0976  0.0389 -0.0454
17335W        W33229   2.022   7.540  13.032 -0.0427 -0.0404  0.0919
17336W        W33230  14.155   5.350  12.008  0.0962  0.0359 -0.0077
17337W        W33231   8.562   6.575   2.611 -0.0435 -0.1350 -0.1745
17338W        W33232   6.120   8.238   4.299 -0.1731 -0.2245  0.0207
17339W        W33233   5.081  13.823  13.586  0.0298  0.1551 -0.2116
17340W        W33234  13.776   1.747   0.037 -0.1044 -0.0839  0.0749
17341W        W33235   9.965  12.373  14.517 -0.1355  0.0315 -0.1280
17342W        W33236   9.598   0.341   0.163  0.2059 -0.0257 -0.4596
17343W        W33237  12.070  12.289  10.921 -0.1977  0.2972  0.0678
17344W        W33238  14.054  17.188  10.227 -0.0479 -0.1359 -0.3492
17345W        W33239   7.971  14.494  14.962  0.2203  0.4579 -0.1340
17346W        W33240   9.558   0.946  13.606  0.2817  0.1472  0.0847
17347W        W33241  16.319  15.546  10.688 -0.0668 -0.2294 -0.1561
17348W        W33242   8.193   1.917  12.543  0.1219 -0.4142  0.0314
17349W        W33243   8.980   9.744   0.245 -0.0659  0.0748 -0.0884
17350W        W33244  14.664  17.222   1.020 -0.0778 -0.3004 -0.1597
17351W        W33245  11.118   7.878  12.606 -0.0909 -0.1332 -0.0146
17352W        W33246   1.458   8.629   5.593 -0.0840 -0.0171 -0.2753
17353W        W33247  17.286   9.773  11.840 -0.1165  0.3972  0.1418
17354W        W33248   8.701   2.130  11.037  0.1162 -0.0159  0.4134
17355W        W33249   8.413  14.762  10.613 -0.3447 -0.3413  0.0253
17356W        W33250   7.569  11.018  13.251  0.0214  0.3542  0.1103
17357W        W33251  12.470   0.575  14.546 -0.0216 -0.2108 -0.1404
17358W        W33252   2.039  18.257   2.712  0.0028  0.0716  0.1352
17359W        W33253   7.275  16.881  12.255 -0.0712  0.1625  0.1096
17360W        W33254   5.774   1.634   1.424 -0.0663 -0.0035  0.1018
17361W        W33255   8.190   5.749   3.330  0.1797  0.1643 -0.0687
17362W        W33256   3.879   0.882   3.739  0.0514  0.0024  0.1688
17363W        W33257   5.924  16.086   4.146  0.0131  0.1377  0.4534
17364W        W33258  10.127   1.162   3.099 -0.0279 -0.0571 -0.0138
17365W        W33259   5.403   5.559  13.690  0.0002  0.0974 -0.1495
17366W        W33260   1.054  18.393  11.729 -0.2105  0.1159 -0.1647
17367W        W33261   3.685   4.150   5.244 -0.3589 -0.2275 -0.1005
17368W        W33262  11.682  11.176  11.697  0.2260  0.0034 -0.0646
17369W        W33263   8.539   0.490   4.462  0.0387 -0.1283  0.4063
17370W        W33264  12.919  14.987   1.753 -0.0870  0.0280  0.2360
17371W        W33265   0.862   6.636  11.020  0.2219  0.1633 -0.0543
17372W        W33266   8.042  11.752  10.014 -0.0146 -0.1499  0.0354
17373W        W33267   7.259   8.773   1.832 -0.0710 -0.0884 -0.0183
17374W        W33268  14.772  13.335  11.528 -0.0456  0.1183  0.0292
17375W        W33269   4.648  16.551  14.015 -0.1910 -0.0908 -0.2336
17376W        W33270   6.256  17.418  10.564 -0.1727 -0.0916 -0.0005
17377W        W33271  14.598   6.747  13.285 -0.0117  0.0345 -0.1434
17378W        W33272   6.561   7.443  13.821  0.1356  0.2464  0.2404
17379W        W33273  10.377  12.089  13.841  0.0999  0.0916  0.0848
17380W        W33274   7.568  12.730   2.206 -0.1649 -0.5343 -0.1550
17381W        W33275   9.817   6.753  13.680  0.0691 -0.2280 -0.4658
17382W        W33276   3.667  15.312  10.224  0.1824 -0.0555 -0.0795
17383W        W33277   1.287   9.938  13.886 -0.0182 -0.0079  0.1037
17384W        W33278  15.422   5.105  12.179 -0.3650 -0.0475  0.3289
17385W        W33279   2.286  11.172   1.896 -0.1582  0.0779 -0.1658
17386W        W33280   6.360  18.037  14.231 -0.0289 -0.3177 -0.2920
17387W        W33281  11.487  13.849  12.358 -0.0304  0.3767 -0.3014
17388W        W33282   1.769   0.926   4.256  0.4058  0.3581  0.1220
17389W        W33283   1.156  12.906   4.875  0.0204  0.1514  0.1804
17390W        W33284   3.230  10.202   9.615  0.1056  0.0722 -0.0519
17391W        W33285   4.489   8.170   2.846 -0.1463 -0.0715  0.1955
17392W        W33286  15.291  11.844  12.687  0.2059 -0.0919  0.1182
17393W        W33287   9.437  11.594  10.372  0.0986  0.2134  0.2967
17394W        W33288  10.194   4.847   9.831 -0.0207  0.0157 -0.1499
17395W        W33289  18.916  13.838  10.109 -0.1264 -0.1100 -0.1582
17396W        W33290  12.845   5.690  12.014 -0.2475  0.2614 -0.1500
17397W        W33291   1.399   9.969  11.151 -0.0263  0.0427 -0.0550
17398W        W33292  13.587  10.490  11.413  0.0177 -0.0875  0.3317
17399W        W33293   2.600  16.448   0.996  0.0317 -0.1032  0.0529
17400W        W33294   4.253   2.507   3.009  0.1645 -0.1133  0.4022
17401W        W33295   8.254  13.907  11.031 -0.1263 -0.2515  0.1480
17402W        W33296  10.535  17.456  12.639 -0.0899  0.4436 -0.4016
17403W        W33297   0.291   9.486  12.330 -0.0427  0.1931 -0.1871
17404W        W33298  13.726  13.743  12.613  0.0609 -0.0524 -0.1652
17405W        W33299   3.305  13.443  12.082  0.2404  0.2303 -0.2977
17406W        W33300  15.770  16.032   1.067 -0.0357 -0.1660  0.0624
17407W        W33301  15.937  10.807  14.326  0.0650 -0.0795 -0.0641
17408W        W33302  13.043  15.088  11.004 -0.3083  0.0515  0.0483
17409W        W33303  15.162  17.759   2.675  0.0732  0.1625 -0.1614
17410W        W33304  15.565   6.736   1.151 -0.0934 -0.1249  0.1170
17411W        W33305  13.807  10.079   2.700 -0.0948  0.0403  0.0475
17412W        W33306   5.496  12.687   4.218  0.2247  0.0807  0.2266
17413W        W33307   3.728  12.028  11.114 -0.3804  0.1856  0.1011
17414W        W33308   0.193  14.068  13.144 -0.2914  0.1651  0.1284
17415W        W33309  13.286   7.405  11.207  0.1427 -0.1492  0.2391
17416W        W33310  13.893  10.872  11.319  0.2696 -0.1984  0.1598
17417W        W33311   3.148   8.539   0.002 -0.1707 -0.3205  0.4134
17418W        W33312  18.958  12.586   3.183  0.0691  0.2724  0.0249
17419W        W33313   8.792  11.334  10.844  0.2279 -0.0149 -0.0688
17420W        W33314   0.726   5.826  14.469  0.3290 -0.1629  0.0179
17421W        W33315   8.543   7.689   0.144  0.4458  0.0858  0.3032
17422W        W33316   1.455  18.530   3.551 -0.2977  0.0480  0.1610
17423W        W33317  13.405  17.765   1.296 -0.0031 -0.2929 -0.0019
17424W        W33318  11.695   5.959   2.600 -0.4971  0.0570 -0.0053
17425W        W33319  17.367  10.732  12.589  0.1157  0.0340  0.1200
17426W        W33320   5.696  16.069   5.160  0.0967 -0.0569  0.1432
17427W        W33321   3.729  13.657  10.627 -0.3192  0.0209 -0.0870
17428W        W33322  10.215  10.876  13.037  0.0102  0.1470 -0.1417
17429W        W33323  14.290   2.636   4.913 -0.0962  0.1597 -0.1251
17430W        W33324  16.782  17.172   0.553  0.1090 -0.0182 -0.0386
17431W        W33325   3.837  15.511   1.284  0.1382 -0.2327  0.1749
17432W        W33326  14.825   3.549  13.580  0.2377  0.0100 -0.2310
17433W        W33327  12.539   2.973   0.491 -0.0001  0.0361  0.0363
17434W        W33328   9.174  14.376  14.866  0.0150 -0.0690  0.0631
17435W        W33329   8.684  15.889  11.441 -0.3751 -0.4342  0.0536
17436W        W33330  12.532   9.072   3.748 -0.0112 -0.1006 -0.0570
17437W        W33331   2.157  18.992   3.555 -0.0557  0.3220  0.1420
17438W        W33332   0.580  10.837   1.926 -0.0831  0.1882 -0.2598
17439W        W33333   2.257  12.900  14.146  0.1703  0.4167 -0.1032
17440W        W33334  15.776  15.484  15.104 -0.1709  0.0056 -0.0432
17441W        W33335  18.432  10.229   1.455 -0.1169  0.0316 -0.1348
17442W        W33336   3.848   6.034  11.632  0.1720 -0.4537  0.2820
17443W        W33337   7.258  10.647   4.748 -0.2695 -0.0358  0.0498
17444W        W33338   2.679  15.486  12.013  0.3981 -0.4103 -0.0048
17445W        W33339  13.111  10.023   2.074 -0.1817 -0.0412 -0.3441
17446W        W33340  17.333  16.496  10.877 -0.3773 -0.2634  0.3624
17447W        W33341   8.257   8.707   4.588  0.1656 -0.0910 -0.0765
17448W        W33342  15.728   9.964  14.354 -0.0831 -0.2071  0.0587
17449W        W33343   9.293   2.573  13.318 -0.1442 -0.0457  0.1203
17450W        W33344   6.181  14.773  14.825 -0.2511 -0.1183  0.4095
17451W        W33345  11.365   2.811  11.340  0.0252  0.0300 -0.0587
17452W        W33346  15.452   8.790  14.891 -0.1393 -0.2511  0.1302
17453W        W33347   3.884   7.126  10.796 -0.0140 -0.1430 -0.1849
17454W        W33348   0.550   6.017   4.496 -0.0356 -0.0544  0.0615
17455W        W33349   2.207   6.888   2.272  0.2143  0.1306 -0.4462
17456W        W33350  17.640   4.518  14.720  0.0951  0.1184  0.0615
17457W        W33351   7.703   3.488  14.393 -0.3308 -0.2253  0.1237
17458W        W33352   7.495  10.466   2.466 -0.1075  0.0919  0.0839
17459W        W33353  15.141  18.948  12.084  0.1085  0.1964 -0.1253
17460W        W33354  13.147   0.033   3.659  0.3268 -0.0093  0.0592
17461W        W33355  15.973  17.832   2.136 -0.1709  0.3837 -0.2128
17462W        W33356   5.548  14.604   4.961  0.4115 -0.4435  0.2702
17463W        W33357   7.662  13.258   4.249 -0.1784  0.1799  0.0123
17464W        W33358   6.539  17.672  13.567 -0.0315 -0.1431 -0.1358
17465W        W33359  14.199  17.522  12.516 -0.0690  0.0581  0.2120
17466W        W33360  19.022   6.049  13.703 -0.0554  0.0567 -0.0056
17467W        W33361   5.434   2.239  11.310 -0.1882  0.0463  0.3459
17468W        W33362   6.848   3.687  14.742  0.3492 -0.0383  0.1090
17469W        W33363   5.823   0.850  11.033 -0.3640  0.0893 -0.1272
17470W        W33364   3.941   6.163  13.736 -0.0022  0.1371  0.0043
17471W        W33365   8.074  11.512  14.104  0.0107  0.2782 -0.1840
17472W        W33366   7.209   5.646   5.371 -0.1938  0.2797  0.1392
17473W        W33367  17.811   6.324   4.133 -0.0161  0.3858 -0.1967
17474W        W33368   8.095   6.625   4.050 -0.1574 -0.2363 -0.0916
17475W        W33369  15.680   5.078   2.000 -0.2287  0.0297  0.0745
17476W        W33370   1.954   7.439   0.698 -0.0885 -0.0863 -0.2288
17477W        W33371   7.792  13.212  14.635  0.1146  0.1392 -0.2241
17478W        W33372   5.505  11.483   2.132  0.1310  0.3176  0.0377
17479W        W33373   0.728   0.673  13.372 -0.2126 -0.0088  0.0344
17480W        W33374   7.352   1.678   0.330  0.4384 -0.1252  0.1986
17481W        W33375  16.425  11.732  12.915 -0.1746 -0.3542 -0.3564
17482W        W33376  13.594   2.758   4.477 -0.1524 -0.0119 -0.0525
17483W        W33377  11.089  10.057   4.156  0.0751  0.0848 -0.0877
17484W        W33378  10.309   2.472  14.522  0.0382  0.1138 -0.4404
17485W        W33379   8.910   4.679  11.972  0.3263 -0.0006  0.2102
17486W        W33380   7.639   8.640   2.527 -0.0755  0.1091 -0.2798
17487W        W33381   7.755   1.517   0.800  0.1547 -0.0606 -0.0731
17488W        W33382  10.015   4.292   1.510  0.0557  0.1268  0.1795
17489W        W33383  11.819   2.690   0.723  0.0771  0.1856  0.0178
17490W        W33384   7.800  15.481   3.821 -0.0536 -0.0981  0.1693
17491W        W33385   1.195   5.571   5.376 -0.0880 -0.4447 -0.0174
17492W        W33386  14.437  11.410  12.032 -0.1621  0.2483  0.0276
17493W        W33387  15.185  10.541  11.253 -0.0905  0.1044 -0.1398
17494W        W33388  12.055  10.953   4.379  0.1951 -0.0945 -0.5048
17495W        W33389  18.236  14.244  11.638  0.0501  0.1199  0.1009
17496W        W33390  11.938  18.228   5.572  0.2486 -0.0008  0.1438
17497W        W33391   6.223  15.778   2.160 -0.1221  0.0502  0.0077
17498W        W33392  14.397   7.490  10.434  0.0205 -0.1163 -0.3849
17499W        W33393   6.170  11.740   3.575 -0.1314  0.0104 -0.1330
17500W        W33394   7.520  16.355  12.341  0.1420 -0.2862 -0.0777
17501W        W33395  15.059   5.094   3.321  0.2531  0.0267  0.2284
17502W        W33396  18.518   1.209   3.992 -0.1319  0.0211  0.2793
17503W        W33397   5.136  11.465  14.213  0.4035  0.1988 -0.0007
17504W        W33398  13.198   0.997   3.188  0.1662 -0.1985 -0.3109
17505W        W33399   5.167   3.857   1.809  0.0927  0.1193  0.1166
17506W        W33400   1.793   9.566  10.982 -0.0442 -0.2811  0.1499
17507W        W33401   3.833   9.736  13.078  0.2212 -0.2507  0.2160
17508W        W33402   3.191   9.945  13.945  0.0650  0.2316 -0.0741
17509W        W33403  18.358  16.002  10.630 -0.0442 -0.1078 -0.5053
17510W        W33404   1.085   5.899   1.272 -0.1409 -0.1480 -0.1125
17511W        W33405   8.830   7.834   3.245  0.3308  0.0426 -0.0463
17512W        W33406  11.838  12.320   1.880 -0.1558  0.3034  0.0330
17513W        W33407   3.802  11.180  10.640  0.2988 -0.4421  0.0209
17514W        W33408  17.620  17.773  11.583 -0.1413 -0.3418  0.0927
17515W        W33409   4.917  12.475   1.562 -0.0406  0.3007 -0.2303
17516W        W33410  10.342   1.084   2.417 -0.2698 -0.0320 -0.1149
17517W        W33411  15.037  16.448  11.477 -0.0875  0.2079  0.0715
17518W        W33412  15.321   9.938   2.043 -0.1425 -0.1461  0.1013
17519W        W33413   5.553   0.769  11.809  0.1296 -0.3402 -0.0180
17520W        W33414  14.445   4.242  12.976  0.1767  0.3341 -0.1941
17521W        W33415   8.502  11.859   9.611 -0.0358 -0.2865  0.0879
17522W        W33416   9.288  12.420   5.867 -0.4978  0.1512 -0.5776
17523W        W33417  19.120   6.362  14.239  0.0611  0.0446  0.0392
17524W        W33418  15.422  16.231   4.501  0.1611  0.1665 -0.1173
17525W        W33419  13.104   1.195   1.544  0.0801 -0.0439  0.1044
17526W        W33420  12.817  13.995   3.914 -0.0207 -0.2736 -0.5592
17527W        W33421  16.807   1.752   4.327  0.0437  0.4620  0.1241
17528W        W33422  17.395   3.166   3.066 -0.0100 -0.0543  0.0435
17529W        W33423   3.004  16.229   2.561 -0.0224  0.0068 -0.0681
17530W        W33424   4.410  12.626  10.868  0.0521 -0.0324  0.0195
17531W        W33425   7.898   8.449  12.406 -0.2338  0.0907  0.1241
17532W        W33426  18.649   3.428   4.349  0.3600  0.2885 -0.1530
17533W        W33427  11.841   2.439  10.342 -0.0812 -0.3359 -0.0421
17534W        W33428   4.501   2.161   2.594  0.0269 -0.2472  0.1618
17535W        W33429   9.504  14.028  11.315 -0.0450 -0.1997 -0.1393
17536W        W33430   6.693  12.990   0.701  0.1674  0.0462  0.2925
17537W        W33431   0.247   6.930   4.568  0.0661 -0.2097  0.1786
17538W        W33432  16.095  16.668  14.885  0.0148  0.4467 -0.0396
17539W        W33433   2.721  16.550   4.831 -0.0931  0.3924 -0.1080
17540W        W33434   0.837   6.484  11.964 -0.2586  0.4211  0.1262
17541W        W33435  10.856  15.392  12.215 -0.2657  0.3145  0.0421
17542W        W33436   4.836  10.358   4.962 -0.0379  0.0029 -0.2611
17543W        W33437  11.759  17.297  13.483 -0.0025 -0.0012  0.0656
17544W        W33438   1.626   3.477   4.214  0.0713  0.0209 -0.0518
17545W        W33439  14.099   5.201  13.821 -0.0797  0.1562 -0.1289
17546W        W33440   3.241  15.291  13.220 -0.0244 -0.0411 -0.1604
17547W        W33441   7.412   0.893   5.144 -0.1142  0.0505  0.1173
17548W        W33442   0.470   5.319   5.551  0.0213  0.0430 -0.0212
17549W        W33443  10.064  15.243  10.893  0.0725  0.2191 -0.2806
17550W        W33444  18.867   6.716   1.175 -0.0938 -0.0461 -0.0591
17551W        W33445   7.441   0.584   0.627 -0.2242  0.0631 -0.5392
17552W        W33446  15.970   9.497  14.183  0.0854 -0.1130  0.0075
17553W        W33447  14.884  12.064  10.512  0.2088 -0.2542  0.0745
17554W        W33448  16.709  11.956  13.301  0.0627 -0.1781 -0.1637
17555W        W33449  10.522   8.426   3.679  0.1836  0.2126 -0.0946
17556W        W33450  10.492  10.525  11.107  0.2824 -0.0110  0.0205
17557W        W33451   7.338  13.587   4.638  0.0314 -0.1241 -0.0838
17558W        W33452   6.037   2.688  11.192  0.2529  0.0386  0.0245
17559W        W33453  15.783   2.451  12.956  0.0857 -0.0234  0.3286
17560W        W33454   9.830  15.634  12.102  0.1014  0.0843 -0.3014
17561W        W33455  10.796  15.654   1.133 -0.1051 -0.3653  0.0565
17562W        W33456   9.574  10.514   0.146  0.2489 -0.0182  0.3297
17563W        W33457   0.567   9.794   4.782 -0.0631 -0.0625 -0.0807
17564W        W33458  17.662   1.420   3.284 -0.2866  0.1409  0.0349
17565W        W33459   6.444  13.064   2.589 -0.1075 -0.0038  0.0074
17566W        W33460  15.554  13.664   3.111 -0.1810  0.4032  0.3700
17567W        W33461   9.363   5.941   1.852 -0.1435 -0.1699  0.0741
17568W        W33462  12.972   4.279   1.852  0.0290  0.1143 -0.3385
17569W        W33463  12.172  11.606  12.886  0.1413  0.3471  0.0872
17570W        W33464   0.614   8.273   3.323  0.0970 -0.0619 -0.0874
17571W        W33465   9.120  16.142   0.106  0.1980  0.0616 -0.1430
17572W        W33466  18.771   4.685   0.253  0.0649  0.2243 -0.0423
17573W        W33467   1.092   9.618  14.779  0.0377  0.3185  0.4005
17574W        W33468   2.157   4.833   3.999  0.2476  0.0449  0.0870
17575W        W33469   5.024   8.954   0.634  0.0538 -0.1966  0.0631
17576W        W33470  14.611   1.773   2.570 -0.1007 -0.0252  0.1482
17577W        W33471   4.677  11.973  13.480 -0.1499 -0.0763 -0.1026
17578W        W33472   0.489  17.709  12.680 -0.0983 -0.1271  0.0568
17579W        W33473  11.140  11.674  12.973  0.0584  0.1804  0.1591
17580W        W33474   1.381  16.241  13.914 -0.1302  0.2625 -0.1764
17581W        W33475  15.948   3.753  11.266 -0.1153 -0.0611 -0.0286
17582W        W33476  14.533   0.699  11.640 -0.0075  0.1975 -0.3490
17583W        W33477   1.873   4.685  12.857  0.1908  0.2485 -0.1460
17584W        W33478   3.474   3.069   2.753 -0.2245 -0.3711 -0.1628
17585W        W33479  18.874   9.366  12.418 -0.1692 -0.1236  0.2474
17586W        W33480   7.268  17.443   3.394  0.1802 -0.2931 -0.1768
17587W        W33481  13.144   7.519  10.632 -0.4953 -0.0573 -0.2254
17588W        W33482  11.270   3.927   4.068 -0.1146 -0.2221 -0.2648
17589W        W33483   6.705  14.870  12.197  0.0674  0.0594 -0.3322
17590W        W33484   7.154   4.294   0.538 -0.2303 -0.1439 -0.1091
17591W        W33485  11.732  14.903  11.448 -0.1685  0.0990 -0.1961
17592W        W33486  11.387  11.000   5.784 -0.0906 -0.1762 -0.1598
17593W        W33487   9.479   1.652  13.957 -0.1189  0.0969  0.2726
17594W        W33488   6.940   9.986   3.341  0.3327  0.0641  0.0260
17595W        W33489  16.740   3.819   2.602  0.0844  0.1772  0.2273
17596W        W33490  11.266  11.323  11.942  0.1071 -0.2385  0.2504
17597W        W33491   4.786  17.620  13.224 -0.0210  0.3581  0.0653
17598W        W33492  18.803  18.766   3.063 -0.2648 -0.2502  0.3534
17599W        W33493   2.623  13.849   0.262  0.1628 -0.0880  0.2498
17600W        W33494  15.871   5.635   9.740  0.0896 -0.2001  0.1085
17601W        W33495   1.895   8.178  11.299  0.0080 -0.0952 -0.0015
17602W        W33496  13.945   9.205  12.514 -0.0432 -0.0897  0.1679
17603W        W33497  12.414   7.641   5.627 -0.1037 -0.0172  0.1596
17604W        W33498   2.741   4.061   0.767  0.2136 -0.0876  0.2266
17605W        W33499   2.886  12.886   2.839 -0.0687 -0.1347 -0.3184
17606W        W33500   8.114   3.761   2.041  0.3340 -0.0531 -0.0335
17607W        W33501   2.228   9.580  10.659 -0.0655  0.0909 -0.0720
17608W        W33502  10.678  17.130   2.919  0.1313  0.1262  0.1701
17609W        W33503  14.415   3.553   0.596  0.0350  0.0333  0.1619
17610W        W33504  12.138   7.806   4.386  0.0036  0.0685 -0.0666
17611W        W33505  17.536   8.604   0.924  0.0908 -0.0373 -0.2239
17612W        W33506   4.216   4.902  12.023 -0.1815 -0.1418  0.0329
17613W        W33507  14.177  10.613   2.722 -0.1706 -0.1204  0.0041
17614W        W33508   6.691   9.512   4.227  0.2245  0.1477 -0.1262
17615W        W33509  15.946  16.292  11.065  0.0551  0.4568 -0.0364
17616W        W33510   2.555   3.036   3.811  0.0648  0.0321  0.2376
17617W        W33511  13.291   4.686   5.242 -0.3519  0.1201 -0.0045
17618W        W33512  16.353   7.203   0.672  0.0094 -0.0691  0.0124
17619W        W33513   7.550  14.838   0.340  0.0008 -0.2239  0.1631
17620W        W33514   5.907   5.486   5.360  0.0614  0.0772 -0.2089
17621W        W33515   9.535   5.726   4.073  0.0647  0.1011  0.3404
17622W        W33516   8.732  17.744  13.657  0.0403  0.0465 -0.1206
17623W        W33517  16.724  15.305  10.920  0.1547  0.1457 -0.0250
17624W        W33518   7.999  14.720  11.693 -0.0373 -0.0134  0.2905
17625W        W33519  14.819  13.940   2.664 -0.2262  0.0839 -0.2925
17626W        W33520  11.913  15.652  11.127  0.1844  0.1836 -0.1314
17627W        W33521  18.624   9.446   3.678  0.0716 -0.1634  0.1067
17628W        W33522  19.110   7.325  11.454 -0.0058  0.1102 -0.2952
17629W        W33523  10.785  14.212   2.858 -0.1881 -0.2746  0.1196
17630W        W33524   6.313  17.369   9.081 -0.1738 -0.1421  0.1703
17631W        W33525   5.779   8.121  12.170  0.1913  0.2706  0.0691
17632W        W33526   5.363   4.125   5.185  0.1987  0.1737 -0.0796
17633W        W33527   7.492   2.181  13.453 -0.0602 -0.1122 -0.1051
17634W        W33528  16.903  13.529  12.650  0.3875 -0.1480  0.2927
17635W        W33529   0.078  14.101   3.527  0.0314 -0.3904  0.3518
17636W        W33530   1.091   6.004   3.567  0.0519  0.1827 -0.2014
17637W        W33531  12.714   5.755   4.392  0.0407  0.3425  0.0072
17638W        W33532   5.732   6.885   0.749  0.0460  0.0018 -0.5655
17639W        W33533   1.528   4.879   1.922  0.0174  0.1843  0.4030
17640W        W33534  14.179  14.068   4.010  0.1644  0.0932  0.2319
17641W        W33535  11.986  12.974   4.209  0.1737 -0.1807 -0.0614
17642W        W33536   8.966  12.673  13.042 -0.0222  0.2582 -0.1937
17643W        W33537  16.804  16.075  13.510  0.2685  0.1351 -0.4132
17644W        W33538  14.046  15.737   1.818 -0.2097 -0.0390  0.0539
17645W        W33539   5.351  13.099  11.481 -0.2651  0.4367  0.0276
17646W        W33540   6.289  10.417  13.871 -0.0219 -0.0325  0.1071
17647W        W33541   1.970   3.701  14.589 -0.1152  0.1267 -0.1431
17648W        W33542   5.834  15.782  10.404  0.0295  0.1416  0.1575
17649W        W33543  11.639  15.810  13.084 -0.0233  0.0349  0.1083
17650W        W33544   9.685   0.794   4.841 -0.4104  0.2592  0.0517
17651W        W33545   0.226   4.937   1.425  0.1640 -0.3880 -0.1035
17652W        W33546  13.655  18.003  14.514 -0.2838 -0.2336 -0.0325
17653W        W33547   2.933  12.251   0.693  0.1444 -0.0409  0.3935
17654W        W33548  13.340  14.426  10.523 -0.0824  0.0888 -0.0242
17655W        W33549   9.440   2.534   2.867 -0.1593  0.0091  0.1082
17656W        W33550   6.310   2.601   3.753  0.1713 -0.2090 -0.2567
17657W        W33551  16.526  16.559  15.102 -0.0845  0.2830  0.4376
17658W        W33552   7.351   5.557  11.059  0.0224 -0.0240  0.0144
17659W        W33553  12.830  19.099   5.710  0.1094 -0.2519 -0.4440
17660W        W33554  10.973   8.442   2.037 -0.1234 -0.0171  0.2116
17661W        W33555  18.313   0.515  12.955 -0.1858 -0.1286  0.2408
17662W        W33556   5.369   5.191   1.277 -0.2612  0.3543  0.2120
17663W        W33557  12.906   6.662  10.335 -0.0386 -0.0939  0.1314
17664W        W33558   3.791  15.989   4.178  0.2218 -0.1364 -0.1224
17665W        W33559   8.575   6.141  11.137 -0.1224  0.1942  0.0693
17666W        W33560  15.744   4.644   0.438  0.0363 -0.0883  0.1409
17667W        W33561  13.253  13.496   0.193 -0.3544 -0.0382  0.3971
17668W        W33562   1.935  10.757   2.518  0.2897  0.1475 -0.0879
17669W        W33563  17.556   6.993   1.164  0.1044 -0.1701 -0.1616
17670W        W33564  18.347  13.378   2.567  0.1620 -0.0389 -0.1677
17671W        W33565  12.416  16.797  10.664 -0.0049  0.0740  0.1653
17672W        W33566  15.449   9.336  15.041  0.1389  0.5178 -0.1885
17673W        W33567  16.158   3.606   2.327 -0.2443  0.0390  0.2369
17674W        W33568   9.840  14.795   3.897  0.1849  0.4931  0.0461
17675W        W33569  12.337  10.172   1.962 -0.2566 -0.2414  0.1350
17676W        W33570  11.707  12.875  13.145 -0.1550  0.1593 -0.2407
17677W        W33571  15.710  10.638  11.107 -0.1113  0.1177  0.1063
17678W        W33572  17.368  10.408  14.594  0.1932  0.3015 -0.1587
17679W        W33573   1.636  17.819  11.215  0.0322  0.1050 -0.1175
17680W        W33574   0.035  12.016  14.138 -0.4707  0.1341 -0.1745
17681W        W33575   1.958  15.384   2.025  0.0769 -0.1693  0.0137
17682W        W33576   8.423   5.320  13.327  0.0608  0.2591 -0.4363
17683W        W33577   8.723   6.939   1.532  0.1211  0.0133 -0.0502
17684W        W33578  14.303  11.923   1.485 -0.2428  0.2627  0.0923
17685W        W33579  12.774   7.961   5.447 -0.1734  0.0241  0.1127
17686W        W33580  11.880  17.171   0.121  0.2770  0.0881  0.0138
17687W        W33581   9.054  14.844   3.503  0.2583  0.0547 -0.1765
17688W        W33582   5.592  14.667  14.515  0.1419 -0.0767 -0.3220
17689W        W33583  10.306   3.975  13.803 -0.0412  0.0724  0.0777
17690W        W33584  12.829  16.139  12.409 -0.1653 -0.1819  0.1969
17691W        W33585   2.093   6.362   4.443  0.2935  0.1686  0.0460
17692W        W33586  17.157   3.683   2.907 -0.3034  0.4874  0.0895
17693W        W33587  10.861  17.223   3.518 -0.0923  0.0659  0.4566
17694W        W33588   4.106  15.829   2.191 -0.2112  0.1638 -0.0003
17695W        W33589   5.295   0.848  14.099 -0.1203 -0.0556  0.0679
17696W        W33590   8.467  12.145   2.937  0.1016  0.1641 -0.0476
17697W        W33591  10.027  18.229  13.712  0.0446  0.2047  0.1984
17698W        W33592  16.305  10.885   9.963 -0.1310  0.1207 -0.1417
17699W        W33593  11.909   7.561  14.606  0.1925  0.3334 -0.0169
17700W        W33594  15.857  15.332   2.904  0.2313  0.1392  0.3085
17701W        W33595  13.380   2.051   0.770  0.1449 -0.0153  0.1455
17702W        W33596  11.247  16.171  14.392 -0.2159  0.2777  0.1329
17703W        W33597   1.175   1.531  11.243 -0.1061 -0.0225 -0.0247
17704W        W33598   4.828  13.323   3.156 -0.0997  0.0498 -0.4599
17705W        W33599  10.822  15.192   2.834 -0.0491 -0.1215 -0.0683
17706W        W33600   9.910   7.402  11.635  0.2508 -0.2625 -0.2257
17707W        W33601   9.918  11.172  13.993  0.0983  0.3104  0.1515
17708W        W33602  15.362   6.494   3.581  0.1248 -0.0240 -0.2238
17709W        W33603   8.887   0.767   3.657 -0.2177 -0.3186 -0.1402
17710W        W33604  17.989   1.117  14.410  0.0698 -0.0198  0.2121
17711W        W33605   5.402   1.231   2.232  0.2856  0.2620 -0.0120
17712W        W33606   6.486  15.536   0.837 -0.0154  0.0450  0.0640
17713W        W33607   0.330  11.401   5.511 -0.0958 -0.1610  0.0493
17714W        W33608   6.253   3.657   0.339 -0.1430 -0.0441 -0.2737
17715W        W33609   8.313  13.486  13.524 -0.1551 -0.0206  0.1833
17716W        W33610  13.434  14.199   4.153 -0.3208 -0.3391 -0.0816
17717W        W33611   6.921   4.868   2.271  0.2784 -0.1516 -0.4999
17718W        W33612  11.962  15.295   2.677  0.1614  0.1465 -0.1907
17719W        W33613  16.760  13.937  12.968 -0.0175  0.1344  0.2921
17720W        W33614  10.244  11.607  14.003 -0.0401  0.1704  0.0641
17721W        W33615  17.126   9.083  11.211 -0.2654  0.1043 -0.0655
17722W        W33616   3.331  12.286  10.745 -0.0638 -0.1527  0.1805
17723W        W33617   0.366   6.285   5.165 -0.1995  0.3690 -0.2303
17724W        W33618   1.999  16.012  11.103  0.2229  0.2727 -0.0840
17725W        W33619   0.110  19.115   1.744  0.1978 -0.0803  0.0097
17726W        W33620   7.821  16.356   2.565  0.0643  0.1474 -0.0176
17727W        W33621   1.658  13.785   5.631  0.1185  0.2376  0.2919
17728W        W33622   0.699  12.164   0.120  0.2552  0.0739 -0.1190
17729W        W33623   9.964   6.228   0.707 -0.1637  0.1903 -0.1794
17730W        W33624   4.193  15.651   0.069 -0.0799  0.2252  0.2594
17731W        W33625  15.615  11.789   1.314  0.2823  0.1447  0.3032
17732W        W33626   7.608   3.063  10.349  0.1172 -0.1146 -0.3624
17733W        W33627   6.387  13.621   4.208 -0.3259 -0.1606  0.2820
17734W        W33628  13.151   3.892  13.674  0.4659  0.2848 -0.2460
17735W        W33629   5.207  11.005   9.494 -0.3261  0.0519 -0.1608
17736W        W33630   3.419  10.481  11.455 -0.3584  0.1800  0.2526
17737W        W33631   5.778  14.693  11.929 -0.1131  0.0335 -0.1648
17738W        W33632  16.727  12.466  14.297 -0.1709  0.0866  0.0611
17739W        W33633  18.943  10.718   4.445 -0.1910  0.0839  0.0438
17740W        W33634   1.554   6.032   2.868  0.2593  0.2509 -0.2137
17741W        W33635  11.592   3.997   5.503 -0.1963 -0.1827 -0.0472
17742W        W33636   6.959  12.916   2.390 -0.0830  0.0117  0.0266
17743W        W33637   3.837   2.336   5.325  0.2276 -0.5085  0.0843
17744W        W33638   0.255   6.976  10.763 -0.1332  0.1707  0.2185
17745W        W33639   5.029  15.205   3.731  0.4398 -0.6038 -0.0567
17746W        W33640   9.978   0.754   4.050 -0.0784  0.0660 -0.1673
17747W        W33641   4.685  11.732   4.020 -0.1872 -0.0931 -0.1688
17748W        W33642  15.892   2.123  13.374  0.2458  0.1094 -0.2371
17749W        W33643  14.359   4.333  11.830  0.3336  0.1215  0.3249
17750W        W33644   6.874  13.608  13.621  0.0605  0.2355 -0.4106
17751W        W33645   5.494  17.023   3.491  0.0081 -0.0616  0.1280
17752W        W33646   0.996  16.893  14.323  0.1504 -0.2695 -0.1149
17753W        W33647  14.720  13.466   3.554  0.0687  0.3140 -0.2572
17754W        W33648  12.686   1.731   5.324  0.4246  0.1801 -0.3006
17755W        W33649   0.818   2.826   4.370 -0.0186  0.0839 -0.0207
17756W        W33650  13.128   2.482  10.643  0.1216  0.0619  0.0550
17757W        W33651  14.585   1.544   0.493 -0.1677 -0.1375  0.0215
17758W        W33652   0.299   3.934  11.433 -0.1538  0.2880  0.2701
17759W        W33653   3.223   3.174   2.348 -0.1656  0.0010  0.0920
17760W        W33654   4.482  11.129  10.547  0.3042  0.0736  0.0129
17761W        W33655   0.907  16.906  12.799  0.1348  0.0689 -0.0035
17762W        W33656  11.803   4.125   2.923  0.1862 -0.0048 -0.0047
17763W        W33657   8.932  18.806   1.652 -0.0537  0.0128 -0.0161
17764W        W33658   3.978   2.814  11.817 -0.0920  0.0446  0.1267
17765W        W33659   9.292  14.395  13.058  0.2164 -0.0211 -0.0818
17766W        W33660  14.797   0.821   1.588 -0.1926  0.0698 -0.0041
17767W        W33661   0.259  18.992   4.175 -0.1697  0.0189  0.0747
17768W        W33662  15.501  18.041   9.996  0.0637  0.1092 -0.2967
17769W        W33663   7.731   3.495   3.542 -0.0579 -0.0788  0.3676
17770W        W33664   6.460  13.605  14.506 -0.1822 -0.0323 -0.0995
17771W        W33665   6.959  10.958  14.347  0.1603 -0.0419 -0.1548
17772W        W33666  17.091   4.078  15.029  0.0026 -0.0403 -0.1223
17773W        W33667   8.080  17.555   5.003 -0.0502  0.0548  0.1586
17774W        W33668  11.375   7.804   9.106 -0.3762  0.1360  0.1935
17775W        W33669   0.711   8.023   1.898 -0.0532  0.1325 -0.1244
17776W        W33670  12.143  10.141   2.474 -0.1991  0.4111  0.1344
17777W        W33671   7.171  16.213   3.309  0.3788 -0.2006  0.2869
17778W        W33672  17.627  11.141   4.851  0.0314 -0.0858  0.0847
17779W        W33673  14.831  16.617   2.796 -0.2144 -0.1923  0.2130
17780W        W33674  15.041  10.270   2.790  0.0369  0.0275  0.0474
17781W        W33675  13.604  15.152   1.778  0.0956 -0.3253  0.1653
17782W        W33676  17.135  14.027   0.204 -0.2922  0.1913  0.1985
17783W        W33677  17.511  11.111   0.979  0.1159  0.1096  0.4183
17784W        W33678   3.032  10.257  13.133  0.0672 -0.1345  0.1296
17785W        W33679  17.385   7.669  12.025 -0.1135  0.0627 -0.2046
17786W        W33680  12.654   6.701  12.989  0.0249 -0.1852  0.0577
17787W        W33681   2.791  18.080   1.434 -0.0333 -0.0294 -0.0465
17788W        W33682  16.224   4.223   4.632 -0.2249 -0.0763  0.0960
17789W        W33683   7.361   5.134  12.195 -0.1637  0.1723 -0.0663
17790W        W33684   4.814  18.789  11.399  0.2148  0.2640 -0.1954
17791W        W33685  17.498  16.805  14.260 -0.0753 -0.2407 -0.3553
17792W        W33686  11.906  16.949   0.922  0.1555  0.0704  0.0329
17793W        W33687  12.255  14.310  12.609  0.2865  0.2444  0.3308
17794W        W33688   8.595   0.194   4.893 -0.1162 -0.1481  0.4234
17795W        W33689   5.426  11.284  12.828  0.2578 -0.2895 -0.1118
17796W        W33690   8.853  13.515   2.034 -0.1097  0.3391  0.1950
17797W        W33691  14.027  12.408   4.881  0.1500 -0.2298 -0.0413
17798W        W33692  14.050   0.437   2.090  0.3138 -0.0430 -0.1000
17799W        W33693   5.878   7.602   0.253  0.0439  0.0203 -0.0995
17800W        W33694   3.464  10.834  14.983  0.3780  0.1870 -0.1037
17801W        W33695   1.062   2.776  13.119 -0.0546 -0.0427  0.1375
17802W        W33696  13.726   9.183  14.373 -0.2036 -0.0752  0.0711
17803W        W33697  16.323   3.019  13.663  0.1161 -0.1455  0.0689
17804W        W33698  16.657  17.845  11.754 -0.0025  0.0833 -0.4552
17805W        W33699   2.263   2.680  11.377 -0.1038  0.0962 -0.2332
17806W        W33700   7.206   0.250  12.986 -0.0583  0.1076  0.1597
17807W        W33701  12.368   7.725   3.075 -0.0950  0.0918 -0.1421
17808W        W33702  14.025   4.323   2.882  0.1555  0.4938 -0.1575
17809W        W33703   2.199  18.885  14.078 -0.1535  0.3231 -0.0483
17810W        W33704   7.679  11.102   1.606 -0.2953  0.0858 -0.1624
17811W        W33705   6.118   1.307   4.380 -0.0420 -0.2694  0.2124
17812W        W33706  10.514   1.012  10.255  0.0142 -0.1209  0.2792
17813W        W33707  17.453  12.048   4.924  0.4741  0.0593  0.0783
17814W        W33708  16.618   2.426   4.116 -0.1844 -0.2332  0.2765
17815W        W33709   8.113  13.597   0.293 -0.1747  0.2234  0.2556
17816W        W33710  10.860  14.892  12.314  0.1997 -0.1736  0.0630
17817W        W33711   1.314  12.291   0.514 -0.2781  0.2476  0.0749
17818W        W33712  15.250  18.252   3.638 -0.3387 -0.2115  0.1434
17819W        W33713   3.346   9.352   4.336  0.3633 -0.2378 -0.2523
17820W        W33714  17.962   1.162  12.876  0.1796  0.1990 -0.0882
17821W        W33715   7.230  12.887  14.074 -0.2336 -0.2309 -0.1443
17822W        W33716   2.783   2.214   3.540 -0.1999  0.4659  0.2283
17823W        W33717  12.052   0.604  14.902  0.1599 -0.0755  0.0770
17824W        W33718   1.634  12.818   1.085 -0.2088 -0.1172  0.0992
17825W        W33719   1.288  11.954   9.526  0.2137  0.0252  0.1130
17826W        W33720  17.159  16.571   2.513  0.1764  0.1102  0.0231
17827W        W33721   4.720   4.111   2.122 -0.2935 -0.2619  0.1140
17828W        W33722  12.507   8.573   0.114  0.0629  0.0586  0.3437
17829W        W33723   8.097   6.985   4.947  0.2989  0.5242  0.3297
17830W        W33724  14.492  15.032   3.557  0.1591  0.1136  0.0855
17831W        W33725   1.405  11.727   9.964  0.3963  0.0881 -0.2114
17832W        W33726   5.392  10.737  10.690  0.0840 -0.2168  0.3665
17833W        W33727  13.301  10.996  12.210  0.1595 -0.0398 -0.0310
17834W        W33728   6.221   7.354  11.869  0.2506 -0.0506 -0.0536
17835W        W33729   9.313   5.340   4.314  0.2323  0.0426 -0.1819
17836W        W33730  15.914  15.609   1.268 -0.0985 -0.0022  0.3250
17837W        W33731  18.594  14.748   2.022 -0.2869  0.2874  0.0532
17838W        W33732   4.093   4.815  14.768 -0.1400 -0.2049 -0.3872
17839W        W33733   2.411  11.985   2.496 -0.1156  0.1596 -0.1315
17840W        W33734  10.621  18.257   0.784 -0.1067 -0.0594  0.0556
17841W        W33735  18.507  17.638  12.304  0.0461 -0.0514 -0.2041
17842W        W33736  15.423   3.845  12.777  0.3313  0.1135 -0.1596
17843W        W33737  12.268   3.420   3.703 -0.3761 -0.0526  0.1164
17844W        W33738   4.493   9.967  12.495 -0.2303 -0.0281  0.0832
17845W        W33739  16.585   1.494  12.585  0.0734 -0.3475 -0.1885
17846W        W33740   5.038   9.350   3.835  0.0888  0.2060  0.2237
17847W        W33741  16.622  13.118   9.810  0.1428  0.0807  0.0466
17848W        W33742   0.517   4.583   0.539  0.2292  0.2284 -0.0305
17849W        W33743   7.253   8.863   4.383 -0.0596  0.1821 -0.0556
17850W        W33744   8.028  14.500   0.381 -0.1446 -0.2230  0.0445
17851W        W33745  16.959   5.131   3.420 -0.3977 -0.1175  0.0686
17852W        W33746   3.742   2.929  15.007 -0.0044 -0.2095 -0.5093
17853W        W33747  13.049  16.371  14.517 -0.1195  0.4836 -0.0646
17854W        W33748   2.835   8.500  10.953  0.4837 -0.0079  0.0306
17855W        W33749  10.163   3.487   1.310  0.1288 -0.2048  0.1423
17856W        W33750   7.838   2.269   4.971 -0.2314 -0.0969  0.0220
17857W        W33751  15.460   7.708   0.861 -0.0145 -0.3733 -0.0721
17858W        W33752  13.385   6.261   9.575 -0.3901 -0.1140 -0.0016
17859W        W33753   8.437   1.262   3.387  0.1330  0.0722 -0.1998
17860W        W33754  14.935   4.039   1.805  0.2303 -0.3612 -0.0127
17861W        W33755  16.796  11.335  10.827  0.1222  0.1643 -0.1208
17862W        W33756   8.075  10.764   1.157  0.1569 -0.2825  0.0719
17863W        W33757  17.943   4.870   0.849 -0.1488 -0.1857  0.0592
17864W        W33758   5.250  13.191   0.158  0.0309 -0.2150 -0.0504
17865W        W33759   0.903   8.375   3.960 -0.3384  0.0855  0.0093
17866W        W33760   7.238  18.394  11.357  0.1882  0.0795  0.0282
17867W        W33761   7.238  11.634  14.247  0.1831  0.2708  0.2669
17868W        W33762  14.582  13.982   3.752  0.2408  0.1260  0.2793
17869W        W33763   0.715  11.396  13.563 -0.2238 -0.0843  0.0504
17870W        W33764   7.256   7.264  13.550 -0.0627  0.1570 -0.0068
17871W        W33765  15.313   4.150  11.917  0.1822 -0.0135 -0.0938
17872W        W33766  10.119  10.529   4.286 -0.2458 -0.0112  0.0280
17873W        W33767  14.578   1.080  13.034 -0.1664  0.0408  0.4290
17874W        W33768  15.949   2.474  14.996  0.1485 -0.1108 -0.3819
17875W        W33769  14.722   6.414  12.889 -0.1226  0.3744 -0.0704
17876W        W33770   7.863  14.702  10.382  0.2322 -0.2782  0.0876
17877W        W33771  13.646   7.232   2.910  0.1354 -0.0629 -0.1084
17878W        W33772   1.406  11.132   4.377  0.0313  0.0543  0.1436
17879W        W33773  13.866  13.955   3.085 -0.1487  0.2081  0.2213
17880W        W33774   2.194  14.379  10.384 -0.1433 -0.0286  0.1893
17881W        W33775   7.915   1.260  11.328  0.2651 -0.1649 -0.0700
17882W        W33776  13.842  12.207   0.770  0.0925  0.2916  0.1601
17883W        W33777  14.660  10.497   2.629 -0.0562  0.1704 -0.2574
17884W        W33778   2.163  12.407   9.925  0.1249 -0.1230  0.1350
17885W        W33779  12.384   6.544   0.773 -0.0006  0.3011  0.2220
17886W        W33780   4.898   4.667   4.867  0.1770 -0.1568 -0.4040
17887W        W33781   9.815   1.234  14.198  0.1383 -0.2781 -0.0362
17888W        W33782   9.758  18.054   4.063  0.0258  0.1054  0.3858
17889W        W33783   4.787   7.560  12.931 -0.0343  0.2210  0.0217
17890W        W33784   2.360  11.609  12.501 -0.0439 -0.1975 -0.1117
17891W        W33785   4.129  15.383  10.672 -0.0523  0.1781 -0.1464
17892W        W33786  10.456   3.085   4.495 -0.1554  0.2644  0.2725
17893W        W33787  16.236   7.047   1.708 -0.0525 -0.1651 -0.1465
17894W        W33788  18.021  10.197  12.268 -0.2500  0.2479  0.0626
17895W        W33789   1.326  14.393   1.265 -0.1065 -0.2559 -0.0191
17896W        W33790  10.906   0.317  12.323  0.1265  0.3696 -0.1848
17897W        W33791  16.179   9.987   2.932 -0.1068  0.1136  0.4694
17898W        W33792  15.481  17.323  13.105 -0.0504 -0.0115 -0.0204
17899W        W33793  12.551  15.199  11.043 -0.0296  0.0883  0.0999
17900W        W33794   1.858   8.069  12.208 -0.0419  0.1008 -0.0921
17901W        W33795   2.973  13.901   3.839  0.1062 -0.0263  0.3017
17902W        W33796   1.405  12.339  13.677  0.0941 -0.2052 -0.0143
17903W        W33797  17.328  18.959   4.303 -0.3471 -0.1363  0.1080
17904W        W33798   5.596   7.463   4.048 -0.1481 -0.1524  0.2381
17905W        W33799  12.541  17.001   4.798  0.1987  0.1516 -0.1908
17906W        W33800  10.696   4.431  11.073  0.1699 -0.0881 -0.2101
17907W        W33801   8.379   6.540  14.317 -0.1720  0.0723  0.3218
17908W        W33802   9.945  17.948  13.013  0.1892  0.2472  0.2493
17909W        W33803  17.510   9.295  10.837  0.0112  0.1313  0.1603
17910W        W33804   1.344  13.174  13.867 -0.0749  0.0706  0.2581
17911W        W33805   9.010   2.791  14.620  0.1289 -0.4858 -0.0198
17912W        W33806   4.692   2.473   5.394 -0.0166 -0.3312  0.1525
17913W        W33807  15.693   3.584   2.577 -0.1646 -0.0736 -0.1216
17914W        W33808  18.242  11.011  11.640  0.1510  0.0548 -0.1408
17915W        W33809   7.697   1.296  13.929 -0.0754  0.0626 -0.0353
17916W        W33810  16.906   8.895  13.683  0.1261  0.2192 -0.1368
17917W        W33811  16.109   5.895  13.573 -0.0190  0.3418  0.2533
17918W        W33812  16.577  18.142   2.777  0.1771 -0.1790  0.3767
17919W        W33813   3.178  16.748  11.225  0.1799  0.2601  0.0925
17920W        W33814   8.628   1.267   1.876  0.0704  0.0494 -0.4635
17921W        W33815  18.413  11.674   4.621 -0.1576  0.0032  0.1205
17922W        W33816   9.927  14.632   4.596  0.2893 -0.0267  0.4559
17923W        W33817  14.800  12.895  11.779  0.0002 -0.1471 -0.1968
17924W        W33818   4.018  14.664   0.146  0.2080  0.0187  0.0504
17925W        W33819  11.826   3.736   4.963  0.0753 -0.0431 -0.0907
17926W        W33820   8.305  13.213   0.757 -0.4003  0.1349  0.0130
17927W        W33821  17.814  16.401  12.565  0.0058 -0.1431 -0.1155
17928W        W33822   9.728   5.303  13.422 -0.1710  0.0640 -0.2057
17929W        W33823  12.384   9.655   0.957 -0.1054 -0.4944 -0.1964
17930W        W33824   1.921  17.003   5.799 -0.0297 -0.2270 -0.0668
17931W        W33825   7.931   5.332   2.288 -0.0898 -0.0155 -0.4172
17932W        W33826  16.933   6.264  14.046 -0.0232 -0.1013 -0.0849
17933W        W33827   1.308   4.595  10.765  0.1374  0.1840 -0.0569
17934W        W33828   6.691  11.404  11.186 -0.2115  0.3542  0.0262
17935W        W33829  10.504  17.980  11.735 -0.2795  0.1191  0.0128
17936W        W33830  11.536   1.069  14.230 -0.2002  0.0823  0.3952
17937W        W33831  17.553   2.173  10.798  0.0690 -0.1606  0.2319
17938W        W33832   0.338  17.487   0.436 -0.2166  0.2790 -0.0246
17939W        W33833  16.670   7.368   1.485 -0.2129  0.1105 -0.2964
17940W        W33834   0.484   2.728  10.729 -0.0680 -0.1385 -0.1377
17941W        W33835   2.677  15.917  11.771 -0.3331  0.0543  0.1908
17942W        W33836   2.506   3.799   3.985  0.2868 -0.3882 -0.1703
17943W        W33837   5.986   7.705   1.192  0.3846  0.1418  0.2214
17944W        W33838   4.373  16.478   4.239 -0.0746  0.1924  0.0665
17945W        W33839  13.581   2.544  13.554  0.0435  0.1878  0.0255
17946W        W33840  14.065  12.628  10.524  0.0460  0.1205  0.3132
17947W        W33841  11.695  13.273  12.744 -0.4797 -0.2814 -0.1725
17948W        W33842   9.286   2.734   3.482 -0.0597 -0.0339  0.0781
17949W        W33843   3.774   5.492   1.514  0.2047  0.0930 -0.5465
17950W        W33844  13.296  15.798   4.475  0.0543 -0.3003  0.3088
17951W        W33845  17.826  18.822   1.920 -0.1951 -0.4293  0.0236
17952W        W33846  11.492  14.438   4.532  0.1193 -0.2313  0.0205
17953W        W33847   2.119  13.647   5.407  0.1370 -0.0517  0.0288
17954W        W33848   5.956   3.381  15.036  0.1069  0.2234  0.2565
17955W        W33849   1.514  13.812  14.539  0.1761 -0.0111  0.2275
17956W        W33850   4.426   4.702  15.085 -0.1146 -0.4097  0.2719
17957W        W33851   3.038   7.179   4.957 -0.2013 -0.2090 -0.4686
17958W        W33852  15.061  17.353   3.284  0.1508  0.2611  0.1530
17959W        W33853  15.380   2.546  11.514 -0.1092  0.1509  0.0428
17960W        W33854   6.845   0.152   6.092 -0.0811  0.3481 -0.0626
17961W        W33855  14.730  13.259   9.857  0.0212  0.0479 -0.2546
17962W        W33856  12.885  15.385   2.667  0.3325  0.1309  0.2372
17963W        W33857  17.073  18.124  11.799 -0.1706 -0.2966  0.1708
17964W        W33858   0.026  12.328  11.931  0.0065 -0.1274  0.0219
17965W        W33859   5.209  17.954   2.147  0.3955 -0.2065  0.4138
17966W        W33860   1.424   7.219   5.988  0.2045 -0.0306  0.1013
17967W        W33861  18.675   4.308   1.987 -0.0108  0.3076 -0.2509
17968W        W33862  12.638   0.855  10.443  0.1841 -0.1023  0.2635
17969W        W33863   8.210   4.060  11.077 -0.2093 -0.2782  0.3251
17970W        W33864  16.187  15.590  13.210  0.1811 -0.1934  0.0334
17971W        W33865   4.751  16.800   4.060  0.1517  0.1431  0.3208
17972W        W33866  12.316  12.025   4.720 -0.0491  0.1081 -0.1422
17973W        W33867  13.773   7.727  12.464 -0.1875 -0.5552  0.1560
17974W        W33868   7.388  16.872   1.488 -0.1004 -0.0026  0.2844
17975W        W33869   1.385  10.941  11.564 -0.1750  0.1697  0.0011
17976W        W33870   6.296   4.869   2.709 -0.0647  0.1437  0.0641
17977W        W33871  13.070  14.671  10.170  0.0414 -0.1001 -0.0939
17978W        W33872   7.015   4.899  14.897  0.0610 -0.0228  0.2489
17979W        W33873  15.118  16.275  11.004  0.3736 -0.0021 -0.1712
17980W        W33874  17.995   5.132   0.420 -0.3996 -0.0135 -0.0895
17981W        W33875  15.260   1.881  14.562  0.0377 -0.2188  0.1487
17982W        W33876   5.953   0.275  12.606  0.1552  0.0822 -0.2844
17983W        W33877   9.691   2.168  11.500  0.1825  0.0265  0.1377
17984W        W33878   6.393  10.037   0.707  0.1747  0.1860 -0.0712
17985W        W33879   0.347   9.027  14.074 -0.2156  0.0540  0.3903
17986W        W33880  14.049   3.161  13.796  0.0800 -0.2293  0.0158
17987W        W33881  15.477  15.715  10.356 -0.1141  0.1315  0.0072
17988W        W33882   0.041  15.030  10.398  0.1063  0.1630  0.0386
17989W        W33883   4.579   6.766  11.101 -0.1949  0.1971 -0.2357
17990W        W33884   8.619  15.796  12.687 -0.0616  0.0164  0.0416
17991W        W33885  17.440  15.184   1.712 -0.0852  0.0496 -0.2612
17992W        W33886   1.030   6.041   6.354  0.0508 -0.1575  0.1290
17993W        W33887   1.623   0.975  14.207 -0.2049 -0.0595  0.0426
17994W        W33888   2.199   4.171  15.075  0.1281 -0.2252  0.2452
17995W        W33889  15.212   3.676  13.243 -0.0039 -0.2956 -0.1247
17996W        W33890   2.405  13.185   2.734  0.2062  0.1389 -0.0115
17997W        W33891   3.551   8.995  13.809  0.1587  0.4587  0.0362
17998W        W33892  11.972   1.030  11.193  0.0571  0.0256  0.2564
17999W        W33893  16.109  10.403   0.141 -0.3336 -0.3244 -0.4173
18000W        W33894  11.652   5.055   3.861  0.4158 -0.0762  0.0417
18001W        W33895   5.381   2.072   3.739  0.1257 -0.2144  0.1179
18002W        W33896  11.397   7.970  13.555 -0.0710  0.1653 -0.1550
18003W        W33897   3.809   9.505  15.045  0.1531  0.0201 -0.1297
18004W        W33898  15.095  12.603   2.306 -0.0069  0.4234  0.3358
18005W        W33899  18.491  10.102  14.644 -0.2342 -0.0773  0.0540
18006W        W33900   0.177   0.378  14.384 -0.2378  0.2005 -0.0947
18007W        W33901  16.763   0.946  13.223 -0.2659  0.1666 -0.3370
18008W        W33902  18.625  16.383  12.447 -0.2878  0.2950 -0.0965
18009W        W33903  13.834   4.356   0.101 -0.4318 -0.1420  0.0499
18010W        W33904   6.328   3.068  11.293  0.0693  0.1224 -0.1238
18011W        W33905  14.325  18.861   0.827  0.1107  0.0947  0.2254
18012W        W33906   2.396   1.294  13.428  0.0550  0.1124  0.1123
18013W        W33907  16.203  10.005   2.112  0.1609  0.1796  0.3284
18014W        W33908  18.556  13.796   0.510 -0.1372 -0.0009 -0.0093
18015W        W33909  15.009   2.114  14.971 -0.0650 -0.5454 -0.0193
18016W        W33910  18.340  16.776   2.459 -0.0171  0.0256  0.1907
18017W        W33911   2.048  11.763   0.533  0.2184 -0.1277  0.2157
18018W        W33912  11.860  13.685  13.934 -0.0756 -0.2177  0.0448
18019W        W33913  10.001   8.692  14.573  0.4354 -0.2994 -0.2984
18020W        W33914  16.224  16.242   1.567  0.0178 -0.1055 -0.0054
18021W        W33915  16.825   4.891  14.104 -0.2028 -0.5652 -0.0650
18022W        W33916   8.301   2.436  13.163  0.0707  0.1403  0.0766
18023W        W33917  18.320  10.324   2.649 -0.2518  0.1340  0.3671
18024W        W33918   3.851  11.293  13.453  0.1457  0.0737  0.0134
18025W        W33919   0.316   2.003   0.422  0.1850  0.0518 -0.1466
18026W        W33920   4.057   4.686   2.565 -0.1149  0.3428  0.1625
18027W        W33921   3.964  13.607   0.101  0.3173  0.1708 -0.1567
18028W        W33922   1.908  18.243  14.161 -0.2767  0.1816  0.1668
18029W        W33923   8.558  14.104   4.931 -0.0768 -0.2410  0.0572
18030W        W33924  16.033   8.318   0.850  0.0458 -0.2307  0.2041
18031W        W33925   3.899  16.834   4.750  0.1336  0.1035  0.1223
18032W        W33926   1.900  13.477  12.338  0.2173  0.2744 -0.4740
18033W        W33927   8.464   0.359  10.848  0.1865  0.0838 -0.2599
18034W        W33928  16.723   0.585   0.950  0.1303 -0.0732  0.3403
18035W        W33929  15.049  11.519   4.082  0.1931  0.0634  0.1544
18036W        W33930   0.291   0.840   3.753 -0.2092  0.0642 -0.1557
18037W        W33931   1.836   8.423  14.950 -0.0154  0.2367  0.0410
18038W        W33932   5.263   5.070  13.323  0.0920 -0.0626 -0.0014
18039W        W33933  17.254   1.871   4.436  0.0582  0.1005 -0.2100
18040W        W33934  16.157  18.423   4.527  0.3992  0.0546  0.2720
18041W        W33935   6.604   7.276   5.541 -0.0111 -0.1668  0.1042
18042W        W33936  13.047   6.663  12.355 -0.0860  0.2353 -0.0016
18043W        W33937  16.078  11.005   3.619  0.2812  0.3931  0.0605
18044W        W33938   0.970  18.044  14.615  0.0700 -0.1229  0.3183
18045W        W33939   3.860   8.312  14.826 -0.3455  0.0536 -0.1378
18046W        W33940   4.778   3.076  11.836 -0.3792  0.2153 -0.0025
18047W        W33941   9.209  13.567   0.599 -0.1207 -0.1579 -0.0670
18048W        W33942  14.672   2.564  10.731 -0.1927  0.1392 -0.0043
18049W        W33943   8.842  12.306   2.653 -0.4804  0.0549 -0.3820
18050W        W33944  18.011  10.849  11.175 -0.0373  0.0770 -0.4066
18051W        W33945   4.655   0.047  12.229  0.1267  0.1116 -0.0689
18052W        W33946   6.417   6.200   0.475  0.0754  0.0661  0.3076
18053W        W33947  12.592  12.137   1.400  0.0044  0.1051 -0.0378
18054W        W33948  12.582   3.893   1.755  0.1939  0.0956 -0.2369
18055W        W33949  16.213  18.821  10.826 -0.2285 -0.0488  0.0573
18056W        W33950  18.373  13.959  10.846 -0.2167  0.0392 -0.0023
18057W        W33951   1.390   1.078  14.788 -0.2817  0.0200  0.0017
18058W        W33952   0.171   5.560   4.360 -0.1881 -0.3317 -0.3386
18059W        W33953  14.579   2.235   2.152  0.1087 -0.1490  0.3088
18060W        W33954   7.794   4.341   0.544 -0.0609  0.0502 -0.0758
18061W        W33955  15.785  12.319   2.115  0.4784  0.0445 -0.2451
18062W        W33956   7.551   5.740   2.994 -0.0077  0.1175  0.0137
18063W        W33957   2.786  18.584   0.619 -0.3998  0.0766  0.2054
18064W        W33958   6.214   5.837  11.531 -0.1436 -0.1784 -0.0348
18065W        W33959   3.058   5.011  13.373 -0.3615 -0.2467 -0.2433
18066W        W33960   6.626   0.731   6.180  0.2112 -0.1222 -0.0930
18067W        W33961  17.858   2.060  13.255 -0.2618 -0.1828 -0.1873
18068W        W33962   7.683  10.944  11.964 -0.0416 -0.2560 -0.1982
18069W        W33963  13.145  19.121   5.292  0.1809 -0.1423  0.0605
18070W        W33964  16.884  17.569  14.296 -0.0098  0.1092 -0.1844
18071W        W33965  12.092   7.358   5.192  0.1613 -0.2799 -0.4165
18072W        W33966   6.521  16.949  14.965 -0.1899  0.0314  0.2096
18073W        W33967  15.248  11.785   0.933 -0.0381 -0.1101 -0.2443
18074W        W33968   3.109   5.598  14.604  0.1519 -0.0224 -0.0818
18075W        W33969   4.203   3.983   0.626 -0.2397 -0.1238 -0.0609
18076W        W33970   0.987  11.078  13.337  0.1337  0.0149  0.1354
18077W        W33971   8.388   3.895   1.106 -0.1915 -0.1929  0.3160
18078W        W33972  15.650  12.937  11.613 -0.0588 -0.0269 -0.1776
18079W        W33973  13.061   7.048  11.632  0.1762 -0.0633  0.1098
18080W        W33974  18.669   3.888   0.232 -0.3487  0.2095 -0.1202
18081W        W33975   7.586   8.259   4.024 -0.1628  0.0077  0.1410
18082W        W33976  17.318  12.199   3.364  0.0297  0.2614  0.1467
18083W        W33977  10.689  15.788  11.318 -0.2434  0.0808 -0.1628
18084W        W33978  14.310  12.250  11.781  0.0227 -0.2729 -0.1810
18085W        W33979   1.887   0.351   1.375  0.1980  0.2031 -0.1270
18086W        W33980  10.330  18.829   0.167  0.4161 -0.1840  0.1236
18087W        W33981  17.153   4.580   1.971 -0.0923 -0.1423 -0.1021
18088W        W33982   6.987   9.747   2.084  0.3606 -0.0284 -0.0425
18089W        W33983   9.034  17.834   3.944 -0.1299 -0.0967  0.2797
18090W        W33984  12.142  13.264   0.794  0.0141  0.0264  0.1005
18091W        W33985  12.775   9.449   0.587 -0.0546  0.0125  0.4452
18092W        W33986   9.126  16.069   1.103 -0.0867 -0.4705 -0.3570
18093W        W33987   0.634   8.793   1.192  0.2001  0.2610 -0.2314
18094W        W33988   4.753   1.478   5.062 -0.6226 -0.0248  0.1541
18095W        W33989   2.581  10.016  11.487  0.1434 -0.1911  0.0714
18096W        W33990   3.139   2.335  12.893 -0.1903 -0.1111  0.0364
18097W        W33991   6.996  14.822  13.286  0.1477  0.1340  0.1979
18098W        W33992  16.741   8.071  12.321  0.3744 -0.1376 -0.2051
18099W        W33993  14.143  10.600   1.273 -0.0831 -0.0730 -0.1230
18100W        W33994   7.262  17.193  13.619 -0.0506 -0.1954  0.2652
18101W        W33995   9.039   7.850  13.637 -0.0795  0.1195  0.1873
18102W        W33996  12.824   4.760   1.777  0.0161  0.1484  0.0253
18103W        W33997   0.099   8.811   2.101  0.0195  0.1986 -0.1663
18104W        W33998   9.822   0.056  12.347  0.1731 -0.1546  0.0947
18105W        W33999  10.597  10.077   1.297 -0.1719  0.1178 -0.1859
18106W        W34000   7.429   6.339   4.683  0.0529  0.3118 -0.0185
18107W        W34001   5.879  16.043  12.752 -0.1523  0.1726  0.4372
18108W        W34002  17.961  18.021  14.842 -0.2157  0.2946  0.2467
18109W        W34003  10.519  10.483  14.590 -0.0244 -0.0174 -0.1535
18110W        W34004  11.506  16.529  11.117 -0.2098  0.2537  0.4107
18111W        W34005   2.040   8.916  15.050 -0.0966  0.1873  0.0077
18112W        W34006  19.136   6.061   2.758 -0.0729 -0.4162  0.2343
18113W        W34007  11.671   1.204  10.790 -0.2589 -0.1609 -0.2085
18114W        W34008   0.220  12.571   3.191  0.0112 -0.3872 -0.1621
18115W        W34009  14.901  14.261  14.981 -0.0392 -0.0584  0.1304
18116W        W34010  17.090  15.830   5.160 -0.0449 -0.0338  0.2385
18117W        W34011  10.276   3.895  10.736 -0.3521 -0.2216  0.1036
18118W        W34012   7.452   3.697   1.785  0.0188  0.0494 -0.1801
18119W        W34013  10.691  18.797  11.610 -0.1859 -0.3494 -0.2074
18120W        W34014  18.405  11.661   1.912 -0.1255  0.3155  0.1779
18121W        W34015   6.850   4.725  11.070  0.1202 -0.1544  0.2087
18122W        W34016  17.013   0.250  10.981  0.1953 -0.1171  0.4175
18123W        W34017  16.397   2.673  14.756 -0.2033  0.1151 -0.1513
18124W        W34018  15.416  17.216  13.578  0.0583 -0.2799 -0.0056
18125W        W34019  12.191  11.845   0.064  0.3243 -0.0146 -0.1081
18126W        W34020   8.902   0.529   0.808  0.2236 -0.1260 -0.0883
18127W        W34021   0.718   6.475   4.224 -0.3177 -0.0483  0.1225
18128W        W34022   5.148  13.694   1.823  0.0393 -0.3107  0.2230
18129W        W34023   3.429  13.505   0.268 -0.1520 -0.5180  0.3929
18130W        W34024  17.916   6.779  13.416 -0.1466 -0.0392 -0.0083
18131W        W34025   1.885   9.864  11.381  0.2382  0.0045 -0.0308
18132W        W34026  19.030  17.933   1.077  0.0934  0.0810  0.2444
18133W        W34027  18.348  13.493  10.474 -0.1035  0.2059 -0.0372
18134W        W34028   7.743   4.623   3.996 -0.2136  0.0491 -0.1032
18135W        W34029  16.074   3.964   1.909  0.0291  0.0157 -0.2172
18136W        W34030  16.368   5.068  11.292  0.0275 -0.2529 -0.1438
18137W        W34031  11.521   8.587  11.767 -0.1227 -0.3617 -0.0642
18138W        W34032   3.817   1.307   4.985 -0.0517  0.4666  0.2155
18139W        W34033   0.458  17.084  12.061 -0.2288 -0.2289 -0.0480
18140W        W34034   8.478   3.401   3.234  0.2014  0.0397 -0.1541
18141W        W34035   4.660   9.774  11.443  0.2082 -0.0531 -0.0916
18142W        W34036  16.474  12.980  13.592 -0.0861  0.1071 -0.2013
18143W        W34037  16.513   9.273   4.912 -0.0035 -0.2496  0.0997
18144W        W34038  13.763   4.159  10.885  0.0738  0.0904 -0.3304
18145W        W34039   3.119   8.127  10.689  0.0269  0.1119 -0.0782
18146W        W34040   0.403   8.440   1.987 -0.0164  0.0365  0.0323
18147W        W34041   8.012  16.659   3.383  0.1817  0.2341 -0.0062
18148W        W34042  18.140   8.920  11.243  0.1826  0.1925  0.1075
18149W        W34043   9.475   6.948  10.977  0.1199  0.4231 -0.1184
18150W        W34044   8.797  11.462   5.010 -0.0336  0.0487 -0.0276
18151W        W34045   8.522  14.390  11.204  0.1305 -0.0354  0.0851
18152W        W34046  11.966   1.282   2.786 -0.0886 -0.0818  0.0483
18153W        W34047   1.556  17.587   3.863 -0.1386 -0.0225 -0.3868
18154W        W34048  19.071  14.103  11.950 -0.0220  0.0237 -0.2273
18155W        W34049  10.042   1.441   2.274  0.2647  0.0604  0.0782
18156W        W34050  14.144  13.754  14.754  0.3232  0.0359  0.0391
18157W        W34051  17.087   9.299  11.761  0.3684 -0.0810  0.2264
18158W        W34052  10.233   4.404  12.599 -0.4092 -0.0454 -0.3690
18159W        W34053   1.565  16.045   0.697 -0.0173 -0.0373  0.0316
18160W        W34054  13.664   4.172  14.769  0.1945  0.0805 -0.1538
18161W        W34055   5.989  11.485   1.865 -0.1134 -0.2877 -0.1855
18162W        W34056   9.993  13.731   0.977  0.0065  0.1415 -0.0996
18163W        W34057  17.066  13.360  11.366 -0.4345 -0.1270 -0.0993
18164W        W34058   2.445  15.428  13.516 -0.1918  0.0287 -0.2316
18165W        W34059  17.073  13.984  10.063 -0.1315  0.1933  0.1702
18166W        W34060   6.825  17.771  13.991  0.2929  0.1327  0.6359
18167W        W34061   8.613  16.090   2.445 -0.0356  0.0125  0.2607
18168W        W34062   4.513   3.000   2.061 -0.0525  0.2198 -0.2645
18169W        W34063   9.554   4.764   2.091  0.2178 -0.2111 -0.0259
18170W        W34064  16.338  14.330   1.779  0.0129 -0.1353 -0.0879
18171W        W34065   7.374  11.675  12.650 -0.0018  0.1778  0.1727
18172W        W34066  17.385  11.821  12.331  0.0212 -0.0484 -0.1212
18173W        W34067  10.142  17.871  12.039  0.0003 -0.0606  0.1671
18174W        W34068   6.788  13.504   9.177 -0.2583 -0.3148 -0.3248
18175W        W34069   1.726   4.835   4.867 -0.2263 -0.2841  0.0641
18176W        W34070   4.146   3.231  14.646  0.4976 -0.2109 -0.4105
18177W        W34071  13.499   5.122  11.922  0.1745  0.1487 -0.0169
18178W        W34072  18.254   8.199  13.222  0.0258 -0.0039 -0.3388
18179W        W34073  18.687   3.634   3.108  0.1646  0.0747  0.2225
18180W        W34074   8.274  12.142   4.345  0.0592 -0.1162 -0.1846
18181W        W34075   8.270   5.117   5.159  0.1496 -0.2483 -0.1381
18182W        W34076   9.857   3.320   1.660  0.0359  0.4486 -0.2291
18183W        W34077  13.266   4.375  13.907  0.2989  0.3660 -0.0511
18184W        W34078   7.111  11.935   1.058 -0.1989  0.0323 -0.0941
18185W        W34079   4.234   4.660   1.657  0.2212  0.0310 -0.2996
18186W        W34080  13.036  12.135  12.075  0.1053 -0.1624 -0.1192
18187W        W34081   8.930   2.845   5.242 -0.4843 -0.0006  0.0109
18188W        W34082   6.079  16.111  15.024  0.0054 -0.0592  0.0134
18189W        W34083   8.170  18.471  11.642  0.1174 -0.0286  0.3583
18190W        W34084   6.260  11.632   4.621 -0.3202 -0.1911 -0.3600
18191W        W34085   7.576  15.854  10.661  0.1525 -0.2343 -0.3193
18192W        W34086   1.855   7.258  14.226 -0.1967  0.0256 -0.2296
18193W        W34087   9.663  16.164  14.310  0.2578  0.4006 -0.1461
18194W        W34088  12.481   1.471   0.764  0.0812 -0.0653 -0.5478
18195W        W34089  10.631   9.457   2.636  0.1262 -0.0152 -0.1078
18196W        W34090  18.207  15.770   4.330 -0.2738  0.0976 -0.3947
18197W        W34091  13.397  17.350   2.681  0.2249 -0.0383 -0.3690
18198W        W34092  16.182  16.856   3.447 -0.1686  0.1891 -0.1048
18199W        W34093   5.635   3.535  11.937  0.2891  0.0647 -0.3544
18200W        W34094   3.488   2.863   4.523 -0.1294  0.1471 -0.2738
18201W        W34095   9.274  17.522   9.296 -0.3894  0.0677  0.3659
18202W        W34096   4.577  12.163  10.866  0.0967 -0.1503 -0.1007
18203W        W34097  16.116  10.972   2.603 -0.0519  0.0844 -0.0866
18204W        W34098   2.915  17.164  12.587  0.1734 -0.2148 -0.1863
18205W        W34099  19.032   5.089   4.837  0.2545  0.3015 -0.1584
18206W        W34100  12.573  18.238   1.205 -0.0798 -0.1029 -0.0035
18207W        W34101  16.218  14.587   3.161 -0.4956 -0.3690 -0.1890
18208W        W34102  15.099   5.113  11.711 -0.1298 -0.4127 -0.0551
18209W        W34103   2.079   3.980  14.136  0.1100 -0.1333 -0.0597
18210W        W34104   1.583   3.620  11.856 -0.2867 -0.2462 -0.1345
18211W        W34105  17.122   4.955   0.866 -0.1096  0.1603 -0.0494
18212W        W34106   0.900   3.781   0.640  0.0772  0.0186 -0.1180
18213W        W34107  16.986   3.548   9.585 -0.2998  0.0064  0.2495
18214W        W34108   3.841  16.664  13.420  0.0140 -0.0409 -0.1099
18215W        W34109  12.969  13.123  13.172 -0.0422  0.0185 -0.3616
18216W        W34110   7.500  16.406   0.061  0.0704  0.2473 -0.0938
18217W        W34111   7.872  17.191  14.634  0.2303 -0.0121  0.0013
18218W        W34112   3.001  15.092   1.574  0.0941 -0.1649 -0.2385
18219W        W34113   3.110  13.072  12.921  0.0268  0.0224 -0.1824
18220W        W34114   4.892   5.377  14.443  0.1557 -0.0643  0.1071
18221W        W34115   6.128   5.568  13.427 -0.0953 -0.2776 -0.0489
18222W        W34116  18.012  16.930   5.019 -0.0240  0.0049 -0.1995
18223W        W34117  11.557   8.345   4.242  0.2550 -0.3362  0.0554
18224W        W34118  14.461   6.806  11.524  0.0409 -0.1651 -0.4520
18225W        W34119  11.956  15.675   4.860  0.0782  0.0486  0.2896
18226W        W34120   3.779   6.705   2.294  0.1446 -0.3545  0.1420
18227W        W34121   2.408   0.723   3.255  0.1006 -0.0700  0.0006
18228W        W34122   3.318  18.848  14.278 -0.1467 -0.0423  0.0431
18229W        W34123   7.279   1.480   2.366  0.1352 -0.1746  0.3270
18230W        W34124   6.096   8.019   1.748  0.0767 -0.2675 -0.0384
18231W        W34125  13.386  13.991  12.918  0.2391  0.0934 -0.3734
18232W        W34126  18.240  17.101   1.211 -0.2498  0.1808  0.1182
18233W        W34127   1.140   5.299   3.202 -0.1121 -0.1975 -0.0825
18234W        W34128   0.662   6.398   0.478 -0.0503  0.2456  0.1521
18235W        W34129  17.132  18.503   1.927  0.0525  0.1077 -0.2247
18236W        W34130   8.178  13.731   2.322  0.3177  0.0502 -0.2923
18237W        W34131   3.423  15.742   4.366  0.1518 -0.1872 -0.1864
18238W        W34132  12.359   3.396   3.201  0.3071  0.2356 -0.1189
18239W        W34133  10.526  15.685  12.094 -0.0178  0.0098  0.0867
18240W        W34134   7.965   6.749  12.453 -0.2533  0.1682 -0.1835
18241W        W34135  10.663   3.199   3.736 -0.0525 -0.0791 -0.0740
18242W        W34136  11.016   9.595   0.870  0.3597  0.0112  0.1445
18243W        W34137   3.697  18.599  11.960  0.0903  0.2523 -0.0569
18244W        W34138   7.082  12.416  11.719  0.2054 -0.2352  0.2135
18245W        W34139   5.023   2.157  10.971  0.2012 -0.0028  0.2649
18246W        W34140   6.390   0.577  12.533  0.2683  0.0963  0.0224
18247W        W34141  10.698   7.480  10.851  0.1162  0.0462  0.0513
18248W        W34142   1.909  15.774   1.641  0.0545 -0.0044 -0.0742
18249W        W34143  10.818  18.835   4.984  0.0720 -0.2519 -0.0433
18250W        W34144  18.275   2.708  14.783  0.2735  0.0786 -0.3275
18251W        W34145   8.741  17.478   0.145 -0.1019  0.1249 -0.1237
18252W        W34146  18.705   2.961  14.482 -0.0924 -0.1263  0.1223
18253W        W34147  13.285   5.889   3.764 -0.1675  0.2602 -0.1040
18254W        W34148  14.903  10.365  13.082  0.1165  0.1887  0.0315
18255W        W34149   0.796  10.594  12.284  0.2703  0.2795  0.2695
18256W        W34150   5.120  11.865   2.146  0.2594  0.3243 -0.0302
18257W        W34151  13.669   4.705   2.969 -0.0122 -0.1395 -0.3085
18258W        W34152   7.784   2.080   1.696 -0.2996  0.0374 -0.1799
18259W        W34153  13.578   3.663  10.555  0.2112  0.0685  0.3086
18260W        W34154  10.984  17.934   5.134  0.2024 -0.1869 -0.0580
18261W        W34155  16.335  12.299  11.825  0.0332 -0.0251 -0.0773
18262W        W34156   7.246   3.875   2.777 -0.3231 -0.1060  0.0841
18263W        W34157  10.935   2.307  12.028 -0.0833  0.2080  0.2495
18264W        W34158   7.446   7.387  14.873  0.0676 -0.1126  0.0508
18265W        W34159  16.935  10.690  14.451  0.0365 -0.1348  0.0305
18266W        W34160  12.383  10.956  14.587  0.2117 -0.0551 -0.3216
18267W        W34161  11.860   5.687   0.399  0.0329  0.1507  0.1969
18268W        W34162   2.048   6.200   2.959 -0.0743  0.0803  0.3476
18269W        W34163  15.922  18.476  13.914  0.0135  0.2059 -0.0808
18270W        W34164  18.057  10.651  13.887  0.1217  0.0577 -0.1447
18271W        W34165   4.895  18.341   4.396  0.1187 -0.0919  0.1162
18272W        W34166   1.506   7.203  14.543  0.3671  0.0322 -0.0991
18273W        W34167  13.509   8.990  11.272  0.0189  0.4775 -0.0166
18274W        W34168   8.756  18.081  12.593 -0.1020 -0.0410  0.2259
18275W        W34169  18.996   7.488   0.239  0.2513 -0.1091 -0.1932
18276W        W34170  13.500   2.936   2.142 -0.1601 -0.1917  0.0681
18277W        W34171   3.435   3.448   3.766 -0.2365 -0.2148 -0.1002
18278W        W34172   5.050   1.399  14.805 -0.2463 -0.1022  0.0117
18279W        W34173  18.411   8.138  10.374  0.1199  0.2455  0.3270
18280W        W34174  13.656  15.886   1.057  0.1979 -0.1597 -0.1218
18281W        W34175   7.945   9.998  14.922  0.2601  0.0233  0.3246
18282W        W34176   9.902  11.983   4.432  0.4120  0.1960 -0.0124
18283W        W34177   2.592   2.782   5.641  0.0332  0.1010 -0.1289
18284W        W34178  11.939  15.117   9.486  0.0100 -0.0589 -0.1802
18285W        W34179  11.808   8.037   1.893 -0.3460 -0.1380 -0.0631
18286W        W34180  13.747  17.050   1.736 -0.2146 -0.3203 -0.1266
18287W        W34181  13.653  17.774   3.512  0.3651 -0.1126 -0.1022
18288W        W34182  11.068   4.124  12.628  0.0630 -0.0085 -0.1613
18289W        W34183  12.099   0.762  10.232 -0.1071 -0.1185  0.2771
18290W        W34184   7.829   8.565   5.724 -0.1702  0.1987  0.0244
18291W        W34185  15.529   4.521  12.220  0.0868  0.0063  0.1903
18292W        W34186   9.277  18.559  12.075  0.0792  0.0958  0.0771
18293W        W34187   0.909  14.451  13.972 -0.0042  0.1453  0.1381
18294W        W34188  16.553   2.076  10.706  0.0547 -0.1218 -0.0054
18295W        W34189  18.892   8.077   3.147  0.1940  0.0705 -0.0855
18296W        W34190   4.584  15.110   2.897  0.5330 -0.0025 -0.0133
18297W        W34191  11.684   1.036  11.636  0.1066  0.2805  0.0486
18298W        W34192  18.804  12.299  11.059  0.0040 -0.2497  0.1409
18299W        W34193   7.255  13.965  13.524  0.4471  0.0069  0.1867
18300W        W34194   6.562   9.923  10.474  0.0910  0.0301  0.3212
18301W        W34195  12.609   8.983   0.376 -0.3427 -0.0421  0.2278
18302W        W34196   6.412  14.727  12.642  0.3349  0.1084  0.0678
18303W        W34197  13.181   7.932   0.185 -0.3628  0.0601  0.1502
18304W        W34198  12.113  12.450  12.334 -0.5450  0.0732 -0.4499
18305W        W34199  11.178  16.038  11.674  0.2029  0.0712 -0.0023
18306W        W34200  11.260   8.645   2.520  0.2770  0.1978  0.0564
18307W        W34201   1.456   8.652   0.059 -0.0547 -0.3195 -0.3142
18308W        W34202  15.535   1.747   4.148  0.0620 -0.1006  0.0097
18309W        W34203  12.510  10.238   3.986 -0.2133  0.0229  0.1621
18310W        W34204   1.427  17.839  13.652 -0.2690 -0.1364 -0.0658
18311W        W34205  16.775   8.442  10.627  0.1783  0.4006 -0.0600
18312W        W34206   9.338  17.278  11.080 -0.2970  0.2114 -0.0793
18313W        W34207   1.177  12.138   0.946 -0.0168  0.0798 -0.0987
18314W        W34208  11.204  14.876  11.385  0.2081 -0.0533  0.2918
18315W        W34209  14.936  17.140  13.958  0.0892 -0.0914  0.0668
18316W        W34210  14.562  11.296  10.739 -0.0324  0.0015 -0.0063
18317W        W34211   9.773   9.685   2.915 -0.1326  0.1318  0.4719
18318W        W34212   2.415   6.242  14.846  0.3714  0.1323 -0.0085
18319W        W34213  10.092   9.134   3.837 -0.0582 -0.3354 -0.2705
18320W        W34214   6.997   1.813  13.640 -0.2199  0.0727 -0.0661
18321W        W34215  13.372   5.116   4.951 -0.1670  0.3451 -0.1419
18322W        W34216   1.329  15.224  12.805  0.0059  0.2357  0.4020
18323W        W34217   6.985  14.503  12.484 -0.0476  0.0354 -0.1032
18324W        W34218   5.611  10.964   4.726 -0.0050 -0.0180 -0.2496
18325W        W34219   7.647  15.138   4.149  0.0120  0.1082 -0.1826
18326W        W34220   4.475  13.944   3.517  0.2225  0.3348 -0.3444
18327W        W34221   6.279   3.724  12.900 -0.0463  0.1235 -0.1552
18328W        W34222   7.218  17.206  13.041 -0.1144  0.0614  0.0722
18329W        W34223  14.613  10.721   3.993 -0.0713 -0.0975  0.1952
18330W        W34224   9.719   4.643  10.784 -0.1553 -0.3095  0.2141
18331W        W34225   0.532   5.310   1.025  0.1867  0.0560  0.0999
18332W        W34226   5.154  17.030   4.376  0.1457 -0.1696 -0.3097
18333W        W34227  19.169   4.177   2.563 -0.4082 -0.1563 -0.1847
18334W        W34228   1.364  18.339  15.096 -0.2356 -0.6861 -0.2245
18335W        W34229   6.492  14.290   4.227 -0.1928 -0.3020  0.0635
18336W        W34230  16.791  11.096   3.761 -0.0507  0.0801  0.1320
18337W        W34231   6.752   2.571   0.976  0.0477 -0.1423 -0.0851
18338W        W34232   7.048   7.410   3.428  0.1506 -0.2182 -0.0759
18339W        W34233   4.549  16.646  10.071  0.1127  0.0427  0.1127
18340W        W34234  13.118  11.259   4.762 -0.2520  0.2465 -0.0865
18341W        W34235   6.093   7.722   5.404  0.1006 -0.0677  0.3061
18342W        W34236  15.945  16.830  10.569  0.0823 -0.1719  0.4430
18343W        W34237   2.358  15.223   3.103  0.2631 -0.0459 -0.3041
18344W        W34238   0.892  16.382  11.899  0.1709  0.1290  0.1611
18345W        W34239   5.727  17.322   0.930  0.1042 -0.3345 -0.3086
18346W        W34240  15.223  13.633  12.181 -0.0437  0.0414 -0.1558
18347W        W34241  17.563   6.173   9.226 -0.0742  0.1162 -0.0711
18348W        W34242  17.808   1.986  13.945 -0.0221  0.1403 -0.1490
18349W        W34243   7.159   9.839  13.384 -0.2030  0.0223  0.6458
18350W        W34244   8.155  10.699   0.304 -0.1224  0.1903  0.1267
18351W        W34245   0.842   6.364   5.976 -0.3011  0.0560 -0.2452
18352W        W34246  17.640   4.003   1.095 -0.1948 -0.1911  0.0755
18353W        W34247   2.991   9.860   4.420 -0.2985 -0.1079  0.0265
18354W        W34248   0.187   2.806  13.435  0.0827  0.3048  0.0299
18355W        W34249  15.858  13.763   0.934 -0.0586 -0.0894 -0.2695
18356W        W34250   2.829  16.195   4.433  0.3119 -0.2292 -0.1914
18357W        W34251  15.172   6.514  13.043 -0.0375  0.1596  0.2521
18358W        W34252   9.631   4.139  14.359 -0.1424 -0.0633  0.0082
18359W        W34253  15.455  16.227   3.016  0.2420 -0.1580 -0.1855
18360W        W34254   0.148   6.641   4.045 -0.0917  0.0124  0.0980
18361W        W34255  16.072  15.663   9.052  0.1558  0.1918 -0.0879
18362W        W34256  10.320  13.044  12.678 -0.2733 -0.0234  0.3353
18363W        W34257  11.346   1.447   1.613  0.2601 -0.0502  0.0489
18364W        W34258  15.935   2.946  12.171  0.1779  0.0729  0.2774
18365W        W34259   5.880  11.429  10.762 -0.0548 -0.0338  0.2445
18366W        W34260   6.676  14.617  11.776  0.2236  0.0370 -0.0646
18367W        W34261  10.022  15.445   0.504 -0.1456 -0.1071 -0.1481
18368W        W34262   4.986   3.446  11.324  0.3323 -0.4115 -0.1507
18369W        W34263   8.146  16.231   1.187 -0.3627 -0.5017  0.0749
18370W        W34264  12.183  11.947  13.851  0.3435 -0.1152  0.0385
18371W        W34265   0.703   1.445   1.609  0.2386  0.2547  0.1938
18372W        W34266   1.033  12.376  14.782  0.0875 -0.0022 -0.2726
18373W        W34267  17.125   6.794  14.850  0.0059  0.3420  0.1629
18374W        W34268   8.650   1.351  12.410 -0.1790  0.0067 -0.2984
18375W        W34269   6.474  10.809  14.143 -0.0091 -0.2884 -0.2629
18376W        W34270   3.689  15.370  13.553 -0.2731 -0.3180 -0.2524
18377W        W34271  14.359  15.035   0.441  0.1475 -0.1983 -0.1671
18378W        W34272   2.902  15.013  14.481 -0.3840  0.1274  0.1395
18379W        W34273  14.682  13.453   2.535 -0.3191  0.0471  0.2656
18380W        W34274   4.171  15.953   2.735  0.1582 -0.1087  0.3029
18381W        W34275   0.466   6.843  13.686 -0.0317  0.0777 -0.0288
18382W        W34276  16.630   8.981   4.488  0.1370  0.1452 -0.0303
18383W        W34277  18.572   9.184  13.126  0.0646  0.1381 -0.1119
18384W        W34278   8.329  10.220   0.117 -0.0274  0.3199 -0.0178
18385W        W34279  18.072   1.761  12.798 -0.1842  0.0295  0.2174
18386W        W34280   5.147   8.823   3.420  0.1981  0.4639 -0.0809
18387W        W34281   2.273   6.801  12.698 -0.0461 -0.1063 -0.0862
18388W        W34282   0.359   2.707  12.989 -0.2725  0.1237  0.1580
18389W        W34283   6.811   8.457   2.137  0.0973  0.1491  0.3582
18390W        W34284   7.554  10.094  11.533 -0.1630 -0.0219 -0.3831
18391W        W34285   6.655  13.961   2.779  0.0470 -0.2474 -0.0353
18392W        W34286  18.004  11.281   4.528  0.3783  0.2947 -0.2925
18393W        W34287  11.043   6.801   0.009  0.2352  0.1600 -0.2712
18394W        W34288  15.396  13.038   3.631  0.0939  0.1329 -0.0217
18395W        W34289  16.072  18.109   1.615 -0.3167  0.2021 -0.2396
18396W        W34290   5.021   8.669  12.179 -0.0498 -0.2227 -0.3211
18397W        W34291   4.662  10.818   3.886 -0.0516  0.0331 -0.0696
18398W        W34292   8.378   8.000  10.799 -0.0657 -0.0212 -0.0668
18399W        W34293   5.275   5.521   2.055 -0.2006  0.0698 -0.1735
18400W        W34294   1.504   8.638  12.146 -0.1371 -0.0461  0.1196
18401W        W34295   1.493   8.949  11.064 -0.2710 -0.3351 -0.2101
18402W        W34296   6.085  17.246   4.633  0.3272 -0.1277 -0.0929
18403W        W34297  18.669  18.286   1.192  0.2351  0.3816 -0.1089
18404W        W34298  18.082  17.856  11.898  0.0977  0.2028 -0.1207
18405W        W34299  16.412   3.270  13.247  0.2426 -0.0123  0.2095
18406W        W34300   5.876   1.486   2.035  0.0119 -0.2738 -0.0570
18407W        W34301   6.151  16.621   3.918 -0.1150  0.0023  0.0309
18408W        W34302  15.395   7.801   3.238  0.0787 -0.2922  0.3839
18409W        W34303  13.723  10.031   0.974  0.1021  0.1879  0.0339
18410W        W34304  11.702  15.948   0.034 -0.0586 -0.3517  0.0434
18411W        W34305   8.605  18.643   3.867  0.1373 -0.1009 -0.0977
18412W        W34306  13.523  14.618   0.959  0.0121 -0.2113 -0.0009
18413W        W34307   6.699   7.145   3.233 -0.1470  0.1063 -0.3525
18414W        W34308  15.607   8.810  13.645 -0.1834 -0.0971  0.1267
18415W        W34309   5.470   1.717  12.649  0.0188  0.2996  0.0397
18416W        W34310   1.378  12.764  14.172  0.1690 -0.0369  0.2013
18417W        W34311  18.483  18.260   1.910 -0.2255 -0.1050 -0.2556
18418W        W34312  18.061  18.852  13.057 -0.4131 -0.1691  0.3045
18419W        W34313  12.703  10.911  12.327  0.1451  0.3973  0.0370
18420W        W34314  14.348  11.284  14.691 -0.0893 -0.3364  0.0403
18421W        W34315  12.023  11.612  11.815  0.1586  0.1641  0.3156
18422W        W34316   5.937   8.597  14.774 -0.2495 -0.0711  0.3261
18423W        W34317  11.995   6.083  11.096  0.0294  0.2510 -0.2818
18424W        W34318  11.970   1.952  13.965  0.1578  0.3834 -0.1158
18425W        W34319  13.588  10.152  13.735 -0.0104  0.2701 -0.1319
18426W        W34320  14.114   5.550  12.742  0.0665  0.4454 -0.1141
18427W        W34321   3.664  15.208   0.433 -0.1340  0.1379 -0.2079
18428W        W34322  17.431  13.139  12.196  0.0874  0.0229  0.0375
18429W        W34323   0.829  16.735  10.470 -0.1210 -0.1325  0.0476
18430W        W34324   5.816  11.594   0.806 -0.1334 -0.0243  0.2341
18431W        W34325   5.103  17.510   2.467 -0.4467 -0.1657  0.0370
18432W        W34326   4.623  11.945   2.353  0.2753 -0.1137 -0.0256
18433W        W34327  13.591  11.768  14.276  0.0915 -0.1548  0.1727
18434W        W34328  18.574  15.280   1.893 -0.0360  0.4665  0.0837
18435W        W34329   0.552   3.671   1.163  0.0430  0.2031 -0.2345
18436W        W34330  14.304  16.601   2.513 -0.2041 -0.0220  0.1611
18437W        W34331   5.505  13.525   2.106  0.0257 -0.0241  0.1982
18438W        W34332   3.438  15.736  13.276 -0.1228  0.2736  0.1671
18439W        W34333   1.071   9.941  11.636 -0.0569 -0.1341 -0.0073
18440W        W34334  15.384   4.077  13.510 -0.0264  0.0319  0.1467
18441W        W34335  12.440   6.540   3.152 -0.0332 -0.1930 -0.0178
18442W        W34336  10.336   2.798   4.020  0.0791 -0.0008 -0.0358
18443W        W34337  15.934  13.261  14.084  0.2296  0.0486  0.0560
18444W        W34338  15.685  10.924   4.464  0.1904 -0.2516 -0.0529
18445W        W34339  14.576   8.197   9.199  0.1195 -0.0123 -0.1005
18446W        W34340   9.318   8.906   1.833  0.0642 -0.3411 -0.0248
18447W        W34341   9.555  10.519   1.109  0.1155  0.1445  0.1506
18448W        W34342  10.703   7.131  10.388  0.1513  0.0613 -0.1298
18449W        W34343  13.324   4.315   3.107 -0.1331  0.0198  0.0388
18450W        W34344  14.708  15.625   2.535  0.0527  0.1117 -0.2638
18451W        W34345  16.178   8.725   3.705 -0.4203 -0.1301  0.0748
18452W        W34346   3.592   5.043  11.371  0.1643  0.1001 -0.1513
18453W        W34347   4.512  13.475  10.226  0.2534 -0.2574 -0.0192
18454W        W34348   4.384   0.690   4.527 -0.1964  0.1117  0.1898
18455W        W34349   8.664  18.216   1.103 -0.1794 -0.0541  0.0291
18456W        W34350  11.205  18.237  12.713  0.0185  0.1550  0.1866
18457W        W34351   4.302   4.672   4.717 -0.3401  0.2389  0.1237
18458W        W34352  10.641   3.017  13.682  0.2526 -0.1960 -0.2207
18459W        W34353  17.939  15.580  12.922 -0.1515  0.1694  0.1469
18460W        W34354   0.817  16.689   1.576  0.0880 -0.2597 -0.2951
18461W        W34355  15.491   2.076  13.771 -0.1914 -0.2132 -0.0136
18462W        W34356  13.730   5.001   2.172  0.0527 -0.0591 -0.0082
18463W        W34357   9.962   3.218  14.953  0.3291 -0.1680  0.1590
18464W        W34358   3.527  10.225   4.849 -0.0276  0.0089  0.0224
18465W        W34359   5.163   4.183   0.784 -0.3464  0.2446  0.2029
18466W        W34360   2.103  18.695   1.322 -0.2785 -0.1212 -0.2026
18467W        W34361  18.524   3.902   0.917  0.0293  0.1896  0.1858
18468W        W34362   2.589   0.030  12.991 -0.0943  0.1295 -0.0436
18469W        W34363   7.980   2.783   4.284  0.2251  0.0444 -0.1686
18470W        W34364   9.497   1.204   1.754  0.0096 -0.2725 -0.3629
18471W        W34365   8.507   8.297  11.708  0.2314  0.0544 -0.2204
18472W        W34366   7.137   8.074   0.523 -0.5223 -0.0082 -0.2611
18473W        W34367  17.311  16.531   0.726 -0.3082  0.0058  0.3402
18474W        W34368  17.599  12.582   3.576 -0.1813 -0.3099  0.1426
18475W        W34369  14.540  18.010   4.806  0.1015  0.1503 -0.0620
18476W        W34370  14.124  11.739  14.926 -0.0851 -0.0181  0.2468
18477W        W34371   9.001  13.526   0.123  0.0264  0.0874  0.2901
18478W        W34372  12.119   1.873   0.106 -0.3926 -0.4457 -0.1369
18479W        W34373   3.674   8.170   4.105  0.1781 -0.0193  0.0025
18480W        W34374   1.887   4.549  14.071 -0.0943 -0.3578 -0.1311
18481W        W34375  10.731   2.287   1.243 -0.0466 -0.2969 -0.1182
18482W        W34376   8.991   2.676   3.056  0.1950  0.1188 -0.0991
18483W        W34377   8.219  10.294   0.668  0.1589  0.0022  0.0308
18484W        W34378  13.756   8.020  11.371 -0.1576  0.0621  0.0171
18485W        W34379  18.416  11.286   4.100 -0.3346  0.3861 -0.0968
18486W        W34380  13.091  18.561   2.905 -0.1525 -0.1396  0.0656
18487W        W34381   6.329   2.341  14.265  0.1807 -0.0899  0.2264
18488W        W34382   2.872  18.485   4.605  0.1623  0.0007  0.1074
18489W        W34383  17.320   6.642  11.726  0.0397 -0.3938 -0.4536
18490W        W34384   8.845   5.197   2.795 -0.0179 -0.0354 -0.2641
18491W        W34385   2.775   1.578   3.171 -0.0626 -0.3016  0.1173
18492W        W34386   8.856  15.279   2.795 -0.1240 -0.1030 -0.2450
18493W        W34387   3.029  11.271  12.945 -0.2383  0.1585  0.0358
18494W        W34388  15.365   4.026   2.085  0.2359  0.0253 -0.0501
18495W        W34389   7.086   6.360   5.695 -0.0428  0.3582  0.1073
18496W        W34390  15.093  15.853   3.317 -0.2447  0.2834  0.2001
18497W        W34391   8.857   4.866  10.706  0.0274  0.0078 -0.0171
18498W        W34392   5.718   7.020   3.708  0.0125  0.0796 -0.0259
18499W        W34393   5.256  15.812   2.150 -0.2792 -0.4974  0.4926
18500W        W34394  14.481   3.873  12.579  0.3200  0.1346 -0.1770
18501W        W34395   7.237   9.257  13.449 -0.2783 -0.0737 -0.2752
18502W        W34396   7.098   1.882  14.420 -0.1857  0.1428 -0.0092
18503W        W34397  15.539   3.730   4.312  0.1397 -0.3748  0.2199
18504W        W34398  11.446   3.615   2.702  0.0787  0.0477 -0.0332
18505W        W34399   2.903   5.767  11.573 -0.0482 -0.1376 -0.0656
18506W        W34400   4.971   6.571  14.823  0.0860 -0.1411 -0.3313
18507W        W34401  11.370  15.203  13.575 -0.0010 -0.1338 -0.1103
18508W        W34402  14.509  14.098  14.656  0.0465  0.0560 -0.1234
18509W        W34403   3.998  13.060  13.242  0.0571 -0.0079  0.4832
18510W        W34404  18.407  16.882  10.403 -0.0896  0.1869  0.0954
18511W        W34405  17.585   3.903   3.420  0.0773  0.0978  0.0163
18512W        W34406  10.776   9.839  12.872  0.0924 -0.0430 -0.0252
18513W        W34407  12.134  13.475   4.208  0.1801  0.1263  0.0608
18514W        W34408  15.573  12.681   1.809  0.0496 -0.0825 -0.0045
18515W        W34409   3.376  17.068   2.150 -0.0485 -0.3243 -0.0338
18516W        W34410  14.192   6.056   1.977  0.2341  0.1041  0.4823
18517W        W34411   3.128   4.301  14.992 -0.1476 -0.2847  0.0430
18518W        W34412  15.313  11.574   2.065 -0.0552  0.0622 -0.0780
18519W        W34413   1.200   2.034  11.400 -0.2796 -0.0112  0.3208
18520W        W34414  13.496  14.210  10.935 -0.2408  0.3148  0.2249
18521W        W34415   6.114  15.444   4.005  0.0286 -0.0927  0.0109
18522W        W34416  13.462   7.771  12.870 -0.0352 -0.0603 -0.1253
18523W        W34417   9.246  14.649   2.182  0.0153  0.0765 -0.1384
18524W        W34418  13.109  15.406  12.162  0.2924  0.0691 -0.0978
18525W        W34419   4.299  17.092  12.208  0.2758  0.2379 -0.1376
18526W        W34420  17.621   0.695   4.370 -0.1301  0.1194 -0.0968
18527W        W34421  10.855  17.747   1.023 -0.0307 -0.0052 -0.1212
18528W        W34422  16.240   6.400   4.026 -0.2903  0.3611 -0.2842
18529W        W34423  17.243   5.253  10.935  0.1210 -0.2494 -0.0626
18530W        W34424   4.631  17.065  10.542  0.1597 -0.3283  0.0339
18531W        W34425  13.478   4.221   4.054 -0.0477  0.0771 -0.0165
18532W        W34426  13.790  18.912   5.019  0.2254 -0.1251 -0.4589
18533W        W34427   1.235  11.910   1.756  0.0098  0.1541  0.2005
18534W        W34428   0.585   8.794   3.283  0.1752  0.1768  0.0107
18535W        W34429   4.386   0.399  14.320 -0.1417  0.3044  0.0658
18536W        W34430   8.080  12.803   3.496  0.0004  0.2179 -0.3773
18537W        W34431   6.941   2.023  11.834  0.2157 -0.2216 -0.0248
18538W        W34432   9.445  18.695   1.586 -0.4103  0.2569  0.0268
18539W        W34433  13.680  15.730   2.467  0.2967 -0.1061 -0.0490
18540W        W34434  17.461  17.752  14.998  0.2585 -0.1917  0.1307
18541W        W34435   1.599  17.499   4.349  0.1485  0.1178  0.0371
18542W        W34436  13.431  18.838   3.489 -0.2130  0.0052  0.0496
18543W        W34437  12.689  17.961   4.355  0.2314 -0.0176 -0.1386
18544W        W34438  11.528  11.940  14.502  0.1096 -0.2181  0.2661
18545W        W34439  12.170  16.628   2.756 -0.2666  0.1551 -0.1262
18546W        W34440  15.591  15.532  12.656  0.0598  0.1613  0.0506
18547W        W34441   9.847   6.969   2.562  0.0637 -0.0388 -0.0503
18548W        W34442  13.991   1.060   2.168  0.2444 -0.1236  0.1019
18549W        W34443   2.758   6.690   2.393  0.1794 -0.2036  0.0970
18550W        W34444  14.783   2.377   1.096  0.1208 -0.0599 -0.0702
18551W        W34445   7.648   6.908   3.662  0.1461 -0.0282  0.0499
18552W        W34446  12.357  14.545  12.172  0.4365 -0.2221  0.2458
18553W        W34447  17.748   2.654  11.514  0.0193 -0.2836 -0.0712
18554W        W34448  12.776  16.296  15.108  0.3086 -0.2320  0.1294
18555W        W34449  18.032   2.237  11.494 -0.3795  0.0987 -0.4948
18556W        W34450   3.168   2.661  11.205  0.0965  0.3131  0.1902
18557W        W34451  18.476  11.091   0.453 -0.2791 -0.1758 -0.2153
18558W        W34452   6.304  13.176  10.876 -0.0515  0.0877 -0.0469
18559W        W34453   6.805   3.761  13.860  0.0427 -0.0558  0.0459
18560W        W34454   1.234  10.196  12.962 -0.1041 -0.1864 -0.1989
18561W        W34455  13.080   5.666   2.801  0.0895  0.1480  0.0621
18562W        W34456   6.738   4.123  12.694  0.3262 -0.2049  0.2418
18563W        W34457   7.376  15.457  12.128  0.2763  0.0012 -0.2058
18564W        W34458  15.437  12.197  11.665 -0.1112 -0.0747 -0.1105
18565W        W34459   3.199  14.204  14.830  0.2612  0.1002  0.0520
18566W        W34460  17.294  14.090  12.749 -0.2093  0.1180 -0.3282
18567W        W34461   3.731  12.761  12.552  0.3770 -0.1858 -0.0403
18568W        W34462   5.767   5.839  14.984  0.1764  0.0098  0.0708
18569W        W34463   3.507  17.700   4.856 -0.2514 -0.1404 -0.0357
18570W        W34464  17.850   9.967   0.138 -0.2107  0.0511 -0.0443
18571W        W34465   0.949  15.956   1.680  0.2315  0.1376 -0.3125
18572W        W34466  14.653   8.112   5.666  0.0909  0.1366 -0.0907
18573W        W34467  18.839   4.234  12.194  0.0844  0.0647  0.1520
18574W        W34468  11.979  13.812   8.988 -0.1725 -0.2008  0.0291
18575W        W34469   6.158  17.532  11.762  0.0705 -0.0762  0.0555
18576W        W34470   7.442   2.994   0.159  0.3480 -0.2158  0.1531
18577W        W34471  11.116   2.308  11.527 -0.1190  0.0056  0.1172
18578W        W34472  16.726  11.405   4.276  0.4540  0.1997 -0.3418
18579W        W34473  11.196   1.569   0.703  0.3625  0.0336  0.1837
18580W        W34474   9.346   4.497  14.729  0.2921 -0.1182 -0.1771
18581W        W34475  16.487   0.329   1.261 -0.0077 -0.1261 -0.0202
18582W        W34476   7.196   9.593   0.303 -0.0472  0.0466 -0.5327
18583W        W34477   2.491   2.582   3.231  0.4313 -0.2994 -0.2791
18584W        W34478  12.905   4.272  10.708 -0.1281 -0.0649 -0.0992
18585W        W34479   8.526  17.444   0.609 -0.5261 -0.3006 -0.1644
18586W        W34480   7.903   7.615   2.413  0.0952 -0.1242  0.0885
18587W        W34481  12.596   7.300   3.815 -0.1967 -0.0896 -0.0158
18588W        W34482   7.287   1.229  15.013 -0.0515  0.0587  0.0406
18589W        W34483   4.707   7.480   0.176 -0.0494 -0.2586  0.1991
18590W        W34484  16.783   2.383   2.797  0.3390  0.2030 -0.2817
18591W        W34485  14.550   6.213  11.594 -0.1765 -0.0566 -0.0139
18592W        W34486   0.947   8.390   0.091 -0.3127  0.0123 -0.0745
18593W        W34487   7.648   1.864   1.265 -0.1931  0.0655 -0.0776
18594W        W34488   7.693  10.644  13.606 -0.2072 -0.1778  0.3836
18595W        W34489   2.639  19.026  14.241 -0.2166 -0.2720  0.3217
18596W        W34490  16.340   3.269   1.044 -0.1435  0.0214 -0.2225
18597W        W34491   5.679   7.867  13.974 -0.1242  0.0069  0.0749
18598W        W34492   2.973   7.144  10.847 -0.3183 -0.1463  0.1004
18599W        W34493  14.660   8.506   5.409  0.0399 -0.0114  0.1800
18600W        W34494  14.023   2.749  12.171  0.0024  0.1538  0.0948
18601W        W34495   7.275   4.911  10.895 -0.2165  0.1380 -0.0789
18602W        W34496  18.596  12.989  10.189  0.0510 -0.0383  0.0695
18603W        W34497  16.948   2.583   3.759  0.1106 -0.1066  0.1990
18604W        W34498  11.291   5.246   1.611  0.2367  0.0914  0.1677
18605W        W34499  15.355  13.896   1.104 -0.1875  0.0286 -0.1338
18606W        W34500   1.505   8.850  14.710 -0.1193 -0.2566 -0.2537
18607W        W34501   1.587  11.777   2.143  0.2835 -0.0337 -0.0939
18608W        W34502   9.458   2.385   1.217 -0.2608  0.0926  0.1913
18609W        W34503   7.088   9.740   2.929  0.1096 -0.0754 -0.0786
18610W        W34504   7.928   5.874  11.895 -0.0450 -0.2737  0.0403
18611W        W34505  12.268  10.258  13.855  0.0991 -0.0316 -0.1740
18612W        W34506  17.716  18.730  14.595  0.0434  0.2648 -0.2162
18613W        W34507   8.880   0.182  11.632  0.1991 -0.0780 -0.2995
18614W        W34508  18.576   0.775   9.550  0.2302  0.1796 -0.1016
18615W        W34509   3.723   1.778   4.662  0.1220  0.3463  0.0145
18616W        W34510   0.777   2.487  14.375 -0.0012  0.3087 -0.1055
18617W        W34511  15.601  10.911   3.918 -0.1981  0.0836 -0.0603
18618W        W34512  11.547   1.845   4.205 -0.0053  0.0448  0.1032
18619W        W34513  16.303   1.196   2.336  0.1708  0.1378  0.0074
18620W        W34514  14.579  14.499   3.634  0.2801 -0.2224  0.2102
18621W        W34515  16.416   6.463   3.422  0.1093  0.0606 -0.0976
18622W        W34516   1.617  15.783  14.809 -0.0247 -0.5415  0.1854
18623W        W34517  14.579  16.579  11.467  0.0967 -0.3664  0.3490
18624W        W34518  18.116   5.829   3.080  0.1095 -0.0255  0.0259
18625W        W34519   4.691  18.146  14.778  0.0661  0.2462  0.0378
18626W        W34520   8.801   9.916   9.579  0.0901 -0.1764 -0.3654
18627W        W34521   7.846   1.940   2.216 -0.1963  0.1382 -0.0771
18628W        W34522  13.546   2.650   1.489 -0.0949 -0.1135  0.3146
18629W        W34523  17.482  17.529  10.304 -0.0092 -0.0814  0.0914
18630W        W34524   7.672   2.051  14.614 -0.1719  0.1474  0.2034
18631W        W34525   6.605  19.212   3.348 -0.1304 -0.2443 -0.1869
18632W        W34526   7.586   2.746   3.707 -0.4339 -0.1449 -0.0753
18633W        W34527  14.214   8.436   1.149 -0.2679 -0.3162 -0.1111
18634W        W34528  13.044  14.187   3.242  0.2649 -0.0928  0.3552
18635W        W34529   3.199   3.358  14.494  0.0692  0.2575  0.0669
18636W        W34530   0.750  19.140   3.736 -0.1901 -0.1290 -0.1587
18637W        W34531   9.221  13.976   0.933  0.0657  0.2004  0.1146
18638W        W34532   4.032   6.509  11.936  0.0863  0.0862  0.1313
18639W        W34533  13.940  11.258  13.520  0.1718  0.1949  0.0142
18640W        W34534  13.036   4.726  10.531  0.0151 -0.0712  0.1700
18641W        W34535   0.930   5.796   4.951 -0.5204 -0.0918  0.0326
18642W        W34536  19.038  15.098  13.795  0.0442  0.1282 -0.0534
18643W        W34537   1.488  15.294   1.662  0.0550  0.0800 -0.0758
18644W        W34538   3.738  10.420   4.020  0.1999  0.1719 -0.0781
18645W        W34539  16.750  18.915   5.644  0.1481  0.2683 -0.1182
18646W        W34540   9.528   9.738   3.416 -0.0704  0.1719  0.1460
18647W        W34541  17.845  16.107  10.883  0.2072  0.2177 -0.2239
18648W        W34542   4.514  18.345  11.546 -0.1689 -0.0046  0.1778
18649W        W34543  16.771  15.868   1.981  0.1581  0.0784 -0.1240
18650W        W34544   7.178   2.476   3.873  0.0920  0.1509  0.1309
18651W        W34545   2.998  11.448   4.130 -0.1581  0.4999  0.2882
18652W        W34546   8.641   7.452   1.882 -0.3661  0.0759  0.2993
18653W        W34547   3.770   5.312   4.189 -0.1263 -0.1560  0.2514
18654W        W34548   3.965  12.529   1.184  0.1754 -0.1097 -0.0001
18655W        W34549   9.851  10.125   2.636  0.0956  0.2857  0.0093
18656W        W34550  15.527  11.068   3.331 -0.0805  0.4376  0.6287
18657W        W34551   7.040  13.537  10.174  0.0099 -0.2154  0.3391
18658W        W34552   5.281   3.383   2.639  0.0192 -0.2130 -0.1090
18659W        W34553   7.457  12.638   0.596  0.0610 -0.1738  0.2325
18660W        W34554   6.772   8.967   1.978  0.0323 -0.0045  0.1787
18661W        W34555   2.589   6.841   1.339 -0.0751 -0.0851 -0.2102
18662W        W34556   8.693  10.838   0.400  0.2000  0.0920 -0.2368
18663W        W34557   9.965   1.571   3.479  0.2490  0.0907 -0.1685
18664W        W34558   3.252  13.495  10.787  0.0772  0.0024 -0.2534
18665W        W34559   8.152  16.885  11.938  0.1216 -0.1125 -0.1088
18666W        W34560  14.514  10.010  13.795  0.0643 -0.3112 -0.1691
18667W        W34561   0.379  14.469   3.014 -0.1063 -0.0806 -0.1697
18668W        W34562   6.815  15.631  13.931 -0.2057  0.2364  0.3559
18669W        W34563   5.115  11.302   3.013 -0.4426  0.3969  0.0645
18670W        W34564  15.926  18.204   0.729 -0.2734 -0.1162  0.3432
18671W        W34565   6.069  12.604   3.397  0.1783 -0.0480 -0.0018
18672W        W34566   3.717  15.203   1.719 -0.1199  0.2094  0.1439
18673W        W34567   9.726   6.314  10.598 -0.1593  0.0228  0.4117
18674W        W34568  14.726  12.818   1.070  0.1324 -0.2293 -0.0307
18675W        W34569   7.506   1.457  12.920  0.0956  0.1796 -0.4084
18676W        W34570   8.563   1.782  13.210  0.1718  0.0486  0.3430
18677W        W34571  11.197  10.750   4.776  0.2721  0.2859 -0.3109
18678W        W34572   7.088  14.498  11.908 -0.0310 -0.1072  0.2574
18679W        W34573   6.632  13.156   4.592  0.1516  0.0029 -0.2349
18680W        W34574   3.493  11.014   4.691  0.1079 -0.1152  0.2354
18681W        W34575   1.564   6.448   4.637  0.4144  0.0068  0.1221
18682W        W34576   2.433   4.864   0.741  0.0152  0.0124  0.2016
18683W        W34577  14.244   0.706  13.968 -0.0500 -0.3348 -0.1003
18684W        W34578  14.975  19.118   2.986  0.2248  0.3241  0.1580
18685W        W34579   3.778   5.812  13.118 -0.3107  0.0669  0.1562
18686W        W34580  16.634  14.159   0.694 -0.0769  0.0741 -0.2460
18687W        W34581  14.539  17.604   1.912  0.3269  0.0884  0.1164
18688W        W34582   4.741   0.085  14.139 -0.0690 -0.1642  0.0701
18689W        W34583   5.248  16.876  12.844 -0.1106 -0.1426  0.0953
18690W        W34584   5.421   2.287  14.457 -0.0375  0.1736 -0.1620
18691W        W34585   0.614   8.829  10.656 -0.0996  0.1648  0.1786
18692W        W34586  10.365   1.978  13.110 -0.0337 -0.0382 -0.0278
18693W        W34587  10.822  14.479  10.621  0.1311 -0.1648  0.1303
18694W        W34588   3.094   1.467  12.388  0.0967 -0.2535 -0.0278
18695W        W34589  17.080  12.925  14.962  0.1640  0.1686  0.1315
18696W        W34590  12.636   2.314   4.076 -0.0025 -0.4000 -0.1163
18697W        W34591  16.503  14.021  11.686 -0.1139  0.0410  0.1038
18698W        W34592   1.834  18.904  11.523 -0.0771  0.0820  0.0874
18699W        W34593   5.927  13.170   1.282  0.0995  0.0552 -0.0924
18700W        W34594   4.853   9.950  14.375  0.0303 -0.1064 -0.0627
18701W        W34595   1.018  11.517  10.873  0.1221  0.2374 -0.2794
18702W        W34596   4.950  18.554   1.474  0.2516  0.2072 -0.1002
18703W        W34597   3.354   5.508   6.050 -0.1953 -0.0078  0.0877
18704W        W34598   7.693   2.103   4.430 -0.0738 -0.0755 -0.0281
18705W        W34599  18.096   0.268   0.866  0.2374 -0.2100  0.2083
18706W        W34600  18.667   6.156   0.773  0.0260  0.0273  0.1534
18707W        W34601   9.653   7.393   4.994  0.3432  0.1338  0.3220
18708W        W34602   7.749   9.075   4.265  0.0844 -0.1346  0.1857
18709W        W34603   4.927   5.696  12.223  0.0442 -0.0703 -0.0055
18710W        W34604   1.639   0.674  14.678 -0.0707 -0.0929 -0.1855
18711W        W34605  11.802  14.224   4.242  0.1946  0.1567  0.1244
18712W        W34606   9.818   3.555  14.005  0.1533 -0.1343  0.0471
18713W        W34607  11.416  10.043  13.714 -0.1646  0.0835  0.0729
18714W        W34608   3.418  17.485  13.129 -0.1018  0.2864  0.0072
18715W        W34609  14.822  17.416   0.046  0.1074 -0.0143 -0.3775
18716W        W34610   1.330  16.594   1.474 -0.2656  0.1222 -0.1991
18717W        W34611  12.062  12.986  12.763 -0.3674 -0.2260  0.0617
18718W        W34612  16.674  12.601   3.825 -0.0839 -0.0753 -0.4073
18719W        W34613   6.565   4.102  11.453  0.1807 -0.3625 -0.1648
18720W        W34614  15.736  11.748  11.531 -0.3814  0.0064 -0.1352
18721W        W34615  16.438   9.786  12.325  0.1880  0.3644  0.1182
18722W        W34616  13.993   6.295  12.289 -0.4167  0.1092  0.0129
18723W        W34617  17.977   3.424   5.576 -0.3811  0.0944  0.0418
18724W        W34618   3.276  12.318   4.578 -0.0776 -0.0953  0.1336
18725W        W34619   3.469  12.220  14.605 -0.0494  0.1335  0.0698
18726W        W34620  17.320   7.789   4.265  0.0106 -0.2658  0.0539
18727W        W34621   6.320   3.134  14.172 -0.2639 -0.0226 -0.0182
18728W        W34622   0.638   7.415   4.470 -0.2374  0.0189  0.2602
18729W        W34623  10.759   8.156  11.561 -0.1551  0.1368  0.0145
18730W        W34624   0.545   9.986   4.341  0.1463 -0.1348  0.3498
18731W        W34625   3.241  16.200   0.310 -0.2210  0.2857  0.2779
18732W        W34626   5.253   7.638  13.930  0.3304 -0.1446  0.2200
18733W        W34627  12.518  18.458   2.536  0.3139 -0.3137 -0.1645
18734W        W34628  10.519  15.225  11.479  0.1312  0.1720 -0.0100
18735W        W34629  15.629  18.493   1.654 -0.1522  0.2131  0.0077
18736W        W34630  10.772  17.011   1.079  0.1692 -0.2667  0.3326
18737W        W34631  17.318   4.400   5.379  0.1246  0.0510  0.0814
18738W        W34632  13.200  18.236   0.152 -0.2173 -0.1450  0.2349
18739W        W34633   7.372  16.812  12.746  0.0546  0.0924  0.0898
18740W        W34634   0.066  11.784  14.888  0.0089 -0.1574 -0.0874
18741W        W34635   8.210   4.398   2.421 -0.2581 -0.1431  0.0504
18742W        W34636  14.446  14.071  13.164  0.1822  0.0439 -0.1663
18743W        W34637  12.385  10.698   4.661  0.0343  0.2604  0.1833
18744W        W34638  13.885  13.676   1.031 -0.1307 -0.1075  0.0948
18745W        W34639   2.934  11.590   5.094 -0.3706 -0.0761 -0.2972
18746W        W34640   1.154   9.887   4.995  0.0057 -0.0051 -0.2654
18747W        W34641   0.155  11.529  10.262 -0.2932  0.2228  0.0207
18748W        W34642  15.822   9.649   1.672  0.1395 -0.2842  0.0539
18749W        W34643  19.175   1.076  10.866 -0.1349 -0.0957 -0.0127
18750W        W34644   2.690   4.947   2.627 -0.3253  0.1678 -0.3713
18751W        W34645   1.853   4.335   0.356 -0.1302 -0.5186  0.0284
18752W        W34646   3.501  11.149   2.751  0.3228  0.1270  0.1630
18753W        W34647  17.588   0.783  11.909 -0.1356 -0.0955 -0.0874
18754W        W34648  18.769   8.643  14.595 -0.0422  0.2331 -0.0405
18755W        W34649  10.790   3.633   5.136  0.0841 -0.1337 -0.0012
18756W        W34650  16.498  12.451  13.474 -0.5486  0.0758  0.0954
18757W        W34651   5.830  10.658  13.995  0.0371 -0.1477 -0.3063
18758W        W34652  12.121   6.651   3.952 -0.0624  0.2769  0.0944
18759W        W34653   8.753   2.967   1.179 -0.1845 -0.0876  0.0921
18760W        W34654  10.440   7.310   1.292  0.3224  0.1697  0.1347
18761W        W34655   2.117  18.609   4.577  0.4149  0.0239  0.0172
18762W        W34656  17.378   3.010  12.694  0.0517 -0.0887 -0.5263
18763W        W34657  16.761   9.003   3.219  0.1414 -0.0430  0.1815
18764W        W34658   1.223  14.924   1.053  0.0356 -0.0722 -0.1301
18765W        W34659   3.177   8.135  12.603  0.2292 -0.1675 -0.0603
18766W        W34660   5.790   0.399  10.511  0.3210 -0.0766 -0.1174
18767W        W34661   8.869   9.556  12.311  0.2363 -0.1622  0.2720
18768W        W34662  13.935   0.484  10.487  0.0970  0.3700  0.3773
18769W        W34663  10.656   0.945  10.753  0.1424 -0.1739 -0.0137
18770W        W34664   2.115   6.535  14.519 -0.0153 -0.0788 -0.1569
18771W        W34665  10.713  10.919  13.194  0.0009 -0.3922  0.4992
18772W        W34666  15.615   0.073   1.779 -0.3894 -0.1200 -0.1879
18773W        W34667   9.851  10.593  12.825 -0.2147  0.2553 -0.0896
18774W        W34668  17.355  17.234   3.680  0.3168  0.0990 -0.0420
18775W        W34669   4.106   9.266   0.233 -0.1615  0.1596  0.0405
18776W        W34670   6.487   0.856  11.624 -0.1768 -0.0223 -0.0568
18777W        W34671   8.460  14.839   4.295  0.2136 -0.2521 -0.2764
18778W        W34672  14.805  14.335  11.459 -0.1171  0.0665  0.0662
18779W        W34673  13.892  18.441   4.313 -0.1836 -0.0959 -0.0822
18780W        W34674   9.240   8.884  14.274 -0.2826 -0.4621  0.2108
18781W        W34675  10.462  10.413  14.075 -0.0670 -0.0137 -0.3846
18782W        W34676  18.758  14.613  14.978  0.3254  0.0846  0.0048
18783W        W34677  12.088  13.413   3.140 -0.3381  0.5468 -0.0029
18784W        W34678  16.936  18.647   1.442 -0.0087 -0.1343  0.1612
18785W        W34679  13.874   8.466  10.709 -0.0697  0.0755 -0.5296
18786W        W34680   7.534   0.082  10.811 -0.1146 -0.1567  0.1744
18787W        W34681   4.173   2.691  12.487 -0.1648  0.1996  0.0480
18788W        W34682   3.750   1.482  11.299  0.1091  0.2704  0.3109
18789W        W34683  16.921   9.652   0.167 -0.2959 -0.3141 -0.1916
18790W        W34684   5.219  15.649   3.938 -0.0372 -0.1099 -0.1414
18791W        W34685  10.409   2.777  14.139  0.1369 -0.0565 -0.0574
18792W        W34686   7.907  14.999   2.195  0.0355 -0.1596  0.0531
18793W        W34687  12.584  15.260  12.180  0.1884  0.0344  0.1502
18794W        W34688   8.575  12.935   3.919 -0.0377 -0.2223  0.1440
18795W        W34689   1.568   3.099   3.846  0.0235 -0.0188  0.1355
18796W        W34690   3.576  19.096   3.641  0.2733  0.0149  0.2334
18797W        W34691  15.698   5.520   3.594  0.1690 -0.1974 -0.1499
18798W        W34692   9.723  11.418   1.111  0.0371  0.0747  0.1996
18799W        W34693   4.262   4.227  13.746 -0.0432 -0.0230  0.2064
18800W        W34694  15.993  17.967   5.267 -0.0207 -0.3866 -0.0638
18801W        W34695  17.164  13.389   1.646 -0.1284  0.2030  0.0311
18802W        W34696   2.197  11.443  10.550 -0.2782 -0.2753  0.1649
18803W        W34697   3.833   4.382   4.634 -0.3651  0.2336  0.1248
18804W        W34698   1.612  17.736   0.966 -0.2638 -0.1245 -0.3615
18805W        W34699   0.976  12.826   9.967  0.1128 -0.0075  0.0729
18806W        W34700  18.927   4.455   2.971 -0.2266  0.0798  0.2499
18807W        W34701   4.328   0.589   2.500  0.4630  0.1825  0.0547
18808W        W34702   9.882  10.879   1.138 -0.1279  0.0671 -0.1788
18809W        W34703   6.332  16.121  11.299 -0.6160 -0.1237  0.0822
18810W        W34704  14.406   5.430  10.691  0.4161 -0.0150  0.1840
18811W        W34705   0.421   0.624  14.939 -0.2996 -0.0392 -0.2175
18812W        W34706   8.564   8.314   5.445 -0.0618  0.2562 -0.1280
18813W        W34707   8.855   0.831   5.608 -0.1788 -0.0618 -0.1517
18814W        W34708   6.523   6.729   1.385 -0.0353 -0.1693 -0.0635
18815W        W34709  10.142  15.911   2.949  0.0681  0.0613  0.2633
18816W        W34710  15.746   5.831  13.157  0.1381  0.0449  0.2653
18817W        W34711  15.610  17.826   0.518  0.1455  0.1288  0.2273
18818W        W34712   6.725   7.828  10.306  0.0459  0.3008 -0.2193
18819W        W34713  19.076   1.428  11.219  0.2858  0.1060 -0.2031
18820W        W34714  15.117   2.794   2.602 -0.0375  0.2776  0.1272
18821W        W34715   1.096  15.500  11.722 -0.2738  0.1276  0.0514
18822W        W34716  18.281   3.152   0.730 -0.2117 -0.0328 -0.1406
18823W        W34717   1.272   4.044   5.329 -0.1769 -0.0351 -0.1948
18824W        W34718  18.029   0.712  12.540  0.0045  0.2235 -0.2934
18825W        W34719   5.993   2.511   1.591 -0.1656 -0.3009 -0.1163
18826W        W34720   3.232  13.677   2.526 -0.1272  0.0980 -0.0167
18827W        W34721   1.913  16.559   4.628 -0.1170 -0.0559  0.3771
18828W        W34722   2.550   1.972   4.328  0.0160  0.1636 -0.1936
18829W        W34723  17.516  11.823  10.327 -0.0355  0.2575  0.1554
18830W        W34724  12.162  11.406   1.137 -0.4389  0.0889 -0.0428
18831W        W34725  16.087   8.179   3.283 -0.0985  0.1754  0.0763
18832W        W34726  10.335   2.941  10.938 -0.0448  0.1317 -0.1878
18833W        W34727  18.151   9.197   3.210 -0.0231 -0.2343  0.0964
18834W        W34728   9.435   0.762  12.105  0.1054  0.0119 -0.0768
18835W        W34729   4.880   0.740  13.690  0.0637 -0.3852 -0.2167
18836W        W34730   0.948  10.828  11.352  0.2962 -0.0682  0.1319
18837W        W34731   6.490   3.751  12.482  0.3144  0.2728 -0.1828
18838W        W34732   6.676   3.115   0.704  0.1689  0.1014 -0.1502
18839W        W34733  12.220   4.251  14.660 -0.2097 -0.0797 -0.0541
18840W        W34734   0.447  14.503   4.607  0.0127  0.0092  0.0221
18841W        W34735   9.106   4.654  11.419  0.1447 -0.0737 -0.0413
18842W        W34736  10.394   8.818   0.850 -0.0203 -0.0810  0.0910
18843W        W34737  10.612  11.641   0.175 -0.0458 -0.0395  0.0084
18844W        W34738  13.065   5.149  11.292  0.1083  0.1999  0.1227
18845W        W34739  15.736  13.695  11.113  0.3115  0.1142  0.1325
18846W        W34740  13.010  13.103   3.386  0.0353 -0.0067  0.2458
18847W        W34741   3.200   8.451   0.486 -0.0984 -0.3880  0.3009
18848W        W34742   1.376  14.246   0.350 -0.2343  0.1218  0.2335
18849W        W34743   5.846   1.910   2.871 -0.1437  0.2170 -0.2595
18850W        W34744   6.949  12.463   3.135  0.1616 -0.0822 -0.2139
18851W        W34745   7.173   2.703   4.856 -0.0948 -0.0395 -0.1579
18852W        W34746   3.400   2.086   1.294 -0.0745  0.0966  0.2549
18853W        W34747  15.718   2.990  15.091  0.1873  0.0802 -0.1410
18854W        W34748  18.176  16.982  14.892  0.0846 -0.0835 -0.1390
18855W        W34749   8.044  10.675  14.420 -0.3217  0.0056  0.0266
18856W        W34750  12.037   9.190  14.616  0.0405 -0.3213 -0.0828
18857W        W34751  15.244  15.618   0.062  0.1911 -0.0387  0.1283
18858W        W34752  16.987  15.913  12.514 -0.1751 -0.2108  0.2649
18859W        W34753   9.728  16.031   3.161  0.4691  0.2583 -0.0752
18860W        W34754  18.832  18.764   0.272 -0.3153 -0.0390 -0.0226
18861W        W34755   8.056  18.515  11.156  0.0749 -0.0147  0.1655
18862W        W34756  14.686  15.319   1.002  0.1685 -0.2165  0.0430
18863W        W34757   0.499   4.059   3.703 -0.1517 -0.0713  0.1485
18864W        W34758  17.134   5.184   4.624 -0.4643 -0.1214 -0.1501
18865W        W34759  16.086   5.393   5.657  0.0003  0.1397 -0.0490
18866W        W34760  10.319   0.608  14.989 -0.0097  0.0412  0.3251
18867W        W34761   4.461  10.166  11.979  0.0515 -0.0329 -0.1933
18868W        W34762   5.228  19.085   2.331 -0.0909  0.0912 -0.4361
18869W        W34763   9.556   3.568   1.358  0.0844 -0.1012 -0.1862
18870W        W34764   3.690  18.708   9.794 -0.1714 -0.0112 -0.2445
18871W        W34765  11.716  10.289   3.939 -0.4863  0.0979  0.2907
18872W        W34766  18.265  10.261   0.055  0.1959  0.0045  0.2489
18873W        W34767   1.496  13.598   2.366 -0.1540  0.3112  0.2191
18874W        W34768  13.497  15.146   3.255  0.1733  0.0367 -0.1629
18875W        W34769  18.401   2.207   4.000 -0.4362  0.1509  0.3792
18876W        W34770   0.887   1.289   2.942 -0.1103 -0.1528  0.1903
18877W        W34771  15.479   2.888  11.121  0.1562 -0.0967 -0.0265
18878W        W34772   0.019   6.161  12.980  0.2354  0.0850 -0.3122
18879W        W34773  13.409   3.467   1.316  0.1062  0.0023 -0.0112
18880W        W34774   3.256  10.852  13.838 -0.2012  0.2861  0.0669
18881W        W34775   2.259  18.649   1.860 -0.1804  0.0576 -0.3958
18882W        W34776   1.116   6.149   3.103  0.1988  0.3948 -0.0187
18883W        W34777  12.313   3.807   2.745  0.0200 -0.1229 -0.0053
18884W        W34778   5.360   3.530   3.118 -0.1718 -0.1705 -0.1021
18885W        W34779   1.327  16.934  10.594 -0.3772  0.1858 -0.1709
18886W        W34780   9.657   8.213  13.035  0.0791  0.1109  0.0970
18887W        W34781   3.596  13.884   3.198  0.0155 -0.1670  0.1678
18888W        W34782   7.134  10.981   1.553 -0.0578 -0.1426 -0.0939
18889W        W34783   5.854   6.991  14.184  0.3748  0.1074  0.1076
18890W        W34784   6.183   9.492  14.325 -0.3160 -0.0600  0.0175
18891W        W34785   9.472   6.488  14.424 -0.0761 -0.1233  0.0785
18892W        W34786   8.570   0.397   4.014 -0.2584  0.1389  0.0249
18893W        W34787  16.029  18.494   5.162 -0.0440 -0.0018 -0.4054
18894W        W34788   7.076   6.746   0.554  0.0987 -0.0126  0.1227
18895W        W34789  11.817  11.648   2.538 -0.3520  0.3469  0.0977
18896W        W34790   6.961  13.862  10.844  0.1363  0.0292 -0.4182
18897W        W34791  11.276   8.408   0.470  0.0352 -0.0884 -0.0160
18898W        W34792  10.026   0.146  12.872 -0.0664  0.0645 -0.3323
18899W        W34793   0.366  19.029   0.384  0.0417 -0.1211  0.4718
18900W        W34794   7.424  16.134  13.410 -0.1682 -0.2309  0.1851
18901W        W34795   1.369  14.953  13.373 -0.0587  0.0623  0.1534
18902W        W34796   6.704  18.714   3.629 -0.1254  0.2918  0.2257
18903W        W34797  18.623  15.795   2.931 -0.1354  0.0847 -0.0298
18904W        W34798  12.773   3.925   4.588 -0.0558 -0.1377 -0.0730
18905W        W34799  17.324   3.785   1.339 -0.0310 -0.0863 -0.1527
18906W        W34800   2.811  13.438   3.802  0.4220  0.0989  0.2418
18907W        W34801  13.169   2.607   2.332  0.0170  0.1330 -0.0029
18908W        W34802   6.218  18.567   2.732 -0.2971  0.0055 -0.1127
18909W        W34803   5.572  16.468   4.837  0.1056  0.1823 -0.2382
18910W        W34804  11.761  11.466  14.961  0.0069 -0.1551 -0.3282
18911W        W34805  18.712  11.867   0.982 -0.3427  0.0185 -0.2133
18912W        W34806  14.102   7.068  11.923 -0.1368  0.0379  0.0622
18913W        W34807  13.136   5.118  14.935 -0.3959  0.0568  0.0089
18914W        W34808  11.773  12.471   4.510 -0.0532  0.0895  0.0720
18915W        W34809   4.066  10.865   0.213 -0.0343  0.0861 -0.0615
18916W        W34810   5.420   5.136   5.554  0.0164  0.0950  0.1867
18917W        W34811   4.292   9.570   1.772 -0.0948  0.0170  0.0289
18918W        W34812   6.453   5.018   3.322  0.2656 -0.0541 -0.2306
18919W        W34813   2.392  14.981   5.376  0.3682 -0.0384  0.1378
18920W        W34814  11.580  16.835   0.439 -0.3557 -0.4054 -0.0481
18921W        W34815  14.538   5.124  14.851  0.2252  0.1202  0.2785
18922W        W34816   7.653  11.586  11.401  0.1713  0.3981  0.1425
18923W        W34817   3.001  10.944   0.186 -0.3111  0.3713 -0.0699
18924W        W34818  10.934  12.460   0.558 -0.4602 -0.1368 -0.2175
18925W        W34819   7.551   3.416   4.032  0.1066 -0.0950  0.2691
18926W        W34820   8.059   9.022  10.717 -0.2027 -0.0195 -0.0099
18927W        W34821   5.688   3.940   1.824  0.2716  0.0659 -0.0528
18928W        W34822   2.955  11.225  14.812 -0.1815 -0.0079  0.0737
18929W        W34823  12.200  17.069   2.405 -0.1729  0.0440  0.1531
18930W        W34824  14.227  11.823  11.496 -0.1254 -0.1875  0.3727
18931W        W34825   3.580  16.698  10.471  0.2317 -0.0109 -0.0601
18932W        W34826   0.904   1.825  10.968  0.0071 -0.0204  0.2403
18933W        W34827  12.762  15.739   4.432  0.0860  0.0101 -0.1660
18934W        W34828   2.087   5.004  13.854 -0.1292 -0.0391  0.3360
18935W        W34829   1.751  13.158  12.951  0.2052 -0.0950 -0.1491
18936W        W34830   3.071   1.839  13.209 -0.2133 -0.3570 -0.0733
18937W        W34831   1.363  10.406   0.597 -0.2004 -0.1420  0.1763
18938W        W34832  14.689  12.646   1.686  0.0515 -0.0018 -0.0456
18939W        W34833   2.501  15.956   0.945  0.1289  0.0301 -0.3467
18940W        W34834  14.610   1.486   1.017 -0.2407  0.0918 -0.1567
18941W        W34835  10.485   4.393  13.593 -0.0342 -0.4874  0.2703
18942W        W34836   5.956  13.203  14.140  0.2097 -0.0470  0.1622
18943W        W34837  16.757  17.867  14.663  0.1783  0.1774 -0.0213
18944W        W34838  13.459  18.486   5.621 -0.1207  0.2630 -0.2453
18945W        W34839  14.029   9.229   0.740 -0.0246 -0.0920  0.0494
18946W        W34840   5.134   1.791  14.322 -0.1249 -0.3447  0.0264
18947W        W34841   5.023  11.053   0.783  0.3418 -0.0449 -0.4350
18948W        W34842   1.332   5.027   4.092  0.0692 -0.1608 -0.2646
18949W        W34843   7.958  11.181   0.314 -0.2562  0.0426 -0.2923
18950W        W34844   8.287  12.558  13.541  0.1515 -0.2687 -0.1634
18951W        W34845  17.627  10.404   0.277 -0.0439  0.1023  0.2929
18952W        W34846   6.358  14.819   3.328 -0.4717 -0.0512 -0.0867
18953W        W34847  18.820   7.593   3.188 -0.0387 -0.0071  0.1675
18954W        W34848  10.760  11.208  11.824 -0.2786  0.2098  0.5480
18955W        W34849   7.354  10.853  13.932 -0.2270  0.0873 -0.2660
18956W        W34850   3.713   3.146  10.875 -0.4128 -0.0764 -0.2307
18957W        W34851  16.035   1.647  10.718 -0.1623 -0.1151  0.2350
18958W        W34852  12.998  17.358  13.412  0.4648 -0.1391 -0.2371
18959W        W34853   9.819  13.017   4.194 -0.1510  0.0510 -0.1997
18960W        W34854  16.048   4.956  13.095 -0.1653  0.0097  0.0867
18961W        W34855   9.286   5.784   5.059 -0.1903  0.1461  0.3729
18962W        W34856  14.640   5.596  12.676 -0.1759 -0.0126 -0.0133
18963W        W34857  15.358   3.964   2.607 -0.1002  0.0259  0.0925
18964W        W34858  10.691   2.647   4.721 -0.0978  0.0971  0.0994
18965W        W34859  12.095   8.619   2.017  0.2077  0.1507 -0.0924
18966W        W34860  11.026  16.448  10.992  0.1728  0.2287 -0.0967
18967W        W34861   0.450   1.744  13.960  0.1118 -0.2234  0.2913
18968W        W34862   5.296   3.918  12.011 -0.1334 -0.1858  0.0874
18969W        W34863   7.733   0.755   3.909  0.2012  0.1127  0.0301
18970W        W34864   5.262  14.486   2.552 -0.1061 -0.0125  0.2516
18971W        W34865  13.011   8.490   1.981  0.1500 -0.1523  0.1745
18972W        W34866   0.393  14.175  12.074  0.1805 -0.0620  0.2755
18973W        W34867   4.949   5.478  13.458 -0.3619 -0.0324 -0.0224
18974W        W34868  10.899  11.921   3.493 -0.0289 -0.1485 -0.1091
18975W        W34869  14.215   9.892   3.332 -0.1926  0.1278  0.2737
18976W        W34870   8.393  18.961   0.701  0.3071 -0.2567  0.0723
18977W        W34871  18.351   2.896   3.378  0.2157 -0.0899  0.0591
18978W        W34872   2.829   7.683  14.582  0.3485 -0.3832  0.0561
18979W        W34873  15.633  14.637  13.692 -0.1097  0.2193  0.8108
18980W        W34874   7.662  17.272   1.682  0.2964  0.0694  0.1172
18981W        W34875   3.551  16.210   1.153  0.0329 -0.0601 -0.2856
18982W        W34876   4.062  10.106  12.352  0.2567  0.0074 -0.0603
18983W        W34877  13.622  13.016   3.471  0.0041 -0.2829  0.3148
18984W        W34878  10.635   7.597   0.251 -0.2521 -0.1842  0.3718
18985W        W34879  15.499   4.360  11.423 -0.0606  0.3043  0.2648
18986W        W34880  14.725  16.462  10.381 -0.0449 -0.2263 -0.3009
18987W        W34881   8.530   9.086  10.862  0.0527  0.0933  0.3116
18988W        W34882  18.047   8.792   2.553 -0.3798 -0.2952 -0.1232
18989W        W34883  12.089   0.758   3.273 -0.1504 -0.1435  0.0266
18990W        W34884   2.752  11.582   2.142  0.1788  0.1246  0.0243
18991W        W34885   8.565   8.763  11.946 -0.2925  0.0553  0.1127
18992W        W34886   4.288   3.457   0.552 -0.2472  0.0690 -0.1101
18993W        W34887   9.257   5.365  12.518 -0.2002  0.4694 -0.0183
18994W        W34888   0.757  13.265   1.523 -0.2450 -0.2326 -0.4250
18995W        W34889  14.730  17.179  12.290  0.1126 -0.1093  0.2399
18996W        W34890  10.872   6.490  12.119  0.0269  0.2448  0.0721
18997W        W34891   8.283   5.700  13.647  0.0159  0.2779 -0.2509
18998W        W34892   5.334   7.180  14.106  0.0156  0.1945  0.0019
18999W        W34893  11.841  16.188   2.226 -0.2415 -0.0189 -0.0257
19000W        W34894   7.357   8.180   4.536 -0.2409  0.2185 -0.1461
19001W        W34895   2.825  11.812   3.253  0.2427  0.5753  0.1716
19002W        W34896  18.818  16.042   0.864 -0.0381  0.0417  0.0348
19003W        W34897  17.933  18.437   4.911 -0.0297  0.0717  0.1460
19004W        W34898   3.039  18.738   3.465 -0.1210  0.1938  0.1273
19005W        W34899   6.964   4.981  11.829 -0.0527 -0.1434  0.1471
19006W        W34900   8.408  14.910   1.134  0.4036 -0.2280  0.2457
19007W        W34901   9.532   2.741   4.073 -0.1952 -0.0053  0.1022
19008W        W34902   6.884  10.684   1.912  0.2283 -0.2852  0.0638
19009W        W34903   0.019   3.570   3.095 -0.0978 -0.1397 -0.3159
19010W        W34904  13.064  16.685  10.458 -0.0725  0.2673 -0.1496
19011W        W34905   2.662  18.829  11.280 -0.5174  0.2672 -0.2298
19012W        W34906  11.839  13.810   2.899  0.1043 -0.2394 -0.0424
19013W        W34907  14.494   1.662  11.760 -0.0794  0.2545 -0.1785
19014W        W34908  12.476   1.110   0.461  0.3581  0.2271 -0.1053
19015W        W34909  10.815   8.392   2.637  0.2259  0.0826 -0.2050
19016W        W34910   4.570  12.109   2.819 -0.2059 -0.4130  0.1083
19017W        W34911  15.214  15.254  10.486 -0.2064 -0.0788 -0.0079
19018W        W34912   7.522  13.876  10.898 -0.0812 -0.1324 -0.1309
19019W        W34913  18.663   6.418   2.456  0.2373  0.0081 -0.1047
19020W        W34914  12.627  10.795  12.785  0.2654  0.0284 -0.1873
19021W        W34915  17.467   6.251  10.579  0.0855  0.4995  0.1282
19022W        W34916  11.487  17.699   3.943  0.0560 -0.0237 -0.1473
19023W        W34917  12.327   6.288   1.610 -0.3217  0.4089  0.0485
19024W        W34918  13.607   0.616   2.011 -0.1192  0.1662 -0.2714
19025W        W34919   8.711  15.272   1.772 -0.2949 -0.1403 -0.3302
19026W        W34920  15.341   2.677  10.593 -0.0523 -0.3392 -0.2316
19027W        W34921   0.206  13.157  10.073  0.1062 -0.1451  0.3815
19028W        W34922   0.485   6.285  12.721  0.0899 -0.1718 -0.1270
19029W        W34923   6.026  16.623  11.556 -0.0018  0.3399  0.2121
19030W        W34924  13.979  15.563  13.391 -0.0911 -0.1258 -0.0286
19031W        W34925   1.789   0.162  12.973 -0.0641 -0.3370  0.2886
19032W        W34926   7.300   1.699   4.943 -0.1796 -0.1274 -0.0696
19033W        W34927   8.789  13.602  13.448  0.2846  0.1120 -0.0495
19034W        W34928   5.131  13.455  12.199  0.2972  0.0202  0.1068
19035W        W34929   7.248   7.906   3.779 -0.0052  0.2615  0.1626
19036W        W34930  11.710  14.384  10.186 -0.0828 -0.2898 -0.0938
19037W        W34931  15.308  18.697   4.905  0.0314  0.3241 -0.0855
19038W        W34932   2.382   2.725   2.161  0.2557 -0.0501  0.1514
19039W        W34933  14.957  10.104   0.002  0.0088  0.0644 -0.0416
19040W        W34934   9.769  14.074  13.141  0.0555 -0.1159 -0.2046
19041W        W34935  10.224   6.454   2.482  0.1115  0.0173 -0.0591
19042W        W34936  10.683   0.398   0.257 -0.0251  0.6378 -0.2890
19043W        W34937   2.498   6.869  13.785  0.2469  0.2415  0.1656
19044W        W34938   5.788  11.301   3.751 -0.0408 -0.3107 -0.0140
19045W        W34939  12.033  12.988   2.617  0.1547  0.3677 -0.0469
19046W        W34940  13.919   5.729  14.565  0.0937  0.0585 -0.3218
19047W        W34941   1.075   8.618  12.899  0.1843 -0.0386  0.0527
19048W        W34942   5.212   5.898   4.409 -0.3598  0.3817  0.3017
19049W        W34943  10.018   4.531  13.473  0.2448  0.0963 -0.0229
19050W        W34944  13.340  16.512   2.236 -0.0185 -0.3654  0.3124
19051W        W34945  10.914  14.742   2.664 -0.0092 -0.0476 -0.0534
19052W        W34946   7.389  16.316   1.377  0.4741 -0.0652  0.2359
19053W        W34947   1.032  15.442   2.153  0.3883  0.0536  0.1033
19054W        W34948  14.105   3.443   4.509 -0.0259  0.0627 -0.1892
19055W        W34949   2.182  12.626  13.729 -0.1701  0.0326  0.0487
19056W        W34950   4.631  11.448   9.593  0.1154 -0.1481 -0.1308
19057W        W34951   9.695  12.182  12.725  0.3785  0.0075 -0.0298
19058W        W34952  11.976   7.926  13.359  0.0819 -0.4183  0.1657
19059W        W34953   2.574  13.746   0.905 -0.1799  0.0133  0.0551
19060W        W34954   1.291   6.534   1.115  0.2138  0.1310 -0.2553
19061W        W34955  11.540  14.980   0.645 -0.1714 -0.0362 -0.0951
19062W        W34956   1.072   6.612  14.432  0.1256  0.0833  0.0620
19063W        W34957  16.958   1.848   2.904 -0.1827 -0.1915  0.1139
19064W        W34958   8.664   2.958  11.538 -0.0697  0.0240 -0.0744
19065W        W34959   6.494  16.369  13.704  0.2601 -0.0846  0.0538
19066W        W34960   9.748  14.407  13.693  0.2322 -0.0790  0.2726
19067W        W34961  14.437   5.004   2.444  0.1533 -0.5727 -0.0740
19068W        W34962   7.464  16.669   0.948  0.0937 -0.1201 -0.0027
19069W        W34963   5.610   7.795   1.589 -0.1847  0.2166  0.0750
19070W        W34964   2.534   5.861   2.189  0.0838  0.0923 -0.1481
19071W        W34965  12.846   7.159  13.214  0.1006 -0.1618 -0.0534
19072W        W34966  13.601   1.592  11.243  0.3086  0.0399 -0.0177
19073W        W34967   9.723  16.070   0.101  0.2989  0.2170 -0.0185
19074W        W34968   9.507  19.084   3.026 -0.0546  0.2188  0.1556
19075W        W34969   0.687   6.574   5.533 -0.3028  0.2918 -0.1142
19076W        W34970   0.553   4.485   3.190  0.2893  0.2682 -0.2042
19077W        W34971   0.707   6.772   1.848  0.2254  0.3519  0.0835
19078W        W34972   4.933  18.900  14.274  0.0615  0.2894  0.1340
19079W        W34973  14.034   2.261   2.225  0.0482 -0.1275 -0.1826
19080W        W34974   8.162  11.681   1.167  0.1100  0.0451  0.6327
19081W        W34975  11.756  11.140   1.585 -0.5753  0.0058 -0.0406
19082W        W34976   3.877   0.847  11.668  0.1041  0.1396 -0.1807
19083W        W34977   8.222   6.847  14.754 -0.3087 -0.1716 -0.0545
19084W        W34978  13.811  14.225   0.019  0.0207  0.0581  0.1554
19085W        W34979   1.105   8.416  12.384 -0.4133 -0.1488  0.4055
19086W        W34980  13.927  16.630  13.914  0.2603 -0.2342 -0.1080
19087W        W34981  16.669  13.868   3.990  0.2805  0.0752 -0.0342
19088W        W34982   5.806  17.862  13.378  0.0772  0.3776  0.2207
19089W        W34983  12.780  12.081   3.044 -0.1389 -0.0586 -0.0541
19090W        W34984  14.862  14.410   3.208  0.3551 -0.2159 -0.1208
19091W        W34985   4.168   5.867   4.478 -0.3661 -0.4429 -0.4337
19092W        W34986  11.535   3.354  13.953 -0.2563  0.0607  0.0742
19093W        W34987   6.572  17.961  12.018 -0.0648 -0.3302 -0.0795
19094W        W34988  16.378   5.839   2.145  0.1780 -0.1820  0.0484
19095W        W34989   3.970  17.391   4.926  0.1343 -0.0743  0.0862
19096W        W34990  14.435  11.862   0.231  0.1191 -0.4367  0.0350
19097W        W34991  17.459  18.458   5.328  0.1423 -0.1674  0.1256
19098W        W34992   9.173  14.899  10.615 -0.1188 -0.1045 -0.1516
19099W        W34993   3.404   3.364  11.181  0.0756 -0.0469 -0.1018
19100W        W34994   0.767  15.643  12.087 -0.1476 -0.2783 -0.0305
19101W        W34995  17.204  10.173  13.447  0.3788 -0.0683  0.1321
19102W        W34996  19.120   5.956   4.391 -0.1249 -0.3099  0.2339
19103W        W34997   6.418   9.764   5.178 -0.0349  0.0107  0.2890
19104W        W34998   4.690  13.548   4.973  0.1925  0.1190  0.2824
19105W        W34999   0.325  19.045  10.837 -0.2123 -0.0657 -0.2393
19106W        W35000   0.582   4.994   5.961  0.2820  0.0014  0.0523
19107W        W35001  14.873   9.255   0.298 -0.4303  0.0082 -0.0514
19108W        W35002   7.836  10.435   2.864 -0.0491 -0.1278 -0.2206
19109W        W35003  14.013   3.859   0.545  0.4643 -0.2628 -0.1480
19110W        W35004  15.934   0.630  10.069 -0.2643  0.4239  0.1241
19111W        W35005  10.380   4.171  11.983 -0.1125  0.2220  0.4035
19112W        W35006  17.963   6.857   2.455 -0.2869 -0.1770  0.0676
19113W        W35007   9.733   4.045  12.869  0.4131 -0.1019  0.1087
19114W        W35008   3.143   1.281   5.513  0.0460 -0.1475 -0.3706
19115W        W35009   4.712  14.158  13.303 -0.2443  0.3166 -0.3105
19116W        W35010   6.493  11.975  12.993  0.0118  0.1577  0.0019
19117W        W35011   9.609  12.737   1.637  0.0081 -0.0044 -0.1646
19118W        W35012   4.037   7.103  12.847 -0.0517  0.3016  0.0179
19119W        W35013  13.284   5.499  11.024  0.1955 -0.1911  0.1887
19120W        W35014   7.182   8.816   2.345  0.0235  0.0709 -0.0022
19121W        W35015  10.087  14.331  14.652  0.1431  0.5113  0.7265
19122W        W35016   1.649  18.043   1.893 -0.1416  0.3065 -0.3057
19123W        W35017  14.601   0.928  10.818 -0.1058 -0.1840  0.1335
19124W        W35018   7.468  11.029  11.369  0.0855  0.0518 -0.1074
19125W        W35019  12.864   4.097  14.256 -0.1013  0.4165 -0.3442
19126W        W35020   3.287  11.309   3.686  0.0235  0.0584  0.2578
19127W        W35021   9.970   0.705  11.762 -0.0036 -0.1229  0.0643
19128W        W35022   6.817  11.258   1.797 -0.1755  0.0162  0.1917
19129W        W35023   1.616   0.168  14.778 -0.0038 -0.1307 -0.0019
19130W        W35024   2.841  13.927   2.567 -0.0468  0.0016 -0.1361
19131W        W35025  11.366  13.966   8.958  0.1597  0.1155 -0.3117
19132W        W35026  18.958  12.094  11.555  0.0798 -0.3267  0.1305
19133W        W35027   7.015  10.903   5.116  0.1561 -0.0429 -0.0590
19134W        W35028  11.523  17.846   0.385  0.0530 -0.1244  0.0471
19135W        W35029  15.534  14.746  12.479 -0.4415 -0.0169 -0.0312
19136W        W35030  14.506   2.062   9.941 -0.2317 -0.0940 -0.1228
19137W        W35031   1.573   4.468   3.403 -0.3107 -0.0036  0.4427
19138W        W35032  11.934  17.534   3.935 -0.1138  0.1514 -0.0462
19139W        W35033   0.010  15.607  10.177 -0.3264  0.3226 -0.2740
19140W        W35034  12.954   6.702   3.373 -0.2935  0.5971  0.0343
19141W        W35035   6.567  15.329  13.550  0.0991  0.0195  0.0832
19142W        W35036   0.139   8.265   3.521 -0.1221 -0.0370  0.0562
19143W        W35037  11.488   7.240  12.631  0.1321 -0.1433 -0.0583
19144W        W35038   0.990  11.195   2.356  0.0701  0.1381 -0.1208
19145W        W35039  13.083  14.114  12.489 -0.2114 -0.0133  0.1009
19146W        W35040  13.521   8.250   3.250  0.0621  0.0617 -0.1169
19147W        W35041   9.185   8.098   0.657  0.0933 -0.1063 -0.2374
19148W        W35042   1.292  13.443  12.854  0.2409 -0.0028 -0.1567
19149W        W35043  15.972   7.944  11.586 -0.1247 -0.0717 -0.0859
19150W        W35044   3.649   9.035  12.436 -0.0764 -0.3883 -0.1038
19151W        W35045  13.143  10.789   1.519 -0.3398  0.1322  0.3292
19152W        W35046  13.165   9.462   4.487  0.0889  0.2297  0.3463
19153W        W35047   9.222  13.609   3.537  0.1822 -0.1132 -0.1233
19154W        W35048  14.973  13.382   5.197 -0.0329  0.0313  0.0336
19155W        W35049  17.904   5.571   6.485  0.1955  0.3814  0.1462
19156W        W35050   5.728   9.726  13.418 -0.0148 -0.2038  0.2267
19157W        W35051   9.082  13.359   4.359 -0.1720 -0.1148 -0.3308
19158W        W35052   1.569  11.400  14.167 -0.0663  0.0028 -0.1949
19159W        W35053   2.009   6.041   2.477  0.1298 -0.0231 -0.1900
19160W        W35054   9.483   2.348   3.777  0.2239 -0.1598 -0.4495
19161W        W35055   7.141  10.588   1.221 -0.1421  0.0724 -0.3048
19162W        W35056   8.062  10.687  10.135  0.0160  0.1712 -0.1842
19163W        W35057   5.110   6.547  11.451  0.0408 -0.2127  0.1475
19164W        W35058  18.664   0.179  11.005 -0.0047  0.1260  0.0846
19165W        W35059   9.326   1.468  13.485 -0.0733 -0.3088 -0.3900
19166W        W35060   5.039  12.984   0.572  0.2537 -0.5363  0.1887
19167W        W35061  15.610   5.280  13.789  0.0393  0.2154 -0.0437
19168W        W35062  10.277  14.833   0.529  0.1466 -0.2665  0.1591
19169W        W35063  18.748  14.263  10.570 -0.1107 -0.0285  0.0816
19170W        W35064   0.578  16.737   3.297 -0.0433  0.0229  0.0169
19171W        W35065  19.069   0.789   9.871  0.3221 -0.0194 -0.0637
19172W        W35066   5.690  14.888  13.530  0.1900 -0.1125 -0.0598
19173W        W35067  13.482   2.266  12.269 -0.2565  0.2476 -0.3828
19174W        W35068  12.528  17.241  13.982 -0.0073  0.4484  0.0092
19175W        W35069  10.810   1.006   3.850 -0.2794  0.0413  0.3052
19176W        W35070   2.649   6.698   5.468  0.0948  0.1537 -0.0154
19177W        W35071   6.085  10.858   1.104 -0.0743 -0.2416 -0.0559
19178W        W35072   3.964   2.124   0.372 -0.0357  0.1923  0.2054
19179W        W35073   6.676   3.174  13.786 -0.0051  0.0702 -0.1197
19180W        W35074   3.439  15.252   9.606  0.0996 -0.0509 -0.1150
19181W        W35075  18.587   0.901   2.473  0.1545 -0.2158  0.0225
19182W        W35076   5.077  19.188  12.840 -0.0432  0.3236  0.2379
19183W        W35077   0.905  11.215   4.622 -0.1990 -0.3801  0.0827
19184W        W35078   6.172   7.070  13.707  0.0135 -0.1247  0.0901
19185W        W35079   0.417   4.035   1.666  0.0560 -0.1234 -0.1602
19186W        W35080  18.666   7.903  13.367  0.0371 -0.2667 -0.0411
19187W        W35081  18.451   5.838   2.022 -0.2231  0.0105  0.1640
19188W        W35082  13.400   6.586  11.475 -0.2845  0.2738  0.3829
19189W        W35083  17.378   9.525  11.426 -0.2129 -0.0263  0.1550
19190W        W35084   3.778   3.769  11.883 -0.2797 -0.0740 -0.2112
19191W        W35085  14.957   3.984  13.810  0.1680 -0.2579  0.0191
19192W        W35086   1.121   3.471   5.654  0.0335  0.0538 -0.1170
19193W        W35087   5.840  15.590  13.002  0.3993  0.1657 -0.2768
19194W        W35088   3.639  16.221   2.819  0.1640 -0.2365 -0.2160
19195W        W35089  17.874  16.427   4.972  0.1276  0.2773 -0.1800
19196W        W35090  11.864   1.265  13.233  0.0340 -0.1702  0.1874
19197W        W35091   0.593   3.796  13.984  0.0827  0.3419 -0.2767
19198W        W35092  11.392  12.307   1.039 -0.0098  0.0828 -0.1164
19199W        W35093  10.421   7.365  14.793 -0.2096  0.3808  0.0291
19200W        W35094  16.141   6.117   1.099  0.3390  0.0496  0.0916
19201W        W35095   2.882  18.600  15.106  0.2873 -0.3985 -0.0546
19202W        W35096  13.132  14.505  14.378 -0.0069 -0.0132  0.2362
19203W        W35097  12.276   0.752   1.727  0.2793 -0.3014 -0.2319
19204W        W35098   3.168  16.557   9.375  0.0943 -0.1163  0.0381
19205W        W35099   5.822  11.836   2.519 -0.2067 -0.0340 -0.4805
19206W        W35100  10.557   3.502  10.851 -0.1674  0.1685 -0.2342
19207W        W35101  12.718  19.216  11.084  0.0350  0.1141 -0.2610
19208W        W35102  10.697   7.260  14.358 -0.5016 -0.1053 -0.0310
19209W        W35103   9.520  15.063  14.424  0.1440  0.0276  0.0712
19210W        W35104  10.964  12.534  12.136 -0.0716 -0.0325  0.1660
19211W        W35105   8.426   6.977  12.609  0.0422 -0.1021  0.1321
19212W        W35106  15.956   9.204  13.694 -0.2376 -0.2435  0.1683
19213W        W35107   7.917  18.841   0.743  0.0307  0.0374 -0.1378
19214W        W35108   9.641  15.944  12.873 -0.0580  0.0211 -0.1289
19215W        W35109   0.747   4.337  14.024 -0.2212  0.0359  0.2352
19216W        W35110  14.291   8.775   1.481  0.5153  0.1350 -0.0126
19217W        W35111  11.617   7.598   2.402  0.1904  0.0653  0.1274
19218W        W35112  14.141   3.564   3.891  0.3347 -0.2186 -0.1218
19219W        W35113   1.572  10.441   4.685 -0.1133 -0.3374  0.3509
19220W        W35114  12.758   8.140   2.262 -0.0435 -0.4165 -0.0749
19221W        W35115  15.791   0.682   2.922  0.0415  0.1822 -0.1682
19222W        W35116  16.513   7.832   5.246 -0.2856  0.1617 -0.2414
19223W        W35117  11.961   1.707   3.925 -0.1143 -0.0787 -0.2554
19224W        W35118  16.162   2.638   1.161 -0.2507  0.0390 -0.0535
19225W        W35119  12.232  11.794  10.848  0.0393 -0.3639 -0.0343
19226W        W35120  12.420  12.769   3.929  0.1008  0.0067 -0.0480
19227W        W35121   1.269   0.277   0.336 -0.1053  0.0447 -0.2699
19228W        W35122   1.460  18.668  11.707 -0.4259  0.1277 -0.0248
19229W        W35123   7.587  13.762   3.675 -0.2775  0.2278 -0.2304
19230W        W35124   2.383   4.378   1.867  0.1878  0.2231 -0.1501
19231W        W35125  10.236  15.882   0.287 -0.0181 -0.2099 -0.3732
19232W        W35126   5.771   7.339  13.825 -0.1587  0.0027 -0.2412
19233W        W35127   6.933   4.513   4.256 -0.1021  0.2365  0.1190
19234W        W35128  16.015  17.034  12.265 -0.1612  0.0566 -0.0313
19235W        W35129   6.771   1.104   3.116 -0.1102 -0.1009 -0.2494
19236W        W35130   9.723  11.084   4.650  0.2744  0.0400 -0.1780
19237W        W35131   3.933  13.808   0.891  0.1964 -0.1096 -0.1182
19238W        W35132  16.662   7.399   3.862  0.3047  0.2016 -0.3301
19239W        W35133  18.451  11.195   1.535 -0.0085  0.0572  0.2166
19240W        W35134   6.746   3.231  11.053 -0.5195  0.1830  0.0601
19241W        W35135  11.675  15.826  11.630  0.2414  0.3014  0.1112
19242W        W35136   7.865  15.424  12.402  0.0595 -0.0957  0.0444
19243W        W35137   9.691  18.800  13.077 -0.2746 -0.0678 -0.1251
19244W        W35138  15.154   7.730  13.261 -0.2858  0.1556 -0.0438
19245W        W35139   8.583   5.319  12.512 -0.1416  0.0381 -0.2007
19246W        W35140  14.688  11.980  13.509 -0.0114 -0.0476 -0.0134
19247W        W35141  14.650  15.793   3.064  0.1160 -0.0637  0.1279
19248W        W35142  17.001   4.856  14.750  0.1351 -0.2653 -0.0952
19249W        W35143   0.598   1.498   2.124  0.3484  0.1528  0.0325
19250W        W35144   7.449   6.374  13.789 -0.0409  0.0240 -0.0648
19251W        W35145   7.102   3.788  14.273  0.0537 -0.1589  0.1561
19252W        W35146   0.121   3.304   2.680  0.1900 -0.3688 -0.2204
19253W        W35147  12.947   1.402  15.066 -0.0170  0.2356 -0.1305
19254W        W35148  10.881  11.696   3.061 -0.1729  0.2709  0.2138
19255W        W35149   5.333   2.498  14.952 -0.0865  0.2197 -0.2263
19256W        W35150  17.447  13.728   1.924 -0.2307 -0.2609  0.3132
19257W        W35151   7.485  15.895   3.175  0.2795  0.2517 -0.0643
19258W        W35152  10.613   3.014   1.120  0.0385  0.0771  0.0018
19259W        W35153   9.075   1.716   1.385 -0.1973 -0.0296  0.0506
19260W        W35154  13.145  10.250  13.439  0.3577 -0.0282  0.2134
19261W        W35155   7.952   6.242   2.981 -0.1565  0.0177  0.0190
19262W        W35156   9.393  17.434  13.478 -0.1043  0.1161  0.3199
19263W        W35157   6.696   5.475   1.880  0.0513  0.4376  0.3900
19264W        W35158  16.096  19.103   4.017 -0.0903 -0.0102 -0.0119
19265W        W35159   1.142  12.662   3.259  0.0025 -0.0679 -0.0620
19266W        W35160   0.387  13.171  13.468  0.2211  0.1797 -0.1876
19267W        W35161  15.628  18.011   2.553 -0.2044  0.0418 -0.2234
19268W        W35162   8.076  18.752   1.666  0.1178  0.0024  0.1376
19269W        W35163  16.492   0.818   3.145  0.1507 -0.1977 -0.0152
19270W        W35164  13.415   9.823  14.506 -0.2199  0.2635 -0.0076
19271W        W35165   4.668   7.123  11.529 -0.0110  0.0583  0.1042
19272W        W35166   3.649  10.948  12.195  0.1373  0.3005 -0.1703
19273W        W35167  15.966   9.279   2.024  0.3312 -0.2091  0.2389
19274W        W35168   9.197   8.305  14.204  0.1759  0.0022 -0.1965
19275W        W35169  12.353  13.417  12.479 -0.3358  0.2010 -0.0181
19276W        W35170  11.022   7.354  12.721  0.5708  0.0945  0.1734
19277W        W35171   6.506   9.125   1.611  0.3421  0.3955  0.0048
19278W        W35172   6.913   3.747   0.588 -0.0151  0.1021  0.2708
19279W        W35173  16.229  15.655   2.916  0.0098  0.1332  0.1207
19280W        W35174  12.974   8.807   2.796  0.2617  0.1114 -0.0477
19281W        W35175  14.732   6.656   2.736  0.0631 -0.1554  0.1447
19282W        W35176   6.721   0.006   5.596  0.0171  0.0621 -0.2131
19283W        W35177  12.204  19.038  11.090 -0.1271 -0.0849 -0.0729
19284W        W35178  14.062   3.480  12.932 -0.0590  0.0899 -0.1411
19285W        W35179   1.982  17.432  14.049 -0.1903  0.0558 -0.0248
19286W        W35180  15.921  15.848   3.876 -0.1390 -0.1605  0.1416
19287W        W35181   0.509   9.535   0.951  0.0745 -0.1057 -0.0997
19288W        W35182   3.563   3.479   0.196  0.1123  0.0333  0.0594
19289W        W35183  10.429   5.948  11.443  0.0556 -0.3477  0.0162
19290W        W35184   4.028   0.729  12.941  0.3672  0.1359 -0.0015
19291W        W35185  19.204  16.181   0.537 -0.0248 -0.0460 -0.1978
19292W        W35186   2.045   7.393  11.855  0.0016  0.1940 -0.1053
19293W        W35187   2.462   3.762  14.906 -0.2034  0.1052  0.2995
19294W        W35188  11.522   5.279  13.877 -0.1791 -0.0250  0.0102
19295W        W35189   8.223  10.981   0.713 -0.1759 -0.1497 -0.1298
19296W        W35190   8.588   1.627   1.496 -0.1764  0.5232 -0.4174
19297W        W35191  13.863  10.887  14.889  0.0171  0.2473 -0.2788
19298W        W35192   2.591  10.231  11.901 -0.1275 -0.0770  0.0675
19299W        W35193   5.670  17.393   2.635  0.3945 -0.4343  0.0278
19300W        W35194  15.020   5.529   1.342 -0.0861 -0.3760 -0.1277
19301W        W35195   8.324   9.467   3.219  0.0374  0.0365 -0.0115
19302W        W35196   4.356  15.985   4.331  0.0304  0.2198  0.1022
19303W        W35197  10.628   0.430   1.177  0.1043 -0.2108 -0.0411
19304W        W35198  15.360  16.928  14.124 -0.4395 -0.2793  0.0419
19305W        W35199   5.467   7.637   1.155  0.0839  0.2063  0.1405
19306W        W35200   2.441   5.863   2.891  0.3866 -0.4063  0.1309
19307W        W35201   9.353  12.338   1.214 -0.1132 -0.0706 -0.3223
19308W        W35202   6.521   3.885  14.390  0.2616  0.0994  0.1247
19309W        W35203   9.832   0.326   4.892 -0.1063  0.0751 -0.1919
19310W        W35204   9.849  18.631   1.130 -0.0791 -0.2289 -0.1053
19311W        W35205  17.218   5.283  13.832 -0.0350 -0.0465 -0.1843
19312W        W35206  10.869   5.605  11.212 -0.1408 -0.1719  0.0160
19313W        W35207  18.895  12.666  13.486 -0.0370 -0.5066 -0.0144
19314W        W35208   2.736  16.795  11.874  0.0838  0.2266  0.0719
19315W        W35209  16.012  11.948   3.009 -0.1987  0.1252  0.3881
19316W        W35210  15.184   7.242   2.067 -0.2824 -0.1647 -0.0986
19317W        W35211   4.015   9.940   1.605  0.3836 -0.3700 -0.0322
19318W        W35212  18.005  16.748   2.033  0.0499  0.0594 -0.1835
19319W        W35213   8.490   0.882  12.694 -0.1154  0.1259  0.0787
19320W        W35214   4.933  14.162  15.077  0.0015 -0.2080  0.2732
19321W        W35215   5.595   2.854  12.513 -0.2193 -0.1815  0.0502
19322W        W35216  13.640   4.437  11.573  0.3545 -0.1016  0.0364
19323W        W35217  15.737   7.012   1.982 -0.0992 -0.0854 -0.2070
19324W        W35218  19.106   4.065   1.568  0.0701 -0.0714  0.1658
19325W        W35219  10.012  11.018   2.305  0.2129  0.2487  0.0901
19326W        W35220  11.445   3.675  13.384  0.0576 -0.0068  0.1993
19327W        W35221  19.063  16.926   1.106 -0.1861 -0.0897 -0.1603
19328W        W35222   2.076  18.463  10.712  0.1320 -0.2665 -0.2063
19329W        W35223  15.379   5.705   0.077  0.2230  0.2420 -0.3402
19330W        W35224   6.672   1.860  13.270  0.0760  0.1734  0.0117
19331W        W35225   7.525   1.925  13.859 -0.1081  0.2261 -0.0827
19332W        W35226  14.861   6.349   5.387  0.3486  0.0625  0.1613
19333W        W35227  16.157  10.598  10.802 -0.0581 -0.0127  0.0178
19334W        W35228  19.119   4.634   1.682 -0.0877 -0.1884  0.3435
19335W        W35229   4.677  11.529   2.118  0.0750  0.1880  0.2139
19336W        W35230  16.978   3.383   2.110 -0.1130  0.1554 -0.0584
19337W        W35231   9.035  12.529  12.151  0.1476  0.2087 -0.2055
19338W        W35232   2.118  15.005  10.942 -0.1180 -0.2032  0.4144
19339W        W35233  18.926  12.794  11.172 -0.1866  0.3424 -0.2065
19340W        W35234  11.748   4.369  14.913 -0.2292  0.3282  0.0663
19341W        W35235  17.373  17.145   4.601  0.0120  0.1220  0.0381
19342W        W35236   8.122  11.107  13.061  0.0177 -0.1546  0.1087
19343W        W35237   8.231   9.885   4.272  0.0628 -0.3161 -0.0135
19344W        W35238   3.384   5.994   5.778 -0.0649  0.1251 -0.2348
19345W        W35239   6.745   7.163  12.973 -0.0046 -0.0599  0.1195
19346W        W35240  18.264  14.531   0.607 -0.3582  0.1598  0.0154
19347W        W35241   7.420   7.766  13.453 -0.0054 -0.3783  0.0925
19348W        W35242  16.661   5.532   4.071 -0.0135 -0.1177 -0.1658
19349W        W35243  14.071  11.563  11.037 -0.2942 -0.3052  0.1685
19350W        W35244  16.070   9.051   4.729  0.0962 -0.2243  0.0073
19351W        W35245   2.822  13.290   0.943  0.0031  0.2725  0.1569
19352W        W35246  18.535  14.392   4.151 -0.1863 -0.0206  0.2101
19353W        W35247   1.435   0.676   3.079  0.1259 -0.1957  0.0684
19354W        W35248   0.438  10.193  10.890 -0.2494 -0.0743  0.1601
19355W        W35249  13.473  11.921   0.897  0.0431 -0.1985 -0.0647
19356W        W35250   5.016  15.770   9.939 -0.1345  0.0167  0.2008
19357W        W35251   5.386  15.356  12.869 -0.2306 -0.2419  0.1323
19358W        W35252  11.069  13.762   4.101  0.2014  0.4437 -0.0028
19359W        W35253  14.854   9.209   4.386  0.2277  0.3005 -0.1309
19360W        W35254  11.924   7.430   0.274  0.0862 -0.2503  0.1083
19361W        W35255  19.213  13.450   2.061 -0.1326 -0.1224  0.0707
19362W        W35256  14.976   8.790  14.473 -0.3549 -0.0000 -0.1834
19363W        W35257   8.993   1.185   3.395  0.0424  0.0315  0.2833
19364W        W35258   4.705   3.122  14.017 -0.0409 -0.1332  0.4201
19365W        W35259  15.518   8.532   2.598 -0.3557  0.0893 -0.0384
19366W        W35260  11.153   8.439  10.363 -0.3180 -0.1873 -0.1167
19367W        W35261  18.745  17.163  11.722 -0.3692 -0.0095 -0.2276
19368W        W35262  14.476   3.959  13.478 -0.2166  0.1356 -0.0417
19369W        W35263   6.583   1.441   5.035 -0.0172  0.2909 -0.4490
19370W        W35264  17.348   4.432  11.991 -0.3285 -0.3978 -0.3115
19371W        W35265   0.654  18.136  13.464 -0.1058  0.3209 -0.0512
19372W        W35266   0.840   9.089   2.587  0.1473  0.0237  0.0608
19373W        W35267  14.907   3.282  13.105  0.3238 -0.0254 -0.0559
19374W        W35268   8.742  15.664  10.811  0.1022  0.0069 -0.0330
19375W        W35269   8.209  14.294  14.563  0.0752 -0.1337 -0.0996
19376W        W35270   6.309  15.506  13.036  0.1393 -0.1060 -0.1205
19377W        W35271   6.944  17.193   3.777 -0.0678 -0.1162 -0.2327
19378W        W35272   9.423   6.262   3.305 -0.1768 -0.0003 -0.1757
19379W        W35273  17.078   9.688   4.072  0.0521 -0.3229  0.0942
19380W        W35274  17.790  10.405  12.686  0.1056 -0.4447  0.0211
19381W        W35275  13.001  12.668  12.153  0.2625  0.1377 -0.3062
19382W        W35276  10.109   7.737  13.706 -0.0069  0.1366 -0.0954
19383W        W35277   3.056  11.094   5.224 -0.1591 -0.0854 -0.0369
19384W        W35278   4.367   4.782  13.735  0.0468  0.1524  0.2681
19385W        W35279  11.884   0.551  11.112  0.0189  0.2032 -0.1997
19386W        W35280  14.598   2.701  11.192  0.1426  0.1401  0.2029
19387W        W35281  10.177  11.387  14.406 -0.0440  0.0466 -0.2839
19388W        W35282  12.881  14.830   2.398  0.2697  0.0504 -0.1986
19389W        W35283  16.085   8.734  13.490 -0.0544 -0.0490  0.4008
19390W        W35284  10.171   1.527   5.839  0.2994  0.0468  0.1990
19391W        W35285   6.957  18.759   0.025 -0.1395  0.0084 -0.3163
19392W        W35286  15.760  16.388  14.662  0.3675  0.1507  0.0014
19393W        W35287  10.372   3.772   3.666  0.1429  0.1296 -0.4326
19394W        W35288  10.704   5.275  13.290 -0.1469  0.0541  0.0638
19395W        W35289  18.664   3.505   0.630  0.1046  0.1409 -0.0721
19396W        W35290  11.839   9.014   1.008  0.0216  0.0023  0.0945
19397W        W35291  11.242  14.132  14.372 -0.0387 -0.3108  0.3579
19398W        W35292   4.487   7.239   0.538  0.0477  0.0727  0.2193
19399W        W35293  17.982   6.038  12.820  0.0958  0.0543  0.2935
19400W        W35294   7.748  12.395  10.994  0.0817  0.2701 -0.0603
19401W        W35295   9.911  17.194   4.124 -0.2275 -0.0010  0.3587
19402W        W35296   2.612  10.777  15.039 -0.0491 -0.2006  0.0626
19403W        W35297   2.923   5.239  14.144 -0.4169 -0.2854 -0.3345
19404W        W35298   6.351   4.281   1.099 -0.4098  0.2088  0.1377
19405W        W35299  18.852   1.504   3.799  0.3639  0.0877  0.4904
19406W        W35300  17.188  17.574   2.406 -0.1747  0.0162  0.1277
19407W        W35301   7.271  15.838   2.331 -0.0801  0.0232 -0.2963
19408W        W35302   3.909  15.954   0.861  0.0632  0.2130  0.0171
19409W        W35303  12.395  13.105  10.522 -0.0719  0.2123 -0.1972
19410W        W35304   6.736  13.473   2.334  0.0020 -0.5229 -0.0327
19411W        W35305   0.179   5.121  14.622 -0.1029 -0.0024  0.0362
19412W        W35306  18.623  10.682   3.927  0.1249  0.4278 -0.4456
19413W        W35307  18.082  17.656  10.211 -0.2302 -0.3130 -0.0095
19414W        W35308   0.094  14.789   0.490  0.0111 -0.1656 -0.1929
19415W        W35309   3.108  14.355  12.807 -0.1115  0.1913  0.2127
19416W        W35310   8.536  14.077  13.461  0.3324 -0.1488 -0.0478
19417W        W35311  18.424   1.769  15.020  0.0893 -0.0340 -0.0990
19418W        W35312  13.506  13.700  11.130  0.1597 -0.0742  0.4210
19419W        W35313   2.415  18.718  10.438  0.0747 -0.0005 -0.0034
19420W        W35314   3.496  18.659   3.312  0.0647  0.0796  0.2470
19421W        W35315   1.715  18.451  14.541 -0.1489 -0.1402  0.0351
19422W        W35316   8.017   1.160  14.316  0.1977 -0.0390 -0.1215
19423W        W35317  15.042   2.148   4.851  0.0924  0.0744  0.0520
19424W        W35318   1.149   7.946   0.041 -0.0001  0.0460  0.1878
19425W        W35319   1.541  10.975  14.954  0.0314 -0.5080 -0.0914
19426W        W35320   8.125   0.467   4.873  0.1025 -0.0267 -0.1114
19427W        W35321   1.590   7.759   5.893 -0.2586  0.2080 -0.2073
19428W        W35322  11.361  11.377  12.564  0.0560 -0.0011 -0.2169
19429W        W35323  10.468  14.549  13.107  0.1212 -0.0384 -0.0664
19430W        W35324   5.504  14.215   5.321 -0.1653 -0.0229 -0.2443
19431W        W35325   6.266   6.683   0.828 -0.2864  0.2951  0.1639
19432W        W35326   4.065  14.938   0.592 -0.0006  0.0784 -0.2136
19433W        W35327   7.844  14.021   0.481  0.2465  0.1390 -0.0896
19434W        W35328   7.747  12.830  11.235 -0.3090 -0.0751  0.2968
19435W        W35329  17.839   8.182  10.640 -0.1408  0.1569 -0.0200
19436W        W35330  10.522   7.962  13.936 -0.2460 -0.2654 -0.2019
19437W        W35331   0.105  12.107   0.126  0.0975 -0.0740 -0.1352
19438W        W35332   9.834   8.892  11.525 -0.1448 -0.2786 -0.0681
19439W        W35333   8.010   4.982  15.093 -0.1279  0.2466  0.1347
19440W        W35334   6.253  16.638   2.379 -0.0240  0.1334 -0.0770
19441W        W35335  12.628   6.311   3.547 -0.0596 -0.2883  0.2613
19442W        W35336  11.934  18.198  14.083  0.0106 -0.1826 -0.0999
19443W        W35337  12.985   5.971  14.619 -0.0422 -0.0924 -0.1779
19444W        W35338  13.406   3.394  15.035 -0.0336 -0.2124  0.0980
19445W        W35339  13.981  14.641  11.289 -0.0506 -0.0352  0.2766
19446W        W35340   3.002  11.668  14.272 -0.2844  0.2404 -0.1477
19447W        W35341  15.345   0.826   5.065  0.1536 -0.1909 -0.1719
19448W        W35342   4.478  17.488   2.195  0.0598 -0.2070 -0.0690
19449W        W35343   8.447   2.428  12.258  0.2412 -0.0419  0.0185
19450W        W35344   5.895   1.585  13.751 -0.1826 -0.0402 -0.3392
19451W        W35345  16.576  10.533  11.468 -0.1439 -0.1435  0.2536
19452W        W35346   1.244  12.843  12.672  0.1279 -0.2882  0.3340
19453W        W35347   1.709   9.079   4.025 -0.0844 -0.2572  0.2184
19454W        W35348  10.017  12.316  12.277  0.1189  0.0441  0.0489
19455W        W35349   8.926  16.990   5.304 -0.0406 -0.1772  0.1621
19456W        W35350  17.125   1.207  13.484  0.2301  0.0716 -0.0188
19457W        W35351   6.008   6.639  11.059  0.1327  0.0849 -0.1750
19458W        W35352   2.189  16.600  12.919  0.1425 -0.1629  0.1700
19459W        W35353  14.812   3.367   5.343  0.1931  0.1258  0.1140
19460W        W35354  13.856   8.773  14.130  0.1996  0.1805 -0.1284
19461W        W35355  17.740   8.012  11.968  0.2351 -0.1895  0.2565
19462W        W35356  10.520  17.034  13.549  0.3113  0.2064 -0.5012
19463W        W35357   5.857  17.071  11.634 -0.3392 -0.1124  0.0175
19464W        W35358   5.142   1.810   0.064 -0.0037 -0.2538 -0.1587
19465W        W35359   2.335   2.129  12.299 -0.0499 -0.0879  0.1860
19466W        W35360   5.378   5.295  10.854  0.3586 -0.3032 -0.1131
19467W        W35361  17.807   8.220   1.787  0.1913 -0.0476 -0.0020
19468W        W35362  11.052  12.259   4.987  0.0498  0.1674  0.1073
19469W        W35363   2.228   0.735  11.018  0.1014  0.1524 -0.0715
19470W        W35364  12.377   9.151   0.791  0.1335  0.1517 -0.0807
19471W        W35365  11.385  11.051   3.197  0.0304 -0.2030  0.0210
19472W        W35366   0.342   2.932   0.626  0.0230 -0.1847 -0.0897
19473W        W35367  12.883  19.109   1.486  0.0593 -0.1459 -0.2466
19474W        W35368  10.754  10.804  12.667  0.1694  0.4035  0.2070
19475W        W35369  12.970   8.086   4.396  0.0784 -0.2503 -0.0102
19476W        W35370   8.726   1.998  14.419 -0.0752  0.2273  0.1330
19477W        W35371  10.635  17.491   0.207 -0.0229  0.1347 -0.0595
19478W        W35372   5.007   5.186  11.266 -0.2264  0.1486 -0.0371
19479W        W35373  16.667  18.982  11.754  0.1293 -0.0972  0.2680
19480W        W35374  14.818  16.436   0.205  0.0750 -0.2302 -0.1173
19481W        W35375  15.620  12.802   3.197 -0.1671  0.1901 -0.1156
19482W        W35376   6.815   6.620   3.202 -0.0747 -0.0500 -0.2543
19483W        W35377  15.654   3.370  11.283  0.3857 -0.0610 -0.1714
19484W        W35378   1.365   2.259  12.674 -0.0983  0.0138 -0.1677
19485W        W35379   2.104   9.116  10.442  0.0198 -0.3516 -0.0557
19486W        W35380   8.149  18.630   4.122  0.0976  0.0960 -0.0399
19487W        W35381   2.794  17.936   2.029 -0.0637  0.0203  0.2028
19488W        W35382   6.460   2.340  11.992  0.3416  0.0732  0.2552
19489W        W35383  15.364  11.003  13.250 -0.0029  0.0170  0.1304
19490W        W35384  17.809  13.440   1.718  0.1241  0.1584 -0.2823
19491W        W35385   0.515   5.884  13.107 -0.0300  0.0465  0.3633
19492W        W35386  14.450  15.101  11.118  0.1565  0.0398  0.1237
19493W        W35387  16.715   9.150   0.286  0.0505 -0.1825 -0.2693
19494W        W35388  11.851  13.212  13.669  0.1021  0.0603 -0.1251
19495W        W35389   0.491   7.463  14.536 -0.3365  0.0606 -0.1252
19496W        W35390   7.826  14.144  14.176 -0.2391 -0.0579 -0.1450
19497W        W35391  15.940  12.106  12.568 -0.0973  0.0392 -0.2784
19498W        W35392   8.045   3.070  13.583  0.1561 -0.1267  0.0089
19499W        W35393   0.364  14.302  12.668 -0.0887 -0.0484 -0.3625
19500W        W35394  12.415   4.510   3.470  0.0545  0.1337  0.0344
19501W        W35395  16.232   5.794  13.067  0.3021  0.1479 -0.3706
19502W        W35396   4.604   6.099   3.753  0.0067 -0.0536  0.0979
19503W        W35397   1.513   4.700  12.320 -0.1500 -0.0893 -0.0946
19504W        W35398   8.799  16.738  10.493  0.0741 -0.2154  0.2770
19505W        W35399   1.608  13.751   5.144 -0.1101 -0.1139  0.0783
19506W        W35400  10.814  15.566   0.111  0.2309 -0.1448  0.2179
19507W        W35401   5.999  19.192  12.997  0.1702 -0.0661 -0.0491
19508W        W35402   5.070   6.063  13.054  0.2087  0.0853  0.2258
19509W        W35403   5.991  12.263  14.714 -0.0852 -0.1394  0.0527
19510W        W35404  15.669  18.412   1.159  0.1619 -0.1857 -0.1866
19511W        W35405   3.086   6.745   1.583 -0.3513 -0.2213 -0.0441
19512W        W35406  18.076   6.121   0.207 -0.6005 -0.1878 -0.1880
19513W        W35407   1.488   2.329  11.664 -0.0802  0.1815 -0.2992
19514W        W35408   4.406   7.113  14.300  0.0847  0.4504  0.2392
19515W        W35409   6.764   1.702   4.036  0.1426  0.1630 -0.0372
19516W        W35410  18.091  14.884  14.367 -0.2716 -0.2085 -0.0039
19517W        W35411  17.504  12.048   4.331  0.1637 -0.1916 -0.1954
19518W        W35412  18.693  19.007  13.997 -0.5455  0.0409 -0.0811
19519W        W35413   7.928   8.930  14.618 -0.0094  0.0353  0.0614
19520W        W35414  14.935   2.450   4.314  0.0431  0.0722 -0.1984
19521W        W35415   0.983  15.356   1.142  0.1901 -0.0907 -0.0082
19522W        W35416   3.899   2.030  15.023  0.1246  0.1422  0.1539
19523W        W35417   2.743  16.283  13.508 -0.0859  0.2552  0.3124
19524W        W35418   6.937   4.044  13.446  0.0913 -0.0679 -0.1990
19525W        W35419  12.819   7.569  12.392 -0.1125 -0.0934  0.0065
19526W        W35420  17.489   2.210  11.323 -0.2376  0.0806  0.0065
19527W        W35421   7.295   3.563   4.689 -0.1616 -0.6424  0.1219
19528W        W35422  10.765   6.017  12.231  0.0417 -0.2406 -0.3434
19529W        W35423  11.638   8.856   0.595  0.1918  0.0526  0.1234
19530W        W35424  12.431   8.552   3.774  0.0773 -0.1005 -0.2850
19531W        W35425  13.108   2.982   4.494  0.0299 -0.0726 -0.1208
19532W        W35426  15.344   4.304  13.005 -0.1068 -0.2194 -0.1317
19533W        W35427  17.709  10.853  10.159 -0.0293  0.0863 -0.0827
19534W        W35428   5.196  12.226  12.249  0.0033  0.2129 -0.0485
19535W        W35429   4.590   2.287   1.532  0.1025  0.1390  0.0399
19536W        W35430   5.592   4.448  13.241 -0.0166 -0.0133  0.1715
19537W        W35431  15.067   1.422  13.131 -0.0898  0.5048  0.1293
19538W        W35432   1.383   7.696  14.703  0.1099 -0.0789 -0.0332
19539W        W35433   8.615  11.539  14.634 -0.0889  0.0739 -0.0977
19540W        W35434   4.061   3.869   5.411  0.2523 -0.1898 -0.1017
19541W        W35435   5.786  15.642   4.389  0.1206 -0.0581  0.2142
19542W        W35436   0.531   6.854   6.482 -0.1167  0.1226 -0.1278
19543W        W35437   3.017   7.583  11.588  0.1516  0.2317 -0.2476
19544W        W35438   2.942   1.886   1.331 -0.1313 -0.0118  0.0732
19545W        W35439   8.900  10.235   1.730 -0.1006 -0.0297  0.1551
19546W        W35440   0.475  12.108  14.765  0.0363  0.0937  0.1283
19547W        W35441   9.134  17.937  10.351 -0.2380  0.0036  0.1582
19548W        W35442   5.478  10.726  14.417  0.1727 -0.0009 -0.0321
19549W        W35443   0.934   0.718   3.041 -0.0131 -0.4123  0.1118
19550W        W35444  13.948   8.073   1.867 -0.0948  0.1326  0.0221
19551W        W35445  15.962   9.568   4.725  0.0397 -0.1626  0.2339
19552W        W35446   4.621  17.806  11.532  0.1073 -0.0201 -0.0802
19553W        W35447   2.878   8.541  12.806  0.0231 -0.3113  0.3133
19554W        W35448   3.412   9.701   2.387  0.0873 -0.1297 -0.0526
19555W        W35449  16.496   2.408   2.092 -0.0951 -0.3052 -0.3970
19556W        W35450   3.476  13.870  13.172  0.3041 -0.2196 -0.2658
19557W        W35451   4.473  14.214  12.210  0.0961 -0.1352 -0.1319
19558W        W35452  13.733  14.633  10.825 -0.2172 -0.1262 -0.0194
19559W        W35453  18.931  18.764  14.358 -0.1713 -0.2645 -0.1053
19560W        W35454  18.684   6.668  12.345 -0.0310  0.0533 -0.0525
19561W        W35455   9.088  18.667   5.132  0.1137 -0.0965 -0.1958
19562W        W35456  10.927   3.610  13.214 -0.1416  0.2244 -0.0992
19563W        W35457  14.473  13.462   0.393  0.2751 -0.2228 -0.0397
19564W        W35458   0.107  18.622   0.372 -0.1540  0.0295  0.3348
19565W        W35459  13.427  12.663  14.118 -0.1710 -0.1834  0.2108
19566W        W35460  13.076  11.862  12.540 -0.2919 -0.0280  0.1848
19567W        W35461   6.011  10.221  14.950  0.1174  0.2149  0.0099
19568W        W35462  10.524   7.436   1.778 -0.0446  0.3552 -0.2694
19569W        W35463   5.492  15.825  11.953 -0.3048 -0.0732  0.0170
19570W        W35464  16.624  12.137   0.876 -0.0410 -0.0606  0.3238
19571W        W35465   1.532   9.415   3.605 -0.0896  0.0614 -0.3484
19572W        W35466   8.185   0.152   0.906 -0.1446  0.1571 -0.2595
19573W        W35467   1.807   2.284  10.873  0.0598 -0.2862 -0.0086
19574W        W35468  15.957  17.714   4.197  0.2552 -0.1558 -0.1854
19575W        W35469   4.067   0.595  10.346 -0.0926  0.0140  0.2128
19576W        W35470   1.358   1.789  11.813 -0.1399  0.1634  0.0070
19577W        W35471   6.068  11.356   3.243  0.1802  0.1337  0.5315
19578W        W35472   9.666   0.272  11.856 -0.0886  0.2503  0.0291
19579W        W35473  18.736   7.982  13.927 -0.1838 -0.0378  0.1560
19580W        W35474   0.772  14.553   8.697 -0.1146  0.1122  0.1694
19581W        W35475   2.794   2.875   4.231 -0.0239 -0.0951  0.0134
19582W        W35476   4.450  15.623  13.701 -0.3467  0.0013 -0.0514
19583W        W35477   5.330  17.625   1.728 -0.1699 -0.0937 -0.2233
19584W        W35478   1.860  13.224  10.974  0.0195 -0.1872 -0.0854
19585W        W35479   2.020   0.312   4.390  0.0366 -0.2338  0.0612
19586W        W35480  12.084   3.297   4.752  0.0728  0.0358  0.0652
19587W        W35481   0.206  15.428  14.742  0.1051 -0.0664  0.0891
19588W        W35482  17.277   8.344  14.127  0.2443  0.0239 -0.3469
19589W        W35483   8.612   8.103   4.140 -0.2267 -0.0243  0.4688
19590W        W35484   7.784  15.838  14.636  0.2270 -0.0354  0.1483
19591W        W35485  14.402  11.063   1.259 -0.0520  0.1206  0.0629
19592W        W35486   6.368  15.253  11.416  0.0733 -0.1274  0.2200
19593W        W35487   5.664   4.593   0.586 -0.0755 -0.0916 -0.0084
19594W        W35488   2.651   5.832   3.519 -0.1678  0.1096 -0.2566
19595W        W35489  15.296  14.395   1.903 -0.1440  0.0420 -0.1392
19596W        W35490   0.503   9.185  10.954 -0.1166 -0.1130  0.0716
19597W        W35491  13.111   0.591  10.372  0.3124  0.1881  0.3791
19598W        W35492   9.127   1.330   5.351  0.1317 -0.1131  0.1571
19599W        W35493   0.736   7.558  11.262 -0.1880 -0.1296  0.0629
19600W        W35494  16.723  15.290   3.826 -0.1053  0.0610 -0.2275
19601W        W35495   7.436  13.703   1.536  0.2159  0.3272  0.3314
19602W        W35496   1.087   8.483   4.728 -0.0771  0.1564 -0.1367
19603W        W35497   5.346   7.172   2.780  0.2065 -0.0229  0.0413
19604W        W35498  11.731  18.265   2.309 -0.0298  0.0929  0.6535
19605W        W35499   0.614  14.998   2.955  0.0585 -0.1278 -0.1526
19606W        W35500  17.776   2.909  14.574  0.0148  0.1899 -0.0018
19607W        W35501   1.180   0.095  12.218  0.0078 -0.2146  0.0174
19608W        W35502  17.413  18.660   4.782 -0.1311  0.0063 -0.0140
19609W        W35503   8.576   8.200  14.346  0.1275 -0.3757  0.1516
19610W        W35504   6.531  16.611  14.526  0.1588 -0.0503 -0.2786
19611W        W35505   5.796  16.074   1.136 -0.1815  0.1268  0.0287
19612W        W35506   3.384   1.295   1.846  0.0170  0.2663 -0.3104
19613W        W35507  16.072  13.066  12.244  0.0628  0.3004  0.2457
19614W        W35508  14.015   0.561  14.384  0.2518  0.2571  0.1359
19615W        W35509   4.184  15.974  12.516  0.0965 -0.0727  0.1313
19616W        W35510  14.957  11.760  13.081 -0.2200 -0.0821  0.1748
19617W        W35511   0.170  12.144   5.311  0.0531  0.5951 -0.2067
19618W        W35512   9.789   9.018   1.666  0.2676  0.2114  0.0199
19619W        W35513  11.282  12.128   3.039 -0.2015 -0.1124 -0.0606
19620W        W35514   8.251  10.901   2.324  0.2898  0.1721 -0.1465
19621W        W35515  11.981  18.581  13.776  0.4789 -0.1383  0.0256
19622W        W35516   8.772  13.305  10.479 -0.2791  0.1862  0.4844
19623W        W35517  12.005  16.092   9.889  0.2146 -0.0051  0.0943
19624W        W35518   1.540  17.638  12.826 -0.1132  0.4715 -0.2433
19625W        W35519   5.475  10.521  14.965 -0.0397 -0.1607  0.0049
19626W        W35520  16.160   7.740   5.736  0.1132 -0.2735  0.1951
19627W        W35521   4.395  17.661   3.940 -0.2071  0.1872 -0.1562
19628W        W35522   4.361   8.194   3.339 -0.1949 -0.0977  0.1027
19629W        W35523   6.456   3.850   4.931  0.0556  0.2644 -0.0407
19630W        W35524   2.329   5.436   5.501  0.1023  0.0139 -0.0278
19631W        W35525  15.987  13.410  10.722  0.1433 -0.3572  0.1752
19632W        W35526  13.979  10.237  11.379  0.1025  0.3759 -0.0616
19633W        W35527  14.820   7.695  10.444  0.0083  0.2843  0.4552
19634W        W35528   8.710  17.181  11.173  0.1838 -0.0917  0.3985
19635W        W35529   7.469  11.957   2.692 -0.2094 -0.3176 -0.0016
19636W        W35530   1.826  14.373  15.031 -0.2378 -0.0215  0.1734
19637W        W35531  11.518  17.156  14.527  0.4229  0.1615  0.1099
19638W        W35532  13.614   7.676   1.905  0.2101  0.4972  0.1016
19639W        W35533   7.369   2.449  14.365  0.2803 -0.0714  0.3957
19640W        W35534   3.126  15.746  12.157  0.0565  0.0864 -0.4495
19641W        W35535  11.929  11.469   0.308  0.2058 -0.1747  0.0853
19642W        W35536  12.526  18.076   0.712  0.1650  0.2398  0.3166
19643W        W35537  15.900   8.124  14.398 -0.0199  0.0284  0.1921
19644W        W35538   3.566  16.773   1.176 -0.0621  0.0667 -0.1365
19645W        W35539  11.713  17.726   3.498 -0.0357  0.1906  0.1013
19646W        W35540  18.304   1.363   1.576 -0.1716 -0.0333 -0.1167
19647W        W35541  14.185   1.830  14.827  0.0479 -0.1461 -0.1999
19648W        W35542  13.519   6.031  13.338 -0.0199 -0.0331  0.0436
19649W        W35543  15.266  14.816   4.281 -0.0796  0.1950 -0.1026
19650W        W35544   9.387  15.553  10.784 -0.3021  0.2813  0.1211
19651W        W35545  13.233  18.298  14.544 -0.2391  0.3453 -0.1991
19652W        W35546   2.089   7.520  13.582 -0.0369 -0.3214  0.2808
19653W        W35547   8.544   5.470   2.003 -0.2000 -0.0044 -0.2459
19654W        W35548   6.760   5.225  14.621 -0.1929 -0.4636  0.0154
19655W        W35549  12.136  14.577   1.837  0.0025  0.2278  0.1995
19656W        W35550  13.094  17.096   3.051  0.2565  0.1188  0.3276
19657W        W35551  17.376  15.812  13.752  0.0076 -0.2044  0.0827
19658W        W35552  15.389  14.105  11.916 -0.1843  0.0516  0.2827
19659W        W35553   0.393  13.254   3.254  0.2618  0.2488  0.1551
19660W        W35554  15.909  11.466  14.718 -0.4844 -0.1043 -0.1156
19661W        W35555   0.701  14.965   9.056 -0.2273  0.1839  0.0454
19662W        W35556  12.822   7.726  10.929  0.2024 -0.0368  0.1274
19663W        W35557  15.527  18.703   0.693 -0.0542  0.1150  0.0408
19664W        W35558   7.688   1.321   5.011 -0.0975 -0.0849  0.1630
19665W        W35559  13.094   3.159  11.310  0.0041 -0.1453  0.1013
19666W        W35560  11.239  16.537   2.650 -0.1090  0.0756 -0.0875
19667W        W35561   3.074   1.687   1.800  0.2712  0.0188 -0.2934
19668W        W35562  14.232   5.926   0.480  0.1205  0.0984  0.1256
19669W        W35563  16.218  11.351  10.119  0.1458 -0.0605 -0.3663
19670W        W35564   6.010  11.281  11.770  0.1669  0.0453 -0.0651
19671W        W35565  18.544   1.096   0.822 -0.0151 -0.0356  0.0172
19672W        W35566  17.243   3.190   5.007  0.0660  0.2207 -0.0605
19673W        W35567   4.133  12.005   4.074 -0.0128 -0.1674 -0.0567
19674W        W35568   7.090   7.999   3.316 -0.0001  0.1187  0.0354
19675W        W35569   3.125  17.311  12.154 -0.2032  0.2515  0.3383
19676W        W35570   7.827   9.862  13.953  0.2262 -0.1580 -0.0804
19677W        W35571  14.469   3.657   2.684 -0.0733  0.1079 -0.0329
19678W        W35572  14.348  17.371  10.582 -0.0238 -0.0721 -0.2238
19679W        W35573  11.931   6.480   2.491  0.2959  0.0832  0.0619
19680W        W35574  18.063  14.239  11.180 -0.0419 -0.1104  0.1582
19681W        W35575   7.236   8.354  11.361 -0.0334  0.0335  0.3243
19682W        W35576  11.842   1.971  14.806 -0.1015 -0.0481  0.1488
19683W        W35577  17.176   4.104   3.229  0.3528  0.0506 -0.1758
19684W        W35578  18.937  18.774   1.230  0.0205  0.2551  0.0103
19685W        W35579  18.130  13.428   0.046  0.0557  0.3091 -0.0406
19686W        W35580   5.084   0.576   0.369  0.0054 -0.1427 -0.2702
19687W        W35581  16.502   4.275  14.950 -0.0038 -0.0532  0.0514
19688W        W35582   1.036   4.870   6.063 -0.0013  0.3538 -0.2624
19689W        W35583   5.521  13.524  11.305 -0.1171 -0.2057  0.0035
19690W        W35584  16.313  11.369   2.895  0.2254  0.2231  0.1630
19691W        W35585  11.305  11.360  13.366 -0.2479  0.1444  0.0529
19692W        W35586  17.389  14.245   1.185  0.2584 -0.3494  0.1216
19693W        W35587   5.310   5.946   5.972  0.0982 -0.1926 -0.3868
19694W        W35588   2.147   8.907   3.806  0.1260 -0.1734  0.0746
19695W        W35589   5.202  18.836   3.659 -0.2563 -0.1097  0.1490
19696W        W35590  16.904   6.261  10.722  0.1291  0.0697 -0.0171
19697W        W35591  11.266  10.890   5.325 -0.1372 -0.2307  0.4565
19698W        W35592  13.311  15.352   4.229  0.2921 -0.0157 -0.0871
19699W        W35593   9.173  15.434  13.536  0.3830  0.2100 -0.0686
19700W        W35594  12.030   0.584  14.439  0.2252 -0.0435 -0.0485
19701W        W35595  12.999  14.370  13.218  0.1480 -0.0502  0.1470
19702W        W35596   0.920  18.540   5.290 -0.4102  0.1065 -0.0571
19703W        W35597  11.702   8.019  14.398 -0.1268  0.2835 -0.1667
19704W        W35598   3.231   4.177   3.495 -0.0422 -0.3182 -0.0822
19705W        W35599   1.563   2.137   4.991  0.0057  0.0611 -0.2870
19706W        W35600   4.161   9.068  11.705  0.1966 -0.1856  0.3215
19707W        W35601  14.849  13.066  10.571 -0.2202  0.1692  0.3214
19708W        W35602   1.045   4.671   3.098  0.1624  0.1947 -0.0172
19709W        W35603  15.806   4.674  11.162  0.0123 -0.1946 -0.0154
19710W        W35604   9.682   0.066  13.244 -0.0428 -0.3356 -0.1550
19711W        W35605   1.873  17.043  10.662 -0.0523 -0.4444 -0.2144
19712W        W35606  13.093   4.461  11.981  0.3856 -0.1101 -0.2090
19713W        W35607  14.281  19.066  13.250 -0.0242  0.0399 -0.1736
19714W        W35608   0.886   3.333  12.416 -0.0546 -0.0452 -0.2729
19715W        W35609   4.320   8.240   2.019  0.1008 -0.2453 -0.1746
19716W        W35610  12.532  16.670  11.923  0.0506  0.1739 -0.1438
19717W        W35611   1.883  14.118  11.279 -0.0505 -0.1543  0.1118
19718W        W35612   6.002   6.043   2.295  0.0636  0.1844 -0.0359
19719W        W35613  18.726   8.856  13.997  0.0772  0.1393  0.0632
19720W        W35614   3.248  18.210  10.645  0.1003 -0.2719  0.3285
19721W        W35615   8.578  15.128  11.259 -0.1314 -0.0230  0.0963
19722W        W35616  18.459   9.715   1.692  0.1982  0.1864 -0.2147
19723W        W35617  14.724  13.573   4.146 -0.1270 -0.0645 -0.2060
19724W        W35618   5.652  16.839  14.268  0.1187 -0.1690 -0.1198
19725W        W35619   5.948   1.696  14.794 -0.1019  0.0158 -0.0651
19726W        W35620  18.533  17.780   2.897 -0.2069 -0.3057  0.0559
19727W        W35621  10.851   7.448  12.276  0.1420 -0.1672  0.1064
19728W        W35622   9.600   0.836   0.924  0.1253 -0.1632 -0.3892
19729W        W35623  14.738   6.220  10.821  0.0175 -0.1309  0.0939
19730W        W35624  17.957   4.266   1.554  0.0480 -0.0478 -0.0728
19731W        W35625   9.065   7.636  11.474 -0.1556 -0.5550 -0.1027
19732W        W35626  16.483  12.637   2.646 -0.0502 -0.0823  0.0450
19733W        W35627   3.754  17.796  14.788 -0.1034  0.1949  0.1586
19734W        W35628   3.873  12.289   5.470 -0.0009 -0.1226 -0.1016
19735W        W35629   5.971   9.806   2.162 -0.1136  0.1416 -0.3668
19736W        W35630  16.058  19.117   1.102 -0.0824  0.0836  0.0354
19737W        W35631   8.301   3.713  10.743  0.3389  0.0690  0.0225
19738W        W35632   2.756   8.669  11.500 -0.3199 -0.0539  0.1734
19739W        W35633   2.780   2.318   4.070  0.2380 -0.2657  0.1844
19740W        W35634   1.378   5.748   3.298  0.0515  0.2229 -0.0727
19741W        W35635   5.220   4.324   0.242  0.3255 -0.0291  0.0339
19742W        W35636   4.987  18.883  13.388  0.0165  0.0977  0.0298
19743W        W35637   2.467   2.516   2.669  0.4110 -0.1799  0.2308
19744W        W35638  18.310   5.620   3.685  0.1288  0.2757 -0.0003
19745W        W35639   4.615   7.708   2.956  0.0184 -0.1185  0.0113
19746W        W35640   8.531  11.259   4.632 -0.0230 -0.2989 -0.3470
19747W        W35641   6.666  14.097  14.807 -0.0824  0.1256 -0.1204
19748W        W35642  10.575   0.512  11.342  0.0781  0.1388  0.1344
19749W        W35643   6.582  15.078  14.612 -0.1338 -0.0306  0.1161
19750W        W35644  17.738   9.240  13.895 -0.0106 -0.3958 -0.1628
19751W        W35645   4.066  10.535   1.131  0.0667 -0.0353 -0.2272
19752W        W35646  10.914  12.888  11.704  0.0181  0.1425 -0.0500
19753W        W35647   5.069  10.185   4.558  0.0803 -0.2229 -0.0033
19754W        W35648  18.407  12.927   3.792 -0.0414 -0.1188 -0.1529
19755W        W35649   9.468  18.215   3.163 -0.0195  0.3256 -0.1224
19756W        W35650  11.627   0.013   5.412  0.0952 -0.1574 -0.1381
19757W        W35651   0.345   0.772   5.898  0.4642 -0.1661  0.2559
19758W        W35652   5.434  17.068   0.165  0.0304  0.0965  0.0505
19759W        W35653  14.158   8.247   3.211 -0.0148  0.0461 -0.1468
19760W        W35654   8.071   2.401  12.665 -0.2508 -0.0980  0.2649
19761W        W35655   3.348   7.139   0.677 -0.1140  0.1789 -0.1280
19762W        W35656   7.858  18.827   3.369  0.1860 -0.1232 -0.4098
19763W        W35657  16.713  19.211  13.484 -0.0135 -0.1413  0.0082
19764W        W35658   7.837  16.161  10.397  0.2379 -0.0565  0.0260
19765W        W35659  16.644   9.740  10.981 -0.0266  0.1995 -0.3199
19766W        W35660  11.303  14.355  10.784  0.0642 -0.1723 -0.1068
19767W        W35661   7.509   5.705   2.285 -0.1470  0.0131 -0.2455
19768W        W35662  12.547   2.592   1.170  0.0694  0.2012 -0.0709
19769W        W35663   9.126  19.216   0.094 -0.3753  0.0424  0.0912
19770W        W35664   7.860  13.547   4.576  0.3391 -0.1824 -0.3001
19771W        W35665   1.115   3.526   1.059 -0.3795 -0.0877 -0.3947
19772W        W35666   4.358   5.907  13.823  0.3375 -0.1325 -0.2421
19773W        W35667  16.409   7.108   5.816 -0.2698 -0.0895  0.1846
19774W        W35668  13.230  11.842  14.657  0.1651  0.1572  0.1106
19775W        W35669  17.817   6.699   4.731 -0.2258 -0.1058  0.0028
19776W        W35670   5.764   3.183  13.889 -0.2485  0.2601 -0.4342
19777W        W35671   3.212   7.214   3.159  0.0409 -0.3677  0.3363
19778W        W35672  14.265  13.667  12.859 -0.0055  0.2775 -0.0925
19779W        W35673   5.553  19.002   3.295  0.1576 -0.3047 -0.0225
19780W        W35674   7.568   2.233   3.724 -0.1184 -0.3457 -0.2357
19781W        W35675   6.592  13.121  13.264  0.1196 -0.0384  0.0677
19782W        W35676   2.742   8.212   0.681 -0.4950  0.0034  0.0304
19783W        W35677  15.642   1.958   2.490 -0.1766 -0.4720 -0.4025
19784W        W35678  18.325  16.561  12.073  0.0395 -0.0381  0.2280
19785W        W35679   6.346  10.984   2.728 -0.3658  0.0124  0.0809
19786W        W35680   7.304   8.873  11.350  0.2401  0.0539  0.0267
19787W        W35681  13.279   6.539  10.615  0.2729  0.1831  0.0568
19788W        W35682   8.632  12.405  10.479  0.2935 -0.4273  0.4769
19789W        W35683  10.129   6.045   5.254 -0.0018 -0.6676  0.2901
19790W        W35684   1.214   6.879  12.836 -0.5043  0.0640  0.2252
19791W        W35685   6.589   0.467  11.985 -0.2545 -0.0778  0.1928
19792W        W35686   6.919   9.989  10.878 -0.1261  0.3228 -0.0861
19793W        W35687  14.860   1.899   5.368 -0.1910  0.4801  0.0031
19794W        W35688  19.137  11.229   5.038  0.0329  0.4548  0.0950
19795W        W35689  10.359   7.837  11.586 -0.2003 -0.1182  0.0124
19796W        W35690  10.720   5.335  12.287  0.0394  0.0526  0.2914
19797W        W35691   1.280   1.043  11.366 -0.0011 -0.1876 -0.1306
19798W        W35692  14.746   5.553   3.415  0.0416  0.3187 -0.1185
19799W        W35693   4.683  12.800   1.011  0.1340  0.0953  0.1054
19800W        W35694  10.784  16.526  13.488 -0.0180 -0.2294  0.0586
19801W        W35695   0.414  14.715  10.326 -0.0234 -0.0829  0.0701
19802W        W35696  15.251  13.073  15.066 -0.0903  0.2371  0.3778
19803W        W35697   7.440  14.416  14.439 -0.3292 -0.0761  0.0518
19804W        W35698  15.659   8.021   4.698 -0.0862  0.1377  0.2792
19805W        W35699  17.898  18.024   1.817 -0.0124 -0.1049  0.0859
19806W        W35700   1.457   3.812   4.664 -0.0726 -0.1491  0.1127
19807W        W35701   4.907  18.623  13.782 -0.0555  0.2985 -0.0761
19808W        W35702   0.064  16.259   1.715 -0.2606  0.1611 -0.0509
19809W        W35703  13.616   6.001   2.066  0.1347  0.2296 -0.0277
19810W        W35704   5.148  13.768   4.772 -0.0479 -0.1080 -0.4083
19811W        W35705   9.658   7.145   1.756  0.2161  0.0764  0.1257
19812W        W35706   5.803   3.766   4.028  0.3311 -0.4720  0.4772
19813W        W35707  18.529   8.489  13.797 -0.1261  0.0470  0.1426
19814W        W35708  10.231   0.496   1.513 -0.0420 -0.1892 -0.3606
19815W        W35709  13.053  13.882   2.668  0.1400  0.2561 -0.0894
19816W        W35710  16.541   5.014   0.681 -0.1731  0.3799 -0.1689
19817W        W35711  17.120   9.785   3.583  0.0588  0.1674 -0.1626
19818W        W35712   1.654  16.930   4.882  0.2119 -0.1937 -0.0021
19819W        W35713  16.670   2.803  10.477  0.1869 -0.1499 -0.2385
19820W        W35714   4.955   4.165  14.065 -0.2102  0.0723 -0.2020
19821W        W35715   6.835   6.712   4.241 -0.1400  0.2618 -0.1055
19822W        W35716   7.241  16.576   1.910 -0.2277  0.1558 -0.0632
19823W        W35717  12.261   9.239  13.183 -0.0200  0.0419  0.0615
19824W        W35718  19.141  12.182  13.662 -0.1546 -0.0351 -0.4068
19825W        W35719   7.406  16.585   3.134  0.1798  0.3131  0.2006
19826W        W35720  14.483  17.113  13.719  0.2479 -0.0070 -0.3614
19827W        W35721  12.949   9.626  14.234 -0.2106  0.1314 -0.2771
19828W        W35722  13.489  13.616  14.254  0.1683  0.0103 -0.0364
19829W        W35723  17.820  11.843   1.082  0.0118 -0.1195  0.0335
19830W        W35724  15.511   5.763   1.480 -0.1610  0.1501 -0.0316
19831W        W35725   8.016   5.793   0.221 -0.1884  0.1807  0.3732
19832W        W35726   1.761  16.516   1.807  0.1236  0.1876 -0.0507
19833W        W35727  11.245  12.087   4.565 -0.1835  0.0293 -0.2459
19834W        W35728   3.060  15.489   3.033  0.2147 -0.1921 -0.0266
19835W        W35729   6.342  12.634   4.343 -0.1293  0.0079  0.0583
19836W        W35730   2.650   6.684  12.396  0.2445 -0.0107 -0.1641
19837W        W35731   0.908   7.686   2.697 -0.2036  0.1335  0.1227
19838W        W35732  10.504   9.406   3.510 -0.2329  0.0160 -0.3463
19839W        W35733   7.222   5.407   4.233 -0.2904 -0.0879  0.0597
19840W        W35734   1.497  15.412   1.097  0.3456  0.3706  0.1597
19841W        W35735   9.790  17.404  13.851 -0.0840  0.2014 -0.1460
19842W        W35736   3.191  17.234   0.770 -0.1319  0.0275  0.1863
19843W        W35737  15.936  16.868   0.696  0.2293  0.0195 -0.0246
19844W        W35738   1.631   4.856  13.678  0.0084 -0.0189 -0.0594
19845W        W35739  13.532  11.635   1.319  0.1291  0.2210 -0.0391
19846W        W35740  17.864  13.290  11.327 -0.0484  0.0236  0.2159
19847W        W35741   2.833  19.080   4.353 -0.1051  0.3100  0.2582
19848W        W35742  18.366   3.627  13.247 -0.2926 -0.1059  0.1028
19849W        W35743  10.810  16.775   2.615  0.0889  0.2367  0.1742
19850W        W35744   7.888   8.198  13.388 -0.2715  0.2056  0.3570
19851W        W35745  16.227  11.331  11.436  0.2510  0.0811 -0.1043
19852W        W35746   1.569  15.120   2.755  0.1477 -0.5236 -0.1289
19853W        W35747  10.803  19.064  12.573  0.2202  0.1842 -0.0705
19854W        W35748  14.024   3.955  13.136  0.3742  0.2215  0.2254
19855W        W35749   3.888   1.517  13.194 -0.0057  0.0298  0.0576
19856W        W35750  10.798  12.086   2.754  0.1841 -0.2258 -0.0967
19857W        W35751   7.525   6.038   0.386  0.0385  0.2062 -0.0667
19858W        W35752  17.753  12.854  12.949  0.4142  0.4680  0.0669
19859W        W35753   5.186  12.672   0.898  0.0617  0.1409 -0.2646
19860W        W35754   2.911   1.455  14.749 -0.0845 -0.3321 -0.1381
19861W        W35755   3.126   0.702  10.879  0.1350  0.2630  0.2357
19862W        W35756   7.102   4.555  12.153  0.0519  0.0962 -0.0136
19863W        W35757   3.340  16.418   0.746 -0.5820  0.3583 -0.1215
19864W        W35758   6.419  19.099   4.817 -0.1369  0.0920  0.1042
19865W        W35759  15.926  12.968   4.110  0.1531  0.1412 -0.0178
19866W        W35760   3.675  11.789  12.356  0.4496  0.0454 -0.0153
19867W        W35761  16.663   2.455   0.502  0.1342  0.1670 -0.1789
19868W        W35762  11.432   0.301  11.169 -0.3317 -0.2259  0.2118
19869W        W35763  16.404  17.411  13.525  0.0764  0.2372  0.3914
19870W        W35764  13.882   5.173  10.996 -0.0817  0.0906 -0.2127
19871W        W35765   0.778   9.953   0.972 -0.2890 -0.1428  0.0311
19872W        W35766  10.461  13.868   3.086  0.2305 -0.1309  0.3537
19873W        W35767  18.523   6.655   1.607 -0.0837 -0.1420  0.3827
19874W        W35768   3.658  17.372   2.460 -0.1527  0.3934 -0.1771
19875W        W35769   4.339  11.393  12.476 -0.1298  0.5450 -0.4331
19876W        W35770   7.728  10.206  12.736 -0.4017 -0.0862  0.1945
19877W        W35771   1.589   4.624   0.945  0.1650 -0.1319  0.0111
19878W        W35772   7.006  17.815   0.466  0.0179  0.1934  0.1325
19879W        W35773  17.067   9.862  11.275  0.1835 -0.1426 -0.0456
19880W        W35774   2.147  11.003  14.154 -0.3869  0.2880 -0.0475
19881W        W35775  17.325   2.985   2.197  0.1527  0.2480 -0.0222
19882W        W35776   7.386  16.366  14.056 -0.0967  0.3011 -0.1341
19883W        W35777  11.131   8.523   4.425  0.0418  0.0342  0.2132
19884W        W35778  15.004   3.555  10.789 -0.2241 -0.4041 -0.1911
19885W        W35779   1.315  16.155   3.626 -0.1383  0.0582 -0.0919
19886W        W35780   9.651   3.880   4.414 -0.0685 -0.1833 -0.0939
19887W        W35781  13.415   2.745  11.236 -0.1303 -0.2043  0.1386
19888W        W35782   3.114  13.429   1.489 -0.1332 -0.0642  0.0325
19889W        W35783  10.579   7.409  11.811 -0.0452  0.4002 -0.1739
19890W        W35784  17.644  11.782  11.892 -0.3452 -0.2691 -0.0227
19891W        W35785   4.828   6.359   0.765  0.3910 -0.1860  0.1218
19892W        W35786  18.700   4.765   2.098 -0.3364 -0.2770 -0.0227
19893W        W35787   4.461  16.768  13.484  0.1044  0.0173  0.3410
19894W        W35788  11.866  13.383   1.317 -0.0235 -0.4140  0.0639
19895W        W35789   1.194   1.357   0.134  0.1884  0.1496 -0.0255
19896W        W35790   3.343   6.091   1.989  0.0969 -0.2096 -0.1721
19897W        W35791   8.819   2.278  10.008 -0.1251 -0.2819 -0.0043
19898W        W35792  10.565   8.456  14.353 -0.2399  0.2847  0.0842
19899W        W35793  17.329   5.897  12.350  0.0733  0.0272  0.0872
19900W        W35794  10.010   2.454   3.976 -0.0511 -0.0194  0.0328
19901W        W35795   1.708  18.386   4.388  0.0025  0.0671 -0.1909
19902W        W35796   6.377  16.591   1.587 -0.2733  0.1821  0.4201
19903W        W35797   6.441   2.264   5.664  0.4528 -0.2859  0.1706
19904W        W35798  11.732  16.909  12.294 -0.3186  0.0873  0.2155
19905W        W35799   4.383  19.113   0.024 -0.1414 -0.2414 -0.3174
19906W        W35800   6.920   2.971   0.087  0.0531 -0.0964 -0.0372
19907W        W35801  18.899  10.514  15.005  0.0950  0.0414  0.2784
19908W        W35802  18.222  17.458  14.736  0.1547  0.1705 -0.0323
19909W        W35803   6.547  16.975   0.783 -0.0668  0.0451 -0.1451
19910W        W35804   5.737  11.932   3.857 -0.0881  0.0133 -0.3811
19911W        W35805  15.514   3.668  12.060  0.0572  0.1451  0.0420
19912W        W35806   0.090   3.345   5.364 -0.0700  0.2385 -0.3545
19913W        W35807  12.323   7.243   2.769  0.1742 -0.2171 -0.0663
19914W        W35808  16.014   4.266  11.335 -0.3320 -0.1967 -0.3380
19915W        W35809  15.412  11.249  11.940 -0.2401  0.2533  0.1014
19916W        W35810  18.742  17.576  11.458  0.0658  0.2249 -0.1252
19917W        W35811   2.504  15.420  15.006  0.2645 -0.1678  0.1416
19918W        W35812  17.166  16.031  14.520 -0.0384 -0.0725 -0.1057
19919W        W35813   1.497   4.341  14.834 -0.2819 -0.0516  0.1734
19920W        W35814  16.818   8.366  14.658  0.0290 -0.2837 -0.1468
19921W        W35815   1.073  15.028   4.605 -0.0203 -0.2761 -0.5133
19922W        W35816   0.156   7.043   1.637 -0.4250  0.2242 -0.1304
19923W        W35817  13.810  15.589  10.860 -0.3924 -0.1611  0.1889
19924W        W35818  14.031   6.404   4.482  0.0559  0.1913  0.0228
19925W        W35819  15.076  12.420   4.271  0.0008  0.1396 -0.0405
19926W        W35820  17.444   4.241   0.691 -0.0076  0.1450 -0.4637
19927W        W35821  11.220   6.395  11.540 -0.2572  0.0211  0.0071
19928W        W35822   4.492   8.564   5.173 -0.1395  0.4068  0.0706
19929W        W35823   4.778   3.432   5.005 -0.0164 -0.1774  0.0741
19930W        W35824  17.818  16.823   9.769 -0.0384  0.2923 -0.0740
19931W        W35825  17.980  12.123   3.328  0.3124 -0.2201  0.2977
19932W        W35826  17.630  13.736  12.840 -0.3246 -0.1652 -0.2731
19933W        W35827   4.215   7.311   1.010  0.0041 -0.1347  0.0867
19934W        W35828  15.499   1.151  13.933 -0.1208 -0.1154 -0.3747
19935W        W35829  15.444  16.921  12.735 -0.1343  0.2986 -0.1349
19936W        W35830  18.973  19.017  13.112 -0.2449 -0.1060  0.1745
19937W        W35831  13.578   9.158   0.550 -0.0753 -0.2994  0.4630
19938W        W35832   4.492   2.766  13.078 -0.2850  0.1708  0.0806
19939W        W35833  12.954   5.879   5.806  0.1728  0.4591  0.2719
19940W        W35834   4.088   7.989  12.650 -0.0527 -0.0208 -0.1266
19941W        W35835  11.330   1.850  14.671 -0.1443 -0.0131 -0.1589
19942W        W35836  16.229  12.764   0.313  0.0313 -0.3731 -0.0228
19943W        W35837   5.249   8.385   3.172  0.1133  0.5439  0.0784
19944W        W35838   4.581  12.207   5.226 -0.0227 -0.0406 -0.1317
19945W        W35839  11.469   7.549   0.457 -0.0739  0.1756  0.0954
19946W        W35840  10.729  18.670  13.534 -0.1393 -0.0611 -0.2512
19947W        W35841  18.508   8.335   2.918 -0.2807 -0.0064 -0.0879
19948W        W35842  17.106  13.503   9.871  0.0420 -0.1629  0.0787
19949W        W35843  12.014  13.370   9.257  0.2315  0.2113  0.3971
19950W        W35844  15.828  11.537  12.069  0.0845  0.0224 -0.1423
19951W        W35845  18.320  17.289  12.643 -0.1553 -0.0407  0.1243
19952W        W35846  17.219   0.628   4.031  0.0231 -0.0845  0.0913
19953W        W35847   9.672   2.154  14.090  0.0357 -0.1657  0.0605
19954W        W35848  17.068  16.974   2.869  0.3605 -0.2389 -0.2082
19955W        W35849   9.276  10.827   0.507 -0.3912 -0.3272  0.3172
19956W        W35850   0.384  13.209  10.969 -0.0556 -0.2765  0.0320
19957W        W35851   8.009  17.432  13.232  0.1078  0.0392  0.1616
19958W        W35852   7.083   0.558   3.577  0.2540  0.0070  0.1496
19959W        W35853   4.119  14.914   2.696 -0.0328 -0.4887 -0.1235
19960W        W35854   6.266  13.938   5.204  0.0908 -0.1294  0.3324
19961W        W35855   6.529  11.768   1.793 -0.0435 -0.1947  0.1473
19962W        W35856  18.017   3.196   3.714 -0.2394 -0.1388  0.1796
19963W        W35857   1.615   7.881  12.654  0.0630 -0.1575  0.0052
19964W        W35858  10.412   4.969  14.715 -0.1412  0.2552 -0.1699
19965W        W35859   3.093   5.651   2.157 -0.2087 -0.3233 -0.1054
19966W        W35860   4.414   4.846   3.061  0.0789 -0.0282 -0.2613
19967W        W35861  17.423  16.192  12.325  0.0028 -0.1004  0.0818
19968W        W35862  12.738   0.185   3.430  0.2941  0.2405  0.0318
19969W        W35863   0.808   2.543   5.180  0.0713  0.0906  0.1113
19970W        W35864   8.180   8.638  13.568  0.0766 -0.2121  0.2150
19971W        W35865  18.970  14.840   5.622 -0.1570  0.0510  0.1330
19972W        W35866  17.083  10.848  12.977  0.0694 -0.2067 -0.0687
19973W        W35867   1.107   4.025   1.030 -0.1333  0.0949  0.2160
19974W        W35868   1.801   9.530  10.382 -0.2778 -0.0862 -0.4103
19975W        W35869   4.506  15.560   2.420  0.0376  0.0999 -0.2596
19976W        W35870   9.661   0.769  14.329  0.4091 -0.2410 -0.1425
19977W        W35871  16.018   6.290   4.442 -0.1263 -0.1132 -0.3060
19978W        W35872   8.210  17.144  10.939  0.1451  0.3184 -0.1741
19979W        W35873   0.016  14.861   3.790 -0.0553  0.0853 -0.2822
19980W        W35874  18.121  11.589   3.309  0.1436  0.1216 -0.0866
19981W        W35875   5.319   9.310   2.873  0.0259  0.0207  0.2028
19982W        W35876   0.065  13.484   1.094 -0.0547 -0.1802 -0.2094
19983W        W35877  17.340  11.312  11.253  0.1907  0.2264  0.4776
19984W        W35878  18.388   9.175  12.613  0.0243 -0.0237  0.1522
19985W        W35879   7.901  17.835   2.896 -0.0961 -0.1420  0.0314
19986W        W35880   6.176   9.299   0.178 -0.0653 -0.0671 -0.0224
19987W        W35881   4.219  13.038   3.796  0.3471 -0.1506 -0.0212
19988W        W35882   4.965  15.252   1.971 -0.2307  0.2823  0.1144
19989W        W35883   6.772  10.157  12.644 -0.0141  0.2700  0.2549
19990W        W35884   3.535   1.975  13.224 -0.0397  0.2147  0.0488
19991W        W35885   4.515  12.429  13.600  0.1412  0.3173 -0.2361
19992W        W35886  10.497   6.616  14.870  0.0698  0.1125  0.0406
19993W        W35887  12.986  16.602  13.751 -0.1353 -0.0781 -0.2041
19994W        W35888  11.584   5.902   5.119 -0.1864  0.1308 -0.3296
19995W        W35889   2.023   4.294  11.090 -0.0545 -0.1608  0.0855
19996W        W35890  10.995  13.751  13.785  0.0200 -0.2460  0.1966
19997W        W35891   3.869  14.439   3.124  0.4943  0.1811 -0.0959
19998W        W35892  12.538  13.465  10.166  0.0557 -0.0132  0.2093
19999W        W35893   3.416  14.942   4.827 -0.1985  0.0841  0.2541
20000W        W35894   7.505  15.773   4.101 -0.1122  0.2779 -0.1309
20001W        W35895   5.824  11.372   4.457 -0.0390  0.1471 -0.0140
20002W        W35896  15.090   1.018  12.831  0.0843  0.1608 -0.1562
20003W        W35897   3.304  10.929  11.709  0.2618  0.4067 -0.3273
20004W        W35898   3.948   0.515  10.838 -0.1827  0.1258 -0.1414
20005W        W35899  19.221  18.365   1.298 -0.0633  0.1068 -0.0228
20006W        W35900  15.595   4.900  11.603  0.1440 -0.4467  0.0211
20007W        W35901  16.586   6.459   1.197  0.0955 -0.0428  0.1155
20008W        W35902  11.626   0.994  10.214 -0.0997  0.4827  0.1877
20009W        W35903  14.996   1.086   4.747  0.1627  0.1906  0.2359
20010W        W35904  15.028   0.682  10.822 -0.0847 -0.1117  0.1310
20011W        W35905  16.127  13.946   3.961  0.0847  0.1619  0.0374
20012W        W35906   8.722  15.404  13.740 -0.3382  0.0572  0.0193
20013W        W35907  13.879  15.117   0.599  0.2929  0.0419 -0.1513
20014W        W35908  18.380  18.500   5.071 -0.1616 -0.0021 -0.1358
20015W        W35909   3.429   1.520  12.979 -0.0144  0.0741 -0.2653
20016W        W35910  12.162   8.442  11.710  0.1032 -0.0586 -0.2309
20017W        W35911  16.900   7.808  11.930  0.1583 -0.0631 -0.0528
20018W        W35912  15.126  15.449   0.676  0.0988 -0.2834 -0.1942
20019W        W35913   2.255  10.433  15.039  0.2676  0.2391 -0.1059
20020W        W35914  17.933   6.241  13.528  0.6138  0.1795 -0.0542
20021W        W35915   9.637   5.012  14.329 -0.3560  0.3685  0.3036
20022W        W35916  13.342   1.247   2.753 -0.2716 -0.1023  0.1188
20023W        W35917  13.416   1.413  14.423  0.0504 -0.0818  0.1952
20024W        W35918   4.913  10.485   3.262  0.2921 -0.1395  0.0199
20025W        W35919   8.372   5.018  11.990  0.0780 -0.3496 -0.0439
20026W        W35920   6.274   2.607   6.085 -0.0020 -0.1296  0.0003
20027W        W35921  11.436  18.078  14.282 -0.1491 -0.1846  0.1647
20028W        W35922  15.088   0.830   1.094  0.2031 -0.2361 -0.0750
20029W        W35923   5.004  13.426   1.388 -0.0378  0.2322  0.1805
20030W        W35924   1.354  10.139  13.473  0.3032  0.0086  0.2031
20031W        W35925   3.919  13.384  11.284 -0.0425 -0.1419  0.1143
20032W        W35926   0.470   1.585   3.148 -0.3333  0.1169  0.1914
20033W        W35927   3.519   2.434  14.971  0.0171 -0.0952 -0.2068
20034W        W35928  15.935  17.287  14.134 -0.1311 -0.1256  0.1508
20035W        W35929   2.639   3.599  12.650 -0.2609 -0.0114  0.0313
20036W        W35930   5.764  14.706   1.791  0.2644  0.0834  0.3264
20037W        W35931   8.314  13.998   4.304  0.3539  0.1265 -0.2606
20038W        W35932  11.235  19.169   2.069 -0.1092  0.0631  0.0856
20039W        W35933  12.061   6.582  11.128 -0.0688 -0.4389 -0.2753
20040W        W35934  10.281   4.800   2.524  0.3819  0.2239 -0.0715
20041W        W35935   8.070  11.603   4.285  0.1696 -0.0311  0.0051
20042W        W35936  12.934   6.698   4.310  0.0978 -0.0915 -0.1772
20043W        W35937  18.040   4.016  13.186 -0.3686  0.2862  0.0344
20044W        W35938   2.205   9.480   0.019  0.1728  0.3121  0.2967
20045W        W35939   8.914  10.686   3.895  0.0569 -0.0699 -0.2821
20046W        W35940   1.471  15.238  13.772  0.0628  0.1300 -0.1875
20047W        W35941  18.979  11.452   1.030  0.0298 -0.2940 -0.0560
20048W        W35942  11.534   4.796   1.946  0.0829 -0.2635  0.1406
20049W        W35943  12.738   1.194  13.931  0.1674 -0.0693  0.0525
20050W        W35944  13.102  17.576  14.706  0.3491 -0.0708  0.2654
20051W        W35945   9.476  14.038   3.489  0.0172 -0.0001 -0.2106
20052W        W35946  14.280  15.720   2.269  0.2493 -0.2538 -0.0619
20053W        W35947  13.857  19.198   1.810 -0.2262 -0.1144 -0.0245
20054W        W35948   6.653   2.971  12.696  0.1932 -0.3739 -0.2550
20055W        W35949   7.367   0.438  11.569  0.0608  0.3123  0.2418
20056W        W35950  10.425  18.763   3.288  0.2766  0.0191  0.1934
20057W        W35951  17.310   9.018   2.730 -0.0677  0.0017  0.3120
20058W        W35952  17.557   1.004   3.104  0.1425 -0.0223  0.1251
20059W        W35953  11.650   3.330  12.175 -0.0539 -0.0690  0.1114
20060W        W35954   9.988   9.934   2.109 -0.0703 -0.0509 -0.1326
20061W        W35955  14.215  16.915   0.736  0.0448 -0.0421  0.2828
20062W        W35956  11.607  15.062  11.881 -0.0804  0.0409  0.2767
20063W        W35957   8.993  11.173  11.679  0.0138  0.0616 -0.0366
20064W        W35958  14.943  10.684   2.104  0.0254  0.1005  0.1678
20065W        W35959   1.086   4.252  14.528  0.0331 -0.4715 -0.2908
20066W        W35960   4.099  12.445  14.486  0.0396 -0.0431  0.0520
20067W        W35961  16.320  12.149  10.757 -0.0696  0.0222  0.1739
20068W        W35962   7.291  16.736   3.935  0.0757 -0.2966 -0.2863
20069W        W35963   7.122  18.120   1.068  0.0693  0.2631  0.0609
20070W        W35964   8.295  14.508   4.849  0.0896 -0.1266 -0.3497
20071W        W35965   1.052   9.735   2.180  0.1149 -0.0833  0.4541
20072W        W35966  10.621   0.190  11.752  0.1930 -0.2951  0.1561
20073W        W35967  13.905  15.127   2.716 -0.1971 -0.2773  0.4463
20074W        W35968   4.028  16.402   2.423 -0.0498  0.1431 -0.1030
20075W        W35969   8.400  17.061  12.401  0.1394  0.1729 -0.1832
20076W        W35970  10.324  13.010  11.857 -0.0927  0.3575 -0.0022
20077W        W35971   9.448  16.575   4.628  0.1260 -0.2438  0.2521
20078W        W35972   5.063  13.260   4.740 -0.0166 -0.3419  0.2023
20079W        W35973  18.757   3.339  13.244 -0.0168  0.1918  0.0794
20080W        W35974  18.101   0.727   9.504 -0.1254  0.1275 -0.0281
20081W        W35975  14.635   8.951  13.113  0.0141  0.1042 -0.2508
20082W        W35976  15.494   8.300  13.670  0.0700  0.1200 -0.1985
20083W        W35977  14.529  18.009  15.074  0.0793  0.1717  0.0183
20084W        W35978  13.671   1.839  13.525 -0.0179 -0.4701 -0.1045
20085W        W35979   2.919  12.585  11.610 -0.1810 -0.0823 -0.2960
20086W        W35980  11.780   9.843   3.546 -0.0824  0.5193  0.0209
20087W        W35981   0.725   2.143   0.276 -0.1182 -0.2472 -0.4835
20088W        W35982  19.069  12.511   0.496 -0.0853 -0.0311 -0.0986
20089W        W35983  16.190  11.356   1.108 -0.0138 -0.0902  0.0495
20090W        W35984  12.235   7.752  10.936  0.1249 -0.0294 -0.2976
20091W        W35985  18.091   2.172  10.662  0.1096 -0.1591 -0.1376
20092W        W35986  16.171   1.618  11.735  0.3038  0.1653 -0.0174
20093W        W35987  14.095   9.827   5.846  0.0381  0.0642  0.0259
20094W        W35988  17.213  11.832  13.896  0.0245 -0.0653  0.4372
20095W        W35989  13.424  17.395   1.619  0.1548  0.0322 -0.3176
20096W        W35990   7.042  17.229   4.313 -0.1254  0.2053 -0.3495
20097W        W35991  17.790  12.098   1.892  0.1389 -0.3988 -0.1235
20098W        W35992  19.128   0.607  12.789  0.0011 -0.0203  0.1273
20099W        W35993  17.605  15.608   2.753  0.1248 -0.1532  0.0561
20100W        W35994   8.139   8.142   0.806  0.4232  0.0085 -0.3022
20101W        W35995  16.273  16.494   4.312  0.2083 -0.2678 -0.4507
20102W        W35996  12.310   8.203  14.745 -0.1072  0.1651  0.2852
20103W        W35997   9.283   5.925   2.753 -0.0501 -0.1248  0.0577
20104W        W35998  14.832  14.062  12.846  0.3213  0.0489  0.0773
20105W        W35999   7.210  14.057   4.539  0.2783 -0.0582  0.0090
20106W        W36000  18.441   3.192  13.893 -0.4436 -0.1376  0.0725
20107W        W36001  15.283  13.313   4.746 -0.0588 -0.0928 -0.0619
20108W        W36002  13.091  15.420   1.680 -0.0141  0.0143 -0.1970
20109W        W36003   3.623   6.232   2.492 -0.2423 -0.2365  0.1415
20110W        W36004   1.768   7.636  11.396  0.2394  0.0985 -0.0362
20111W        W36005   8.484  16.316  11.241 -0.1902 -0.1169 -0.1193
20112W        W36006   9.000   6.254   3.054 -0.1800 -0.0414 -0.4449
20113W        W36007   6.242  17.439  13.227  0.0312 -0.0484  0.0965
20114W        W36008   5.476  11.948  11.918 -0.1422 -0.1796  0.3191
20115W        W36009   4.087   5.203   5.124  0.1414 -0.4067  0.1516
20116W        W36010   6.912  16.774  13.001  0.0326 -0.0414 -0.0344
20117W        W36011  17.880  15.563   0.035 -0.1930 -0.4342  0.1266
20118W        W36012   8.116   9.305  11.157 -0.0315  0.2317 -0.1999
20119W        W36013   1.165   8.095   2.290 -0.1622 -0.1927  0.3096
20120W        W36014  14.526   9.312   2.487  0.2699  0.0628  0.2058
20121W        W36015   3.377   0.190  10.916  0.0412 -0.4526 -0.3459
20122W        W36016   4.000  11.244   2.749 -0.0090  0.0321 -0.2043
20123W        W36017  10.616   3.542  12.139  0.2115 -0.2214  0.0065
20124W        W36018   7.749   1.714  14.966  0.1234  0.0407 -0.4497
20125W        W36019  16.383  14.800  14.227  0.1896 -0.1695 -0.1595
20126W        W36020   0.193   8.502   2.511 -0.0251  0.0996  0.0837
20127W        W36021   0.136  12.174   2.378  0.2401 -0.2178 -0.1740
20128W        W36022   6.619  12.621   4.729 -0.0448 -0.2625 -0.1431
20129W        W36023  16.236   7.301   2.816  0.0471 -0.2317 -0.0247
20130W        W36024  12.444   3.136   5.015 -0.0675 -0.0358  0.1512
20131W        W36025   2.338   0.904   0.177 -0.0093 -0.0065  0.0511
20132W        W36026  15.722   9.451  14.611  0.1706  0.0221  0.0531
20133W        W36027  11.227  13.680   0.801  0.0042  0.0190  0.1123
20134W        W36028   8.907  14.877   2.485 -0.1227  0.0944 -0.0330
20135W        W36029  18.477  14.810   0.223  0.0617 -0.0968 -0.0561
20136W        W36030   1.454   3.729   1.426 -0.1224 -0.0736  0.0912
20137W        W36031  11.482  12.310  12.295 -0.1418  0.0429  0.3021
20138W        W36032   2.643   4.076   5.404  0.3875 -0.3109 -0.0392
20139W        W36033   3.833   1.037  13.279  0.0863 -0.4418  0.0442
20140W        W36034  11.570   6.879  11.721  0.1833  0.2974  0.0872
20141W        W36035  13.674  16.207  14.045 -0.1480 -0.2173 -0.2215
20142W        W36036  13.725   1.046   4.022 -0.2256  0.0839 -0.3029
20143W        W36037  10.747   2.181  12.806  0.1369  0.2468  0.0764
20144W        W36038   5.438   2.684   1.834 -0.0644 -0.0463  0.0463
20145W        W36039  12.139  16.058  10.769 -0.0651  0.1083  0.0291
20146W        W36040   6.842   8.552   4.508 -0.0526  0.1805  0.2990
20147W        W36041  11.490  12.847   1.329  0.2212 -0.1228  0.0773
20148W        W36042   6.085  15.152  12.699 -0.2313 -0.1989  0.1055
20149W        W36043   7.588  13.397  10.378  0.3442  0.3631  0.0378
20150W        W36044   0.814   9.145   3.601  0.0819  0.0251 -0.1539
20151W        W36045   4.037   0.686   4.157 -0.0650  0.0669 -0.1928
20152W        W36046   2.883   1.377  13.294 -0.0327 -0.1403 -0.0176
20153W        W36047  18.180   9.221  14.103  0.2164 -0.1178  0.4442
20154W        W36048   9.005  17.908   1.714  0.2459 -0.2033  0.4540
20155W        W36049   6.094  14.592  14.303  0.1996 -0.4380 -0.1516
20156W        W36050   3.837   3.343  11.602 -0.1770 -0.0991 -0.1036
20157W        W36051   4.503  10.827  14.742 -0.0543 -0.0331 -0.5005
20158W        W36052   9.197  11.032  12.801 -0.1641 -0.0191 -0.0287
20159W        W36053  16.641   6.934   4.850  0.0639 -0.0177  0.0709
20160W        W36054  16.659  13.704  13.419 -0.2041  0.0545 -0.0871
20161W        W36055   6.472  18.840  14.322  0.3210  0.1048 -0.2310
20162W        W36056  13.937  19.177   0.716  0.3581  0.3593  0.0132
20163W        W36057  15.570  19.057  12.361 -0.1167  0.1061 -0.0007
20164W        W36058  10.747  18.823  14.031  0.0785  0.1194  0.1620
20165W        W36059   9.982   8.698   2.383 -0.3243  0.0555  0.0561
20166W        W36060   8.565   2.187  12.811  0.2988 -0.0052  0.0138
20167W        W36061  15.968   1.820   0.532  0.0194 -0.1690  0.0746
20168W        W36062  17.562   7.054   3.853 -0.3202  0.2945 -0.0877
20169W        W36063   1.800   6.167   5.210 -0.0495  0.1052 -0.4194
20170W        W36064  17.821  12.876   2.714  0.2481  0.1358  0.0971
20171W        W36065   9.841   1.156   2.640 -0.3167 -0.0596  0.0232
20172W        W36066   9.085   7.623   0.600 -0.0783  0.0670 -0.0356
20173W        W36067   9.093   8.306   0.186  0.0158  0.2246 -0.2561
20174W        W36068   9.149   8.341   4.382 -0.1037  0.1633  0.0093
20175W        W36069  16.052   4.850   5.511  0.0512  0.2295  0.0542
20176W        W36070   1.098   6.010  14.962  0.0950 -0.0260  0.2134
20177W        W36071   9.693  12.765   3.118 -0.0196  0.1595 -0.1016
20178W        W36072   9.489   9.473   1.707  0.3575 -0.1446  0.2654
20179W        W36073   8.983  13.987  13.144 -0.3643 -0.1510  0.0427
20180W        W36074  10.657   8.908  14.051 -0.1877  0.1208 -0.0774
20181W        W36075  17.738  13.247   0.434 -0.1948 -0.0148  0.0100
20182W        W36076  12.370   7.805   3.535 -0.1387 -0.0923  0.0043
20183W        W36077   8.652   8.951  13.674 -0.0182 -0.0181 -0.2868
20184W        W36078   0.466   2.860  14.957 -0.0289  0.1002  0.0877
20185W        W36079  13.329  14.998  12.019  0.0908 -0.1173 -0.0465
20186W        W36080   8.473   6.514  13.473 -0.0021  0.2412  0.1892
20187W        W36081  13.097   7.582   3.822  0.1862  0.0091 -0.0024
20188W        W36082   9.610  18.013  10.608 -0.2843  0.0809  0.2086
20189W        W36083  12.796   8.653  14.373  0.6101  0.3354  0.2351
20190W        W36084  14.873   3.131  11.834  0.1720  0.0506 -0.1504
20191W        W36085  16.878   9.293   1.892 -0.3802 -0.1725  0.0588
20192W        W36086   5.188   5.192   0.244 -0.1240 -0.1623  0.1163
20193W        W36087   3.191  15.934   4.812 -0.0316  0.4060 -0.0472
20194W        W36088   0.567  10.052  12.513  0.2071 -0.1317 -0.1006
20195W        W36089   3.563   7.569   1.471 -0.1838 -0.1402  0.0752
20196W        W36090   0.809   7.103   2.678 -0.1426  0.2915  0.2780
20197W        W36091  17.444  17.679   9.385 -0.3361  0.1373  0.1127
20198W        W36092  15.863  12.032   0.493  0.1927  0.0143  0.0598
20199W        W36093  17.099   7.273   2.356  0.3591 -0.2745 -0.0700
20200W        W36094  12.677   1.523  13.530 -0.0004  0.0201 -0.1649
20201W        W36095   7.583  17.629  13.335  0.2943  0.0395  0.1228
20202W        W36096  12.298  15.151  10.540  0.2523  0.0961 -0.0774
20203W        W36097  10.211  17.124   3.685 -0.1355 -0.0399 -0.0846
20204W        W36098  17.808  14.738  13.353  0.2920 -0.0638  0.0441
20205W        W36099   9.337  16.622   2.526 -0.1516  0.1409  0.1707
20206W        W36100  14.068  15.464   4.257 -0.0953  0.1869 -0.0876
20207W        W36101   4.854   8.095   1.982 -0.0660  0.1596  0.0143
20208W        W36102   1.365  11.995   4.768  0.2477  0.1713 -0.2510
20209W        W36103  11.051  13.287  13.992 -0.1191 -0.1879  0.0109
20210W        W36104   4.867   6.909   0.704  0.0404 -0.1280 -0.1477
20211W        W36105  17.255   0.882   1.315  0.3556  0.2137 -0.2497
20212W        W36106   3.576   8.760   1.027  0.0480 -0.0077 -0.1279
20213W        W36107   8.508   8.743   2.547  0.0488 -0.1245  0.1529
20214W        W36108  15.652   4.824   4.110  0.2299 -0.1233 -0.0378
20215W        W36109   8.449   3.945  14.879  0.0900  0.2256  0.0352
20216W        W36110   7.116  11.667   5.669 -0.1897  0.0499  0.1000
20217W        W36111   3.392   7.073  10.523 -0.0635  0.3160  0.1310
20218W        W36112  12.422  15.032   3.458  0.2983 -0.1606 -0.1356
20219W        W36113   2.270   1.065   5.233  0.3121  0.2507  0.1276
20220W        W36114   6.526   3.376   6.176 -0.0376 -0.0279  0.0752
20221W        W36115   0.202  11.790   2.793 -0.1108 -0.0685  0.3154
20222W        W36116  11.418  16.273  12.008 -0.0347  0.2564  0.2852
20223W        W36117   6.989   1.304   4.863  0.1915  0.3731 -0.2497
20224W        W36118   3.422   1.094   1.025  0.3272  0.1077 -0.0950
20225W        W36119  10.390   1.468  12.988  0.4396 -0.1184 -0.0932
20226W        W36120   5.538   9.332   1.789  0.1609  0.0934 -0.1876
20227W        W36121  16.817   1.138  14.198  0.0535  0.0295  0.2246
20228W        W36122  11.377   7.561   0.974 -0.2456 -0.3607 -0.1304
20229W        W36123   2.745  12.497   5.582  0.2008  0.0144  0.3735
20230W        W36124   0.411   4.784  11.083 -0.1258  0.0288  0.0465
20231W        W36125  15.049   0.371  14.534 -0.0252 -0.1427  0.2738
20232W        W36126  10.312  15.165  14.737 -0.0639  0.0163  0.0356
20233W        W36127  10.837  17.424  13.444  0.0429  0.0247  0.1388
20234W        W36128   0.115   2.119   3.916 -0.1984  0.2903  0.2144
20235W        W36129   2.316  14.094  13.396  0.1744  0.1627  0.1568
20236W        W36130   3.984   6.241   0.174  0.2172  0.0051 -0.1276
20237W        W36131   3.213   0.354  13.575  0.0875  0.2043  0.1961
20238W        W36132  12.352   4.897   0.898  0.1315  0.0405 -0.0354
20239W        W36133  19.058  15.903   0.140 -0.0654 -0.0941  0.0561
20240W        W36134  16.080  11.014   1.569 -0.4454 -0.4702  0.4429
20241W        W36135  17.519   2.733  13.252 -0.1963  0.2336  0.0720
20242W        W36136  14.221   1.760   4.924  0.2315 -0.1796  0.0406
20243W        W36137  11.204   7.869   2.445 -0.1444 -0.0732 -0.1529
20244W        W36138   5.942  12.092   9.236 -0.1525 -0.0407  0.2356
20245W        W36139   0.895  11.820   2.447 -0.1525 -0.1329 -0.0367
20246W        W36140   6.984   9.190   1.510  0.1330 -0.1230 -0.0923
20247W        W36141  16.153  18.626   0.939  0.1459  0.4382  0.1614
20248W        W36142   3.050  13.192   0.449  0.1028 -0.2616 -0.0196
20249W        W36143  14.152   1.420   2.787 -0.2499  0.1356 -0.3316
20250W        W36144   6.730   4.351   1.490 -0.0895  0.2646  0.0602
20251W        W36145   5.435  12.553   2.815 -0.1687  0.0858 -0.1350
20252W        W36146   1.170   0.218   2.817 -0.1129 -0.2459 -0.0130
20253W        W36147  11.191   8.731   9.553  0.0008 -0.1664  0.1022
20254W        W36148  15.076   4.916   1.695  0.3701 -0.0810  0.4321
20255W        W36149   8.005   0.039  12.942 -0.1780  0.2053 -0.0364
20256W        W36150  17.967  11.755   1.607 -0.3327 -0.1040  0.0068
20257W        W36151   5.722  17.349  13.105 -0.1999 -0.5506  0.0573
20258W        W36152  15.863   5.256  10.781  0.1456  0.0041 -0.2645
20259W        W36153  13.035  15.295   3.494 -0.1341 -0.2066 -0.1653
20260W        W36154  10.190   2.303  12.774 -0.2133 -0.2538  0.3766
20261W        W36155   7.316  17.837  12.941  0.1449  0.2562  0.0935
20262W        W36156   0.059  15.747   1.914  0.0490  0.3497 -0.0754
20263W        W36157  10.997   1.137  10.323 -0.3162  0.2556  0.1256
20264W        W36158   7.997   3.560  11.488 -0.1872 -0.1583  0.0196
20265W        W36159   3.570  11.838   1.614  0.2542  0.0420 -0.2061
20266W        W36160  13.661  15.844  13.120 -0.1226  0.1124  0.0498
20267W        W36161   1.661   0.353   2.769 -0.0348 -0.1917 -0.1478
20268W        W36162  12.209  18.787  10.681 -0.2036  0.0999  0.0909
20269W        W36163   3.747  15.136  10.732  0.2866 -0.2302 -0.1492
20270W        W36164  15.585  13.730   4.494 -0.0103  0.2829  0.0960
20271W        W36165   1.306   7.725   1.918 -0.0592 -0.2505 -0.0948
20272W        W36166   3.529  11.334  13.018 -0.0188  0.1420  0.0552
20273W        W36167  14.290   4.587  14.414  0.2247 -0.2395  0.0244
20274W        W36168   9.415   9.250  10.670  0.2060  0.0007  0.0892
20275W        W36169  17.074  18.063   5.336  0.2391 -0.1286 -0.1475
20276W        W36170   4.148   6.765  11.564 -0.0118  0.1246  0.1834
20277W        W36171   2.819  19.013  10.298  0.0754  0.0249  0.0384
20278W        W36172  10.709   4.569  14.940  0.1037  0.3198  0.2147
20279W        W36173   4.196   8.629  13.996 -0.1449  0.2526  0.0281
20280W        W36174   1.256  14.428   1.824 -0.0861  0.1358 -0.1302
20281W        W36175   9.102   8.253  10.228  0.2026 -0.1548  0.1235
20282W        W36176   7.060   7.023   2.891  0.1089 -0.2336 -0.0782
20283W        W36177   2.628  12.034  12.305  0.0787 -0.0153  0.0358
20284W        W36178  17.967   4.279  15.081  0.1157 -0.0562  0.0259
20285W        W36179   8.917  10.829  12.377  0.1318 -0.0792 -0.2777
20286W        W36180  13.151  14.935  12.532 -0.1430  0.2027 -0.1526
20287W        W36181  12.438  14.320   2.362  0.0281 -0.2923  0.0570
20288W        W36182   3.510   8.833  14.741 -0.1851 -0.1857 -0.1889
20289W        W36183  16.126   8.931  11.475 -0.0079 -0.1906 -0.0484
20290W        W36184  15.677   0.524  11.040 -0.2595 -0.0393 -0.1630
20291W        W36185   6.654  18.603   2.249 -0.3981  0.1554  0.0354
20292W        W36186  17.461  10.928   0.067  0.0863 -0.0228  0.1524
20293W        W36187  11.529   6.426   1.175  0.4511  0.1424  0.1634
20294W        W36188   8.900  11.085   0.806 -0.1850 -0.5361 -0.0722
20295W        W36189   4.975  14.554   0.374  0.1999 -0.2369  0.0097
20296W        W36190   6.444  11.397   1.465  0.2585  0.0178 -0.0620
20297W        W36191  11.864   3.201   1.079 -0.0460  0.3949  0.0570
20298W        W36192   4.347  10.461  15.060 -0.2011 -0.0690  0.1445
20299W        W36193   7.307  17.733  13.941 -0.4379  0.1978  0.2165
20300W        W36194  16.357   9.538   1.846 -0.3377 -0.1836  0.0397
20301W        W36195   8.146  16.751  13.936 -0.0674  0.1946 -0.0500
20302W        W36196   0.862   9.673  13.734  0.2418 -0.0338  0.1168
20303W        W36197  15.922  14.767   0.941 -0.0770  0.4461  0.0318
20304W        W36198  10.174   5.226   2.787  0.0062  0.0593  0.1918
20305W        W36199  16.379  10.725  14.234 -0.0649  0.1229 -0.1754
20306W        W36200  11.458  13.466   3.871  0.0559  0.0521 -0.2001
20307W        W36201   5.860   6.739   4.679  0.2175 -0.3438 -0.2974
20308W        W36202   8.064   6.451   0.519  0.4069 -0.3316  0.4417
20309W        W36203  15.170  12.498  14.900  0.0855  0.2847  0.1435
20310W        W36204   6.448  12.742   3.129 -0.0076 -0.2997 -0.1024
20311W        W36205  19.150   0.166   1.263 -0.0957 -0.3842  0.0108
20312W        W36206   6.979  12.226  14.758 -0.1795 -0.0882  0.0025
20313W        W36207   2.591  11.593  11.699  0.1712 -0.0314  0.1110
20314W        W36208   8.484   3.753   0.537 -0.1196 -0.2873 -0.2357
20315W        W36209   6.045  14.389   3.884  0.0703 -0.4237  0.1402
20316W        W36210   8.794   0.864   2.148  0.4279  0.0672 -0.0386
20317W        W36211  15.701  11.554   0.909 -0.0472 -0.0680 -0.0435
20318W        W36212  15.318   9.238   4.507 -0.0017  0.1047  0.1299
20319W        W36213  14.112   7.158  11.429  0.1853 -0.2355 -0.3462
20320W        W36214   2.636   3.165   0.690 -0.2029  0.3550  0.0636
20321W        W36215   3.214   2.064   3.989 -0.1231  0.1011  0.2662
20322W        W36216   8.074   6.084   1.333 -0.3024  0.0640  0.2687
20323W        W36217   2.954   3.667  11.201  0.1168  0.2626  0.1224
20324W        W36218  14.910  13.574   0.687  0.3511 -0.0644 -0.0945
20325W        W36219  10.938   7.558   4.062  0.0316 -0.0480 -0.1040
20326W        W36220   4.562   6.865   2.537  0.2029 -0.1117  0.1087
20327W        W36221  19.009  13.855   0.175  0.1199 -0.2752  0.0035
20328W        W36222  17.525   6.042  14.463 -0.2994  0.1580  0.1593
20329W        W36223  16.879   9.601   4.971  0.1541 -0.2087 -0.1430
20330W        W36224   7.488  11.674  10.897 -0.2886 -0.1113 -0.1237
20331W        W36225  11.954   8.612   4.789  0.0000 -0.1361  0.0346
20332W        W36226  14.248   7.636   3.081 -0.0818 -0.1416 -0.2078
20333W        W36227  14.428   0.189  13.578 -0.0587  0.0154 -0.2761
20334W        W36228  11.564   6.880  10.782 -0.0699 -0.0586 -0.0751
20335W        W36229  17.740   8.771  12.365  0.0819  0.1243  0.0197
20336W        W36230  14.823   0.600  13.002  0.0466 -0.0758  0.1380
20337W        W36231  10.945  16.048  14.772 -0.1562 -0.1291  0.0746
20338W        W36232   7.927  13.725  10.606  0.3053  0.2063 -0.0673
20339W        W36233  12.057  18.487   1.151 -0.4630  0.1319  0.0543
20340W        W36234   1.178   0.773   4.160 -0.1105  0.1753 -0.0269
20341W        W36235  12.806   9.204  14.575 -0.0513  0.0963 -0.0694
20342W        W36236   4.177   2.217   1.161  0.4124  0.0889  0.0169
20343W        W36237  13.634   6.911  11.744 -0.2381 -0.0739  0.0102
20344W        W36238   3.806   9.259  11.019  0.0702  0.1239 -0.2465
20345W        W36239   8.318  14.704  12.765  0.2136  0.0591 -0.1894
20346W        W36240  13.102  15.177  10.158 -0.1856  0.0397  0.1816
20347W        W36241   7.237  10.412   0.669 -0.0591  0.1876  0.1229
20348W        W36242   2.472  19.219  13.775  0.0428  0.1299  0.1861
20349W        W36243   7.774   6.148   2.163 -0.5231  0.1778 -0.1468
20350W        W36244  13.272   5.544  13.333 -0.0981 -0.0392 -0.1304
20351W        W36245   2.499  12.050  14.699 -0.0565 -0.1396 -0.3122
20352W        W36246  18.622   2.724   5.161 -0.3851  0.0740  0.0872
20353W        W36247   8.569  11.814   3.311 -0.2630  0.4172 -0.0647
20354W        W36248   2.236   0.517   4.004  0.2129 -0.3252 -0.1247
20355W        W36249   2.628   7.172   2.322  0.1439  0.1058  0.0449
20356W        W36250  10.104  18.181   1.386 -0.0848 -0.2219  0.3628
20357W        W36251   5.866  16.114   4.635 -0.0073  0.1609  0.0997
20358W        W36252   3.622   7.973  12.774 -0.0846  0.0597  0.0183
20359W        W36253  15.413  10.185  10.442 -0.2287  0.3224 -0.1443
20360W        W36254  19.124  18.737  12.639  0.0009  0.2982 -0.1799
20361W        W36255  12.099  15.186  12.911  0.0255  0.0825 -0.3405
20362W        W36256   8.761   8.584   3.016  0.1199 -0.1712 -0.0659
20363W        W36257   3.433  17.370  14.001  0.2626  0.0653  0.1525
20364W        W36258  10.918  15.205   4.520 -0.0119  0.1240  0.3508
20365W        W36259   1.580   3.683   5.637 -0.0875  0.0184 -0.2416
20366W        W36260   6.514   5.257  15.097  0.0743 -0.1422 -0.0161
20367W        W36261   8.568   9.857   0.523  0.0043 -0.1757  0.0808
20368W        W36262   8.118   5.207   4.702  0.1386  0.1130 -0.1109
20369W        W36263   4.145  13.597  11.674 -0.0665  0.2224  0.3578
20370W        W36264  10.732  13.343   4.301  0.0512  0.1981  0.0084
20371W        W36265   5.514   4.806   3.155 -0.0125  0.3086  0.1978
20372W        W36266   4.464   5.332  11.297  0.1134  0.1690  0.0083
20373W        W36267  16.907   1.459  11.334 -0.1386  0.5772 -0.1017
20374W        W36268   9.616   9.179   4.713  0.0574 -0.0791 -0.2725
20375W        W36269  12.927   2.023  11.995 -0.3438  0.1389  0.1624
20376W        W36270   7.270   1.560   3.748  0.3926 -0.0325  0.1214
20377W        W36271   5.971  14.959  11.226  0.0256  0.0837 -0.1341
20378W        W36272   0.075   0.748   0.729  0.1984 -0.1663  0.1423
20379W        W36273   7.907   9.245  12.910 -0.2310 -0.0452  0.2736
20380W        W36274   9.521   1.874   9.760 -0.2218  0.2884 -0.1067
20381W        W36275  15.213  14.033   2.402  0.2461  0.0110 -0.3809
20382W        W36276  13.072  11.906  13.381  0.2644 -0.3364  0.1473
20383W        W36277  18.084   2.776  12.789 -0.0144  0.2500  0.1115
20384W        W36278  18.489   9.216   1.882  0.1105  0.0820  0.1201
20385W        W36279  16.987   3.026   1.677  0.0869 -0.2404  0.0921
20386W        W36280  17.863   1.067   2.698  0.1108  0.1156  0.1979
20387W        W36281  12.665  12.408  14.546 -0.1497  0.0844  0.2926
20388W        W36282  15.832   9.311   4.288  0.0711  0.2695  0.1747
20389W        W36283  11.127  12.926  14.324  0.3624  0.1327 -0.0518
20390W        W36284  12.118  16.059  11.803 -0.0914 -0.4611 -0.0145
20391W        W36285   6.324   6.913   3.707  0.1839 -0.0640  0.0528
20392W        W36286   9.140   8.765  13.758 -0.3756 -0.2276  0.0456
20393W        W36287   7.583   4.605  11.653  0.0615 -0.1006  0.0794
20394W        W36288   8.234   9.040   0.754  0.1647  0.2068  0.2466
20395W        W36289  11.677   0.531  11.637 -0.0187  0.0454  0.1391
20396W        W36290   3.729  16.309   4.671 -0.2085  0.1084  0.1830
20397W        W36291  10.937  18.405  11.196  0.1311 -0.1677  0.1240
20398W        W36292  15.477  17.011  10.770 -0.1387  0.0295 -0.1477
20399W        W36293   3.627   4.788   4.278  0.1192 -0.2446 -0.1754
20400W        W36294  15.143  10.186   0.490 -0.0863  0.1969 -0.2356
20401W        W36295  13.008  18.481   0.690  0.0584 -0.1127  0.1949
20402W        W36296  13.782  12.976   5.097  0.0927 -0.3243  0.0129
20403W        W36297  17.037  10.895   2.562 -0.4145  0.0167 -0.1640
20404W        W36298   4.674  15.409  12.080 -0.1116 -0.2084 -0.0043
20405W        W36299   4.176   2.178   3.375  0.1528 -0.1989 -0.0676
20406W        W36300   0.831  15.737  13.374 -0.1450  0.1640  0.2110
20407W        W36301   0.550  16.637   1.065  0.2006 -0.1666  0.2830
20408W        W36302  15.280   9.776  12.261 -0.1251  0.0006  0.1519
20409W        W36303  11.306  17.096  10.509  0.1396  0.1538 -0.2585
20410W        W36304   0.737   0.531  14.310 -0.2491  0.1198 -0.2937
20411W        W36305  10.471  18.422   1.762 -0.0085 -0.0945 -0.0290
20412W        W36306  11.420  14.670  10.484 -0.1790  0.0921  0.0671
20413W        W36307   9.283   1.653   4.620  0.1893  0.2951  0.1914
20414W        W36308  17.660   5.679   3.486 -0.3271  0.0798  0.1538
20415W        W36309  15.174  16.158  13.746  0.1926  0.0980 -0.1950
20416W        W36310   8.559  13.020   3.300  0.0435 -0.1009 -0.3702
20417W        W36311   9.922   6.944  11.449 -0.1488  0.3224  0.0102
20418W        W36312   5.857   5.514  11.906 -0.2745 -0.1327 -0.3289
20419W        W36313  14.563   4.555  10.524 -0.0495  0.1839  0.0935
20420W        W36314   8.487  11.334   0.437  0.1513 -0.0540  0.2113
20421W        W36315   1.807   9.025  12.325 -0.0595 -0.0753 -0.2183
20422W        W36316   5.942  12.363   4.237 -0.2546  0.2030 -0.0208
20423W        W36317  18.886  11.212   5.556 -0.1287  0.0502 -0.1367
20424W        W36318  14.280  12.850   1.438 -0.2476  0.0383  0.0947
20425W        W36319  15.871   0.756   1.371 -0.2302 -0.2639 -0.4421
20426W        W36320  13.845   1.560   2.011 -0.2594  0.0265  0.1478
20427W        W36321  14.605   9.023  11.928  0.4668 -0.0049  0.1008
20428W        W36322   7.660  10.661   4.472  0.0024  0.1327  0.1221
20429W        W36323  15.154  10.320  12.187  0.2061  0.0885 -0.0014
20430W        W36324  10.792   3.998  13.608 -0.3582  0.3215 -0.3161
20431W        W36325   4.487  15.073  10.412 -0.1627  0.0819  0.0657
20432W        W36326  12.477   4.542  15.013  0.0461  0.2971 -0.3273
20433W        W36327   0.899   3.130   0.021 -0.0217 -0.0576  0.2354
20434W        W36328   0.144   1.239  13.304  0.3163  0.0852  0.0262
20435W        W36329  16.744   4.575   5.074  0.0261 -0.2571  0.0698
20436W        W36330   2.310   4.656   5.984 -0.3932 -0.3521 -0.2478
20437W        W36331  11.744   7.676  12.162  0.1859 -0.2427 -0.2780
20438W        W36332   5.056   7.708  14.649 -0.1449  0.0900  0.2360
20439W        W36333  11.940  17.617   0.265 -0.3247  0.1115 -0.0324
20440W        W36334   8.940   3.200   0.390 -0.4025 -0.2481 -0.2384
20441W        W36335  13.560   6.392   5.143  0.1420  0.5114  0.2044
20442W        W36336   3.779   3.856  11.397 -0.0448 -0.1361  0.0570
20443W        W36337  14.589  14.846   4.943 -0.2558  0.0547  0.2668
20444W        W36338  10.507  15.509  13.209 -0.0528  0.1587  0.0773
20445W        W36339  12.884   3.082   3.463  0.0617 -0.1264  0.2629
20446W        W36340  13.765   3.020   3.070 -0.0595 -0.1290  0.5395
20447W        W36341  10.796   7.039   3.108  0.3083 -0.0959 -0.0845
20448W        W36342  10.004   7.342   3.609  0.0929 -0.1373 -0.0785
20449W        W36343   7.550  13.980  13.084 -0.2589 -0.4273  0.1308
20450W        W36344  18.628   8.796  12.830 -0.2312  0.1353  0.2145
20451W        W36345   0.741  18.642   2.891  0.2493 -0.0269  0.0156
20452W        W36346  15.031   7.173   3.367  0.0542  0.1969  0.3350
20453W        W36347   6.593   5.597   0.346  0.0660 -0.0795 -0.1656
20454W        W36348   0.463   4.537   5.163 -0.0705  0.2530  0.1740
20455W        W36349   4.722  16.793   0.098  0.0326 -0.0116  0.2634
20456W        W36350   4.534   2.019  13.882 -0.1004  0.1285 -0.0330
20457W        W36351  13.762   7.920   1.430 -0.0611 -0.2322  0.2393
20458W        W36352   1.462  17.575   1.729  0.1528  0.0403  0.2295
20459W        W36353  18.082   3.126   2.456 -0.3200  0.1412 -0.1148
20460W        W36354   6.466   6.728  11.957 -0.1512 -0.0437 -0.3253
20461W        W36355   6.292   8.401  11.127  0.3272  0.1581  0.0151
20462W        W36356   0.981  15.431   1.626 -0.0182  0.0694 -0.0424
20463W        W36357   0.999   0.763  11.660  0.0312  0.0401 -0.1786
20464W        W36358   7.146  15.977  10.894 -0.0134 -0.3929 -0.1999
20465W        W36359   9.917   2.668  14.691 -0.2560  0.0764  0.2821
20466W        W36360   5.787  18.574  14.081  0.0119 -0.2282  0.2646
20467W        W36361   6.962  15.906  12.809  0.0052 -0.0854  0.0975
20468W        W36362  12.874  17.402  11.558 -0.1467 -0.0023  0.0449
20469W        W36363  11.764  11.943   0.435 -0.0590 -0.1560 -0.0756
20470W        W36364   0.183  14.710   2.641 -0.4448  0.0598 -0.5139
20471W        W36365  12.523  10.296  11.579 -0.2921  0.0696 -0.1099
20472W        W36366  12.966  18.510  14.943 -0.0082  0.0604 -0.0849
20473W        W36367   7.824  10.277  10.367 -0.2391  0.0397 -0.1740
20474W        W36368  17.588   1.356  14.627 -0.0450 -0.0147  0.0033
20475W        W36369   8.805  12.430  13.429  0.1970  0.1216  0.0912
20476W        W36370  17.456  17.062  10.542 -0.1996  0.0667 -0.0524
20477W        W36371  11.187  10.747   2.835  0.1501  0.1416 -0.0136
20478W        W36372   7.811  13.358  11.535  0.0377 -0.0303  0.1557
20479W        W36373  15.678   7.733   5.970 -0.1208  0.4561  0.2513
20480W        W36374   1.670   1.505   2.382 -0.0094 -0.1346  0.0832
20481W        W36375  14.107   7.923   3.585 -0.0203  0.1113 -0.0085
20482W        W36376   0.745   4.484  12.643 -0.2199 -0.2424 -0.2398
20483W        W36377   6.577   7.925   3.205 -0.1272 -0.2666  0.0921
20484W        W36378  18.837   9.072  11.906  0.0444 -0.1682  0.0344
20485W        W36379   9.160  10.948  11.035 -0.4132  0.2668  0.0750
20486W        W36380  12.257   1.349   1.206  0.1796  0.2994  0.1490
20487W        W36381  14.954  12.069  14.006 -0.2901  0.2218 -0.2089
20488W        W36382   1.517   0.014   3.708  0.0835 -0.0704 -0.1106
20489W        W36383  18.935  11.103   4.130 -0.0001 -0.0582 -0.3014
20490W        W36384  16.435   4.569   3.976  0.0140 -0.1962 -0.1033
20491W        W36385   3.698   8.532   0.573 -0.1310  0.2941  0.2823
20492W        W36386  13.238   9.670   3.440 -0.2168  0.3785  0.0083
20493W        W36387   4.834   3.309   2.848 -0.0487 -0.0375  0.1894
20494W        W36388  13.316  18.014  10.851 -0.0178 -0.3169 -0.0221
20495W        W36389  16.399  14.635  12.917 -0.1977  0.5212 -0.2088
20496W        W36390  10.499   8.295  10.644 -0.2729  0.0042  0.1605
20497W        W36391  10.899  19.198  10.921 -0.0424 -0.1874  0.1028
20498W        W36392  18.326   3.959  12.217 -0.3137  0.0050 -0.1211
20499W        W36393   2.060   8.752  12.686 -0.1215 -0.1663  0.0533
20500W        W36394  18.083   8.907   1.654  0.1372 -0.0697  0.0068
20501W        W36395   5.512   0.827   2.601 -0.0574 -0.4893  0.0372
20502W        W36396  14.566   5.139  12.891  0.2671 -0.2054  0.0706
20503W        W36397  11.086   5.591   1.368  0.2680 -0.0214  0.0851
20504W        W36398  12.415   9.105  12.702  0.1779  0.2406  0.1976
20505W        W36399  11.507   4.822  12.365  0.1639 -0.2693 -0.2643
20506W        W36400   1.224  18.687  14.010 -0.1159  0.0840  0.0464
20507W        W36401  16.292   6.836  13.375  0.1041 -0.2611  0.0921
20508W        W36402   9.883   5.627  14.250  0.0260 -0.2244  0.0608
20509W        W36403   1.342   4.013   2.546  0.2249  0.3628  0.0541
20510W        W36404  18.994   0.085  10.545  0.1185  0.0231 -0.1568
20511W        W36405   0.016  13.730  12.702  0.1320  0.0255  0.1547
20512W        W36406   9.659   7.673   2.781  0.1063 -0.2127  0.0801
20513W        W36407   5.986   4.209   3.362 -0.2159  0.1985  0.1450
20514W        W36408   7.621  19.198  11.414  0.0441 -0.4728  0.1409
20515W        W36409   1.267  15.376  11.243 -0.2025  0.1409 -0.1486
20516W        W36410  14.806   0.409  14.085 -0.1497 -0.0192 -0.1441
20517W        W36411   4.217   3.251  12.766 -0.3119  0.1152 -0.1248
20518W        W36412  13.696   9.736  12.705  0.7814 -0.1870 -0.3775
20519W        W36413   3.504  16.795   5.091  0.2659  0.1114 -0.2000
20520W        W36414  15.711   3.543  13.503  0.0589 -0.1581 -0.0643
20521W        W36415  14.023  13.924   3.557 -0.0050  0.1027  0.0914
20522W        W36416   9.390  11.390  13.142  0.1162  0.2958  0.0439
20523W        W36417   5.031   7.735   1.416 -0.0522 -0.2697  0.0266
20524W        W36418   7.084   9.813  12.910 -0.1163 -0.2723 -0.1849
20525W        W36419  14.243   2.613  12.629  0.1764  0.1058 -0.0125
20526W        W36420   6.074   0.914   1.923 -0.1674 -0.1739 -0.1196
20527W        W36421  17.910   9.226  13.446  0.2070 -0.1481  0.1769
20528W        W36422   1.860   4.388   1.840  0.0501  0.1267 -0.0567
20529W        W36423   4.094   6.623  13.055  0.1155 -0.1933  0.1790
20530W        W36424   4.630   0.439   1.244  0.0147 -0.0866 -0.2750
20531W        W36425  12.003  15.213   3.616  0.0021 -0.1221  0.2145
20532W        W36426  14.002   6.752  12.288  0.2378 -0.0484  0.0256
20533W        W36427   7.760   8.726   1.676 -0.2936  0.0086 -0.1269
20534W        W36428   6.041  13.402  12.226  0.0145  0.2152  0.2183
20535W        W36429   3.406  12.956   5.096  0.0158 -0.0386  0.2259
20536W        W36430  11.318   5.261   2.164  0.1941 -0.3651  0.0993
20537W        W36431   9.683  14.205  12.081  0.1102  0.1114  0.1880
20538W        W36432  18.095  12.722   4.571 -0.0383 -0.1206  0.0419
20539W        W36433  18.787   6.505  11.820 -0.0799 -0.0969 -0.0757
20540W        W36434   6.954   2.590  12.498 -0.1246  0.3599  0.0477
20541W        W36435  17.613   2.880  10.002 -0.2393  0.0853  0.0835
20542W        W36436  14.773   6.203  13.437 -0.1612  0.1860  0.1390
20543W        W36437  10.248   9.984  10.964  0.1472 -0.1157  0.0111
20544W        W36438   9.636   2.111   2.822  0.0873 -0.1122  0.0398
20545W        W36439   3.257  16.401   4.930 -0.1005  0.1820 -0.1004
20546W        W36440   3.829  15.514   4.039  0.0231 -0.2530 -0.2276
20547W        W36441   1.891  12.879  10.584 -0.1422  0.0520  0.0961
20548W        W36442  17.514  12.195  11.659  0.2131  0.0864  0.1735
20549W        W36443  10.475  15.017  12.947 -0.1851 -0.4287  0.0533
20550W        W36444   2.470  18.311   0.159 -0.0092 -0.1283  0.0641
20551W        W36445   5.448  19.142   4.553  0.0905  0.1970  0.1060
20552W        W36446   6.819  13.353   4.082 -0.0886 -0.3219  0.0384
20553W        W36447   5.297   9.388  14.255  0.3081 -0.4012  0.0622
20554W        W36448   8.485   3.577  14.180 -0.3075  0.0534  0.1055
20555W        W36449   2.035  15.778  13.429 -0.0662  0.0156 -0.0207
20556W        W36450  13.486  14.132  11.542  0.1154 -0.4976  0.1235
20557W        W36451  14.310   4.382   1.553  0.1790  0.0423  0.5083
20558W        W36452  16.922   3.110   3.274  0.0550 -0.3186 -0.0650
20559W        W36453  12.109  17.346  12.164  0.0058 -0.1545 -0.0737
20560W        W36454   7.949  18.965   2.167 -0.2130 -0.0123 -0.0019
20561W        W36455   9.393   9.999  14.725  0.0931 -0.2415 -0.0499
20562W        W36456   0.134  16.862  14.021 -0.1146  0.0159 -0.1109
20563W        W36457  10.743   4.132   0.160  0.0834 -0.0026  0.2729
20564W        W36458   0.692  17.573   5.411 -0.1390 -0.1905  0.2170
20565W        W36459   0.809  18.105   4.676  0.0332 -0.1958 -0.2120
20566W        W36460  13.701   8.392   1.175  0.0347 -0.1315  0.1982
20567W        W36461   6.083   0.334   4.810  0.1053  0.1555  0.1855
20568W        W36462   9.883   5.814  14.905  0.1793  0.0674  0.2628
20569W        W36463  12.751  12.857  11.740  0.2719 -0.0532 -0.0823
20570W        W36464  14.016   3.503  11.889  0.0028  0.1915 -0.0126
20571W        W36465  18.769   5.169  11.084  0.0888  0.0728  0.0310
20572W        W36466  14.374  17.572  14.990 -0.2757  0.0564 -0.0767
20573W        W36467  18.298  17.306   0.787  0.0992 -0.0522  0.0417
20574W        W36468  13.563  10.664   5.127  0.0454  0.1338  0.0581
20575W        W36469  16.897   7.046   0.110  0.0457  0.1751 -0.0691
20576W        W36470  10.988   3.585  12.532 -0.0152 -0.0254  0.1176
20577W        W36471  18.718   5.569  15.046 -0.1126  0.2579  0.0484
20578W        W36472  10.819  16.194   4.545 -0.3841  0.3203 -0.1109
20579W        W36473   2.841   4.103   4.947  0.0598 -0.2980 -0.0572
20580W        W36474  17.466   7.722   2.971  0.1965  0.2197  0.2148
20581W        W36475   3.623   6.803  11.759 -0.1791  0.0599  0.1600
20582W        W36476  12.010   3.132   2.247 -0.3251  0.0194 -0.1729
20583W        W36477   0.750   9.574  12.191  0.2507  0.0877 -0.2868
20584W        W36478   6.293   6.347  15.065 -0.0997  0.3368 -0.1501
20585W        W36479   1.449   8.408   0.856  0.2471  0.1723  0.2104
20586W        W36480   6.486   3.471   2.904 -0.2267  0.0847 -0.0077
20587W        W36481  11.376  17.666  12.144 -0.1379  0.0433 -0.2540
20588W        W36482  10.002   0.452  14.120 -0.1778  0.0147  0.0773
20589W        W36483   2.336  18.938  10.890 -0.0160 -0.1479 -0.2476
20590W        W36484   3.550   7.894  14.987 -0.2038 -0.1963  0.3216
20591W        W36485  16.407  18.895   4.380 -0.2864 -0.2219 -0.0023
20592W        W36486  10.226  17.686  11.419 -0.0066  0.1372  0.0842
20593W        W36487  15.341  10.597   3.614 -0.0068  0.0172 -0.1713
20594W        W36488   5.711  13.223  10.383  0.1157 -0.1317 -0.0280
20595W        W36489  14.378   6.784  12.669  0.0388  0.1426  0.4792
20596W        W36490  15.104  10.856   4.048 -0.3829 -0.0683 -0.2008
20597W        W36491   8.034  13.370  10.211  0.1371  0.1499 -0.1654
20598W        W36492   9.805   4.602   2.575 -0.0265  0.2558 -0.0843
20599W        W36493  15.111  18.602  11.612 -0.0082  0.2832 -0.1976
20600W        W36494  11.287   3.275  11.484  0.2858 -0.1010 -0.2209
20601W        W36495  10.366  15.058   3.788 -0.0313 -0.1703 -0.1196
20602W        W36496   2.079   8.096   1.518  0.0869  0.1730  0.1756
20603W        W36497  11.548  18.959   0.501 -0.0478  0.1682 -0.1226
20604W        W36498  16.393  18.232   4.979 -0.1771  0.3078  0.1675
20605W        W36499  14.276   1.601  13.608  0.0166  0.1006  0.2675
20606W        W36500   0.196   6.037  13.482  0.0148  0.0424  0.3861
20607W        W36501  14.852   8.160  14.407 -0.0098 -0.1451  0.0845
20608W        W36502  14.098  17.126  11.562 -0.1255  0.1893 -0.0394
20609W        W36503   0.383  15.284   9.892 -0.0571  0.0330 -0.1261
20610W        W36504  12.521   6.981   4.226 -0.0198  0.1146 -0.0575
20611W        W36505   8.974   8.784  10.536 -0.0708  0.0229 -0.2653
20612W        W36506   1.052   0.084  13.244  0.3923 -0.0660  0.3783
20613W        W36507  16.927  15.858   3.866 -0.1700 -0.2503 -0.3418
20614W        W36508   9.616  14.207   4.608 -0.0553 -0.0429  0.1581
20615W        W36509   9.145   4.013  11.091 -0.0020  0.1801 -0.2151
20616W        W36510  14.152  17.284  12.080 -0.0572  0.0371  0.0301
20617W        W36511  15.485   7.250   1.045  0.4681 -0.3840  0.1056
20618W        W36512   0.511   0.867   4.582  0.0110  0.0238 -0.2046
20619W        W36513   5.377  17.177   2.998 -0.2118  0.0233 -0.2450
20620W        W36514   2.154  12.128  10.408  0.0547  0.0166 -0.0167
20621W        W36515  14.399   0.176   3.216  0.1575 -0.2388 -0.2787
20622W        W36516  15.912   9.822  11.579  0.0926 -0.0636  0.2646
20623W        W36517  18.634  12.314  12.865  0.0141  0.1053 -0.3613
20624W        W36518   2.763   2.361  12.060  0.0577  0.0787 -0.3098
20625W        W36519   2.466  11.367   3.251  0.0404 -0.2512 -0.0452
20626W        W36520  16.989  11.571   3.804 -0.0858 -0.3609 -0.0982
20627W        W36521  10.826   7.986  14.910 -0.0298  0.2400  0.4023
20628W        W36522   3.854   5.101  15.058  0.0638  0.5086 -0.0347
20629W        W36523   0.399  14.121   1.814 -0.0775 -0.1922  0.0444
20630W        W36524   1.898   2.275   4.119 -0.1091 -0.0782 -0.0021
20631W        W36525  10.231   9.147   0.241  0.0837 -0.0354  0.0312
20632W        W36526   9.000  16.617   0.990 -0.1718  0.3067 -0.0658
20633W        W36527  16.575  18.683  10.119  0.1926  0.0521 -0.2571
20634W        W36528  17.743  15.533   1.396  0.0414  0.3577  0.0772
20635W        W36529   5.057   1.348  11.355 -0.2733  0.3243 -0.0175
20636W        W36530   2.365  16.927  10.382  0.0555  0.2504 -0.3233
20637W        W36531   5.597   8.164   4.231  0.0362  0.0912 -0.0201
20638W        W36532  12.895   7.333  13.905 -0.1913  0.0887 -0.1069
20639W        W36533  17.611   4.434   3.435  0.1652  0.0795  0.1827
20640W        W36534  16.503  12.095  15.092 -0.1540  0.1343  0.1278
20641W        W36535  12.386   2.107   0.382  0.1748  0.0144 -0.0107
20642W        W36536   4.856   7.086   1.514  0.0079  0.4147 -0.1208
20643W        W36537  18.577   7.420  11.584 -0.0734  0.2329 -0.3040
20644W        W36538  14.396   5.503   3.836  0.0572 -0.0293 -0.3202
20645W        W36539  16.850   8.202   2.015 -0.1890  0.1001 -0.0541
20646W        W36540  14.662   1.752  13.951  0.3761  0.0970 -0.2872
20647W        W36541  15.151  17.497  10.957 -0.1342  0.2107  0.1135
20648W        W36542   0.747  16.834  12.328 -0.1457  0.4085 -0.2413
20649W        W36543   6.504  19.118  12.134  0.2688 -0.2764 -0.3096
20650W        W36544   6.387   3.976   3.024  0.2600 -0.0813 -0.0117
20651W        W36545   5.436  12.434  13.376 -0.1951  0.2162  0.2234
20652W        W36546   3.884  17.127  11.618 -0.0026 -0.0862 -0.1657
20653W        W36547   4.918  13.018  14.901 -0.0752 -0.1537 -0.0794
20654W        W36548  13.006   4.255   2.342 -0.1069 -0.0916 -0.0840
20655W        W36549   0.450  12.543   4.605  0.1493  0.1291 -0.0240
20656W        W36550  19.222   1.772   9.760 -0.0840  0.4368  0.2107
20657W        W36551   4.588   1.956   0.944 -0.0156  0.0150  0.1223
20658W        W36552  15.326   0.165   2.632  0.2634  0.2243 -0.0283
20659W        W36553   2.251   3.092  13.583 -0.0725  0.0912 -0.1723
20660W        W36554   9.101   1.984   0.902  0.0605 -0.1317  0.1206
20661W        W36555  11.548   7.429  14.911  0.2521 -0.0474  0.2374
20662W        W36556   0.326   9.744  11.853 -0.2312 -0.4195 -0.0045
20663W        W36557   5.537  17.340  14.104 -0.1849  0.1215  0.1184
20664W        W36558  12.399   2.509  11.210  0.1541 -0.2472  0.1626
20665W        W36559  19.020  18.427   4.588 -0.2998 -0.0990 -0.1888
20666W        W36560  17.511   3.033  11.713  0.3694 -0.1425 -0.1110
20667W        W36561   5.389  14.611  12.388 -0.0432  0.0782  0.3065
20668W        W36562  12.654   5.309   1.057  0.1723 -0.3908 -0.2135
20669W        W36563   1.042  10.368  14.383  0.0565  0.0857  0.2995
20670W        W36564   8.440  17.875  13.245 -0.0147  0.3371  0.1229
20671W        W36565   4.747  17.450   3.354  0.0375 -0.0531  0.1977
20672W        W36566   1.529   7.529  11.826 -0.1108  0.0193  0.0043
20673W        W36567  19.179   9.170  10.424  0.0942 -0.0657 -0.0285
20674W        W36568  10.383   9.463   2.052  0.2286 -0.1082  0.0618
20675W        W36569   0.333  10.338   1.250  0.0567  0.1794 -0.3234
20676W        W36570  13.390   4.238  14.375 -0.1290 -0.1119  0.0254
20677W        W36571  15.431  16.312  13.323 -0.0159  0.2774 -0.0569
20678W        W36572   1.140   1.523  12.157  0.0727  0.0829 -0.1041
20679W        W36573  13.165   3.813   3.193 -0.3186 -0.5329 -0.0748
20680W        W36574  13.671   9.563  14.040  0.1765 -0.0228  0.3539
20681W        W36575   9.473   2.521  14.845  0.1958  0.0070  0.0331
20682W        W36576   7.885   9.749  14.492 -0.0716  0.3859 -0.2615
20683W        W36577  11.775   8.365   0.536 -0.0324 -0.0216  0.0701
20684W        W36578   7.233   4.223  11.710 -0.1754  0.3594 -0.0709
20685W        W36579   6.042  16.476  10.484  0.1041 -0.2155  0.1385
20686W        W36580  17.620   0.810   2.156 -0.1786  0.1321  0.0054
20687W        W36581  14.536  17.775   4.245  0.0987 -0.1107 -0.3015
20688W        W36582   2.279   5.278   1.882  0.0403  0.0311  0.1910
20689W        W36583  18.730   9.944  14.124  0.0560 -0.0080  0.0834
20690W        W36584   7.238   6.394  13.043  0.0270  0.1382  0.2246
20691W        W36585   2.493   5.931  11.809  0.0091 -0.3571 -0.1955
20692W        W36586  14.108   4.726  12.592  0.0724  0.0016  0.1368
20693W        W36587   9.545  11.943   1.641  0.3923  0.0753  0.0389
20694W        W36588  17.150   1.113  11.869  0.3988 -0.1890  0.1048
20695W        W36589   1.801   0.072  14.309  0.2228  0.2205  0.4047
20696W        W36590   9.496  12.055   3.016  0.2339  0.1925 -0.0177
20697W        W36591   2.303  14.889   1.350  0.1258  0.0554  0.2429
20698W        W36592  11.184  13.864  13.189  0.0423  0.2098 -0.0100
20699W        W36593   8.768   5.208   4.432  0.1896 -0.1092  0.1714
20700W        W36594  15.875  11.426   1.565  0.0658 -0.1981 -0.1060
20701W        W36595  13.927  12.952   3.052  0.0515  0.3214 -0.2244
20702W        W36596   6.578   0.289   2.660 -0.0934  0.0493  0.2721
20703W        W36597   4.283   6.331  11.246 -0.0869 -0.0429 -0.0142
20704W        W36598   9.572   0.261  10.760 -0.0139 -0.0562  0.0276
20705W        W36599  19.096   2.209  10.139  0.2188 -0.0786  0.0409
20706W        W36600   2.314   3.156   4.358  0.0514  0.1800 -0.1004
20707W        W36601  14.320  11.343   0.083  0.3315  0.2200 -0.3818
20708W        W36602   0.726  15.373   3.468  0.0089  0.0296  0.2902
20709W        W36603   8.821   0.790  11.535 -0.1262  0.1498  0.1450
20710W        W36604  15.127   6.860   1.761 -0.1999 -0.1281 -0.1462
20711W        W36605  14.180  16.982   3.991  0.0057 -0.1392  0.4696
20712W        W36606  11.230   1.378   4.893 -0.0612  0.1940 -0.0428
20713W        W36607  15.574   2.247  12.506 -0.2641  0.0241 -0.3157
20714W        W36608   7.984  15.853  12.588  0.0147 -0.2824 -0.3538
20715W        W36609   3.838  12.842  11.378 -0.3011 -0.0797 -0.1712
20716W        W36610   0.620   9.942   3.001  0.0862  0.3360 -0.2359
20717W        W36611  12.289   2.094   2.030 -0.0306 -0.1022 -0.1036
20718W        W36612  11.684   7.104   0.626  0.6667 -0.0541 -0.2255
20719W        W36613   3.796  15.134   4.514 -0.2588 -0.0444  0.0845
20720W        W36614  14.389  16.111  14.512 -0.1086 -0.2809 -0.4497
20721W        W36615  16.730   3.813  12.124  0.2158  0.1327 -0.1722
20722W        W36616  12.442  13.604  11.968 -0.1267  0.0906 -0.3262
20723W        W36617   5.287  10.694   2.976 -0.2744 -0.0806  0.0562
20724W        W36618  18.235  17.788   3.933 -0.0198  0.0658 -0.2339
20725W        W36619  10.606   6.236   0.918  0.2046  0.2676 -0.1757
20726W        W36620   9.157  13.494  13.951 -0.0435 -0.0845  0.1293
20727W        W36621  10.481  12.542   1.397 -0.1092 -0.0825 -0.2841
20728W        W36622  14.531   6.678   1.965 -0.2796  0.1590 -0.1672
20729W        W36623  16.825   9.431  12.287 -0.0305 -0.1831  0.4278
20730W        W36624  12.089  17.069   3.034 -0.0455 -0.0156  0.0102
20731W        W36625  14.413  17.072   0.011  0.3685  0.1671 -0.1284
20732W        W36626   1.094  14.255  11.967 -0.0498  0.1585 -0.2391
20733W        W36627  19.074  16.749  11.454  0.0495  0.0233  0.0205
20734W        W36628   5.449  15.236   0.793  0.3301  0.2690 -0.2939
20735W        W36629  17.059   5.786   5.327  0.3956 -0.2132  0.4160
20736W        W36630   8.611   1.293   3.851 -0.1158  0.1123  0.0418
20737W        W36631  15.605  12.569  14.987 -0.0167 -0.4076 -0.1062
20738W        W36632   9.448   9.789   4.111 -0.0766  0.0880  0.0233
20739W        W36633   2.007  11.089   3.396  0.0165 -0.1348 -0.1344
20740W        W36634  16.429  16.621  14.506 -0.0391 -0.1899  0.1190
20741W        W36635  13.898   9.339  11.462 -0.1181 -0.2537  0.3055
20742W        W36636  14.057  13.542  10.348 -0.1143 -0.3293  0.1457
20743W        W36637   4.634  12.340  11.608  0.4271 -0.1646 -0.0736
20744W        W36638   4.512   1.522  12.143 -0.3562 -0.0303 -0.1589
20745W        W36639   8.170  15.571   1.644  0.1372  0.2211 -0.0218
20746W        W36640   0.223   8.019   2.572  0.2178  0.0540 -0.2344
20747W        W36641   2.021  12.902  12.016 -0.0548  0.0060  0.1649
20748W        W36642   4.807   8.331   3.649 -0.1047 -0.2592  0.0811
20749W        W36643  14.553  11.222   2.156 -0.2531  0.1505  0.0315
20750W        W36644   5.182   7.596   0.564  0.0769 -0.2478  0.1234
20751W        W36645  17.782  16.176  14.449 -0.1137 -0.1607  0.1680
20752W        W36646   9.828   4.061  12.336 -0.0558  0.4748 -0.5504
20753W        W36647   8.731  11.195   5.435  0.3368 -0.1371  0.2313
20754W        W36648   2.579   9.911   0.715 -0.1793 -0.2431 -0.0195
20755W        W36649   3.914   4.581   5.097  0.0448  0.0418  0.0920
20756W        W36650   0.035  17.668  11.054 -0.0096 -0.2040 -0.1381
20757W        W36651  18.592   5.085  12.607  0.1057 -0.0771  0.2204
20758W        W36652  10.271  13.040   3.264  0.0238  0.0559  0.2146
20759W        W36653   4.441  11.885  11.695  0.1588  0.2562  0.2150
20760W        W36654   8.037   4.365  13.498 -0.1057 -0.0282  0.0074
20761W        W36655  14.930  18.160   4.994 -0.2259 -0.0647 -0.0571
20762W        W36656   6.363   4.551   4.935 -0.0641 -0.0866 -0.0058
20763W        W36657   8.462  15.000  11.710  0.2032 -0.2267  0.0568
20764W        W36658   6.249   4.563   1.888  0.1351 -0.0175 -0.2085
20765W        W36659  15.681  16.426  10.532  0.2546  0.0377 -0.0559
20766W        W36660  17.185   4.687   2.484  0.0348  0.0886  0.1403
20767W        W36661   1.941   3.202   1.954  0.1895 -0.2174 -0.0424
20768W        W36662  12.487  19.217   9.812  0.1753  0.1603  0.1999
20769W        W36663  17.396   7.023  11.392 -0.1121  0.0069  0.2767
20770W        W36664  10.355  17.424  10.666 -0.3661  0.0279 -0.2134
20771W        W36665   2.145   8.958  13.168 -0.2328  0.0492 -0.0828
20772W        W36666  17.319  10.712  14.115  0.1363 -0.0921  0.1278
20773W        W36667   1.438  15.263  14.770  0.1670  0.1405  0.0901
20774W        W36668   5.493  15.291   0.002  0.2153  0.1357  0.0077
20775W        W36669   9.033  14.075   9.473 -0.1581 -0.4213 -0.0531
20776W        W36670   0.474   8.181   0.930 -0.0770  0.0215 -0.0249
20777W        W36671   1.266  14.824  14.034  0.1318 -0.1738  0.2118
20778W        W36672   3.232  11.188  13.416 -0.0848 -0.1471  0.1931
20779W        W36673  17.204   9.970  14.400  0.1635 -0.0389  0.0291
20780W        W36674   9.186   9.463  11.099 -0.1751 -0.0734 -0.3287
20781W        W36675  15.097   3.622  11.689 -0.1898  0.0373  0.1770
20782W        W36676   7.699   0.363  13.996 -0.0094  0.4584  0.2281
20783W        W36677   3.070  13.650  11.197  0.0934  0.1009 -0.2806
20784W        W36678  16.585  13.826   3.507  0.1108 -0.1601 -0.2589
20785W        W36679  18.424   3.959   2.308  0.4633  0.0504 -0.1716
20786W        W36680   4.223   5.771  11.328 -0.2063 -0.3097  0.3134
20787W        W36681  17.363  10.056   9.353 -0.2200  0.0094 -0.0752
20788W        W36682   0.241  15.988  13.945  0.1758  0.0680 -0.1758
20789W        W36683  14.034  13.175   1.135  0.4214  0.0092 -0.2669
20790W        W36684   3.451   2.611   5.044  0.1398  0.0351  0.2739
20791W        W36685   1.739  16.154   1.364 -0.0895  0.1276  0.2214
20792W        W36686  16.457   8.516  13.771  0.3204 -0.3160 -0.2045
20793W        W36687  13.024  11.441  12.240  0.1805  0.0291  0.0204
20794W        W36688   2.218   2.337   0.736 -0.0962 -0.1837  0.0070
20795W        W36689  19.122   6.269   0.964  0.3485 -0.1947 -0.0470
20796W        W36690   2.745   1.475   2.632  0.0740 -0.4373  0.2037
20797W        W36691  14.480   3.747  13.917 -0.5210 -0.2946 -0.1593
20798W        W36692   8.793   7.335   4.854 -0.0175 -0.2395 -0.3531
20799W        W36693  15.371  14.264  14.753  0.2667  0.2566  0.2313
20800W        W36694  15.493  11.935   1.749  0.2416 -0.2330  0.3041
20801W        W36695  17.705   1.327   2.284 -0.0049 -0.1164  0.0143
20802W        W36696   9.046   8.023   1.619 -0.1769 -0.0333 -0.2003
20803W        W36697  14.553  18.320   2.512  0.0270  0.1503 -0.0017
20804W        W36698   2.093  11.813  14.682  0.2286  0.0674 -0.1246
20805W        W36699  13.840   6.406   0.371 -0.0809  0.0930  0.1544
20806W        W36700  16.862   4.033   0.831  0.0984 -0.2012  0.1792
20807W        W36701   6.876  15.134   3.540  0.0397 -0.2450  0.0099
20808W        W36702  15.463   6.008   5.384  0.0221 -0.2929 -0.1828
20809W        W36703   9.615   6.704  12.761  0.2868 -0.5921 -0.2257
20810W        W36704   2.954   5.021   1.662  0.1850 -0.3870  0.1724
20811W        W36705   7.572  18.730  12.427  0.0450  0.0797 -0.2095
20812W        W36706  12.684  12.338  12.475  0.5377 -0.2414 -0.0852
20813W        W36707  16.354  15.656   1.501 -0.0439  0.0346 -0.0164
20814W        W36708   1.647   6.228  13.568 -0.0603 -0.0259 -0.0748
20815W        W36709  14.509   1.094   2.659  0.0079  0.1481  0.2283
20816W        W36710  10.206   8.298   1.917 -0.3428 -0.0126  0.0163
20817W        W36711  17.594  15.527   0.451  0.2343  0.0334 -0.1447
20818W        W36712  15.339   1.456   3.218 -0.1938 -0.0248 -0.0106
20819W        W36713  11.486   5.761   5.697  0.4072 -0.1350 -0.1412
20820W        W36714  15.997  11.636   2.552  0.2095  0.1900  0.3579
20821W        W36715   0.940   6.601   9.956  0.1006  0.0816 -0.0342
20822W        W36716   1.726   8.773  10.185  0.2034  0.1353  0.1352
20823W        W36717  16.377  12.584  14.663  0.0165  0.2655  0.0717
20824W        W36718   9.815   9.317  10.384 -0.2655  0.0195 -0.1133
20825W        W36719   1.920   7.902   4.174  0.1791  0.2002 -0.0232
20826W        W36720   9.557  16.716   2.046  0.4317  0.2254  0.1992
20827W        W36721  11.453  13.024   4.096  0.1194  0.0584 -0.0903
20828W        W36722   2.237  14.892   4.370  0.0062  0.0567 -0.0479
20829W        W36723  15.293   3.424   2.368 -0.0157 -0.0305 -0.0849
20830W        W36724   8.875  16.437   2.732 -0.0960  0.1035  0.2243
20831W        W36725  18.595   5.889  11.782 -0.0892  0.0712 -0.0210
20832W        W36726  14.474  15.528   0.514  0.2480 -0.1622 -0.1921
20833W        W36727   1.499  18.092   0.496  0.0318  0.5605  0.0420
20834W        W36728  18.272  12.916   2.871 -0.0195  0.2527 -0.1390
20835W        W36729   9.084   4.655   5.091 -0.0030  0.3138  0.4167
20836W        W36730  17.058  13.996  13.771  0.1267 -0.3020 -0.0832
20837W        W36731  13.599   5.045  13.741  0.0726  0.0810 -0.1536
20838W        W36732   8.906  14.580  12.312 -0.1632  0.0601 -0.2992
20839W        W36733   1.563   6.273   2.278 -0.0513 -0.1508  0.0146
20840W        W36734   0.807  17.502  11.757 -0.1314  0.1468 -0.0517
20841W        W36735  10.475   2.284   3.856  0.3523  0.0761 -0.1119
20842W        W36736   0.537   2.176   2.765  0.2667  0.1207  0.3118
20843W        W36737   4.299   4.030   3.896  0.0405  0.0394 -0.0366
20844W        W36738   4.792  11.639  11.459  0.3599  0.3311  0.3641
20845W        W36739  13.973  18.802  12.984 -0.3416  0.1205 -0.0837
20846W        W36740  10.456   8.605  13.309  0.2624 -0.1885 -0.0754
20847W        W36741  11.641   0.693   3.418 -0.1006 -0.0971  0.3811
20848W        W36742   5.484   5.417   5.119 -0.3894  0.1218  0.0051
20849W        W36743   0.844  13.810   0.167  0.0227 -0.1052  0.2619
20850W        W36744  16.267   0.200  12.047  0.1345  0.1540  0.2647
20851W        W36745   2.317  10.887  13.294  0.2571 -0.3219 -0.1499
20852W        W36746  15.800   8.627   4.084  0.4431  0.0362  0.2041
20853W        W36747   7.113  11.922   4.239 -0.0953  0.0715 -0.0056
20854W        W36748   2.771  10.546   5.098 -0.1630 -0.2457  0.0244
20855W        W36749  16.234   7.302  13.677 -0.0010  0.2158  0.1337
20856W        W36750   4.888  12.568   5.289  0.0454  0.5748  0.3416
20857W        W36751  15.671  15.402   2.089 -0.0860 -0.0886  0.0592
20858W        W36752   8.453   9.483  10.551  0.0680  0.5118  0.2157
20859W        W36753  14.517  13.614  14.515 -0.1463 -0.1116 -0.0243
20860W        W36754  16.001   6.352   1.898 -0.0026 -0.0531  0.2761
20861W        W36755   8.534  18.506   0.662 -0.0733 -0.1781  0.2793
20862W        W36756   5.735  15.385  11.331 -0.2021 -0.1041  0.0713
20863W        W36757   4.631  16.758   0.585 -0.2731  0.2865  0.0044
20864W        W36758   2.376   1.698   2.954 -0.2449 -0.0773  0.1852
20865W        W36759   3.979  10.516  13.542 -0.1411 -0.0447  0.0364
20866W        W36760   4.826  16.254  10.954 -0.0077 -0.0585  0.0079
20867W        W36761  12.966  19.174   0.644  0.3946 -0.1529  0.0266
20868W        W36762  18.494  16.282   2.664 -0.1151 -0.1508  0.2651
20869W        W36763  12.254  14.854  14.257  0.0577 -0.2197 -0.1431
20870W        W36764   8.332  12.364   0.368 -0.1278  0.1528 -0.0710
20871W        W36765  13.616  10.870   2.105 -0.2332 -0.1194 -0.0071
20872W        W36766   5.552  11.539   4.105  0.0879 -0.0525  0.0599
20873W        W36767   0.518  19.221  14.295  0.1125 -0.0511  0.3296
20874W        W36768   0.188  15.819   4.246 -0.3364  0.0330 -0.3216
20875W        W36769  16.889  14.902   1.020  0.0730 -0.0707  0.0701
20876W        W36770   0.524  16.071  11.904  0.2486 -0.1743  0.3641
20877W        W36771  12.674   6.696  12.091  0.0597  0.1760 -0.2418
20878W        W36772  14.496  11.315  11.266  0.0519  0.3683 -0.0342
20879W        W36773   0.418   9.595   3.330  0.1291  0.4670 -0.1635
20880W        W36774  10.312  14.097   4.143  0.3267  0.0482 -0.0731
20881W        W36775   8.519  13.601   0.544 -0.1896 -0.2540  0.2873
20882W        W36776  11.896   6.691  14.033  0.0938 -0.0049 -0.0467
20883W        W36777   1.619   0.154  10.682 -0.1242  0.2016  0.1290
20884W        W36778   3.011  10.871  10.297  0.1805  0.0481  0.0177
20885W        W36779   6.548   9.345  12.250  0.2215 -0.2255  0.0191
20886W        W36780  11.646  18.947  12.021  0.1725 -0.1539  0.0207
20887W        W36781   9.879  13.739   4.333  0.0700  0.0294  0.0220
20888W        W36782   9.043   9.112   3.697 -0.2340 -0.0307 -0.1240
20889W        W36783  18.013  14.282  12.100 -0.2697 -0.0948  0.1338
20890W        W36784   2.987   3.893  14.732 -0.0397  0.0718 -0.1237
20891W        W36785  14.707  16.318  13.624 -0.0654 -0.2228  0.0227
20892W        W36786   6.278  13.810  12.050  0.1692 -0.0176  0.0220
20893W        W36787   9.667   7.759  10.113  0.3769 -0.0454 -0.2655
20894W        W36788   7.341   4.932  10.348  0.0945  0.0521 -0.3567
20895W        W36789   1.232  15.741  12.516 -0.2776  0.3500 -0.1140
20896W        W36790   5.736   2.088   4.182  0.0600  0.2847  0.2404
20897W        W36791  10.034  15.978  13.309  0.0338 -0.1163 -0.1486
20898W        W36792   4.600   7.654   3.456 -0.2252 -0.0913 -0.3558
20899W        W36793  16.638   7.576   2.435  0.0889  0.2534  0.0274
20900W        W36794   1.443   3.677  14.492 -0.2533  0.2719  0.0830
20901W        W36795  11.346   8.904   4.147 -0.1627  0.1417 -0.1173
20902W        W36796  17.556   6.599   1.495 -0.2644 -0.2385 -0.0352
20903W        W36797   2.487  17.297  11.837  0.1566 -0.0042 -0.0157
20904W        W36798  18.655  11.726  11.395  0.0652 -0.2215 -0.1991
20905W        W36799   5.793  17.992   2.091  0.1447 -0.0970 -0.0489
20906W        W36800  15.738   3.048  10.429  0.0455  0.1303 -0.1469
20907W        W36801   2.527  15.346   4.384  0.1042  0.0422 -0.0930
20908W        W36802  16.452  14.352  12.484 -0.0476 -0.2874  0.3581
20909W        W36803   3.610  19.057   5.641 -0.1376  0.3938  0.1082
20910W        W36804   2.081  10.617  10.997 -0.2418 -0.1841  0.0563
20911W        W36805  10.718   6.546   0.326 -0.1314 -0.3704 -0.5821
20912W        W36806  12.892   4.778   5.637  0.3181  0.1537 -0.0508
20913W        W36807   6.475   1.048   2.730  0.5260  0.2886  0.1169
20914W        W36808   3.861  10.199  11.850  0.3892  0.0108  0.3331
20915W        W36809  16.808   5.136   5.314  0.1093 -0.1166 -0.0703
20916W        W36810  10.113  14.360   0.541  0.0150  0.0876  0.3193
20917W        W36811  19.022   4.804  14.457  0.2190 -0.1569  0.1278
20918W        W36812   8.877   1.786   0.177  0.1185  0.0385  0.1298
20919W        W36813   7.722  17.284  11.131  0.0182  0.1772  0.0254
20920W        W36814   1.529  11.685  14.614 -0.2490  0.2992  0.2502
20921W        W36815  18.336  12.185  10.885  0.1412 -0.1108  0.1225
20922W        W36816  11.439  12.460  14.445  0.2165  0.4428  0.0145
20923W        W36817   9.337  18.105  12.323  0.1142  0.1051  0.4291
20924W        W36818  11.356   5.914  11.046  0.0046  0.0848 -0.0673
20925W        W36819   8.945   1.644  14.104  0.2212  0.1231  0.1783
20926W        W36820   3.305   8.220  13.982  0.2676 -0.2347 -0.1577
20927W        W36821  17.084  16.475  11.355 -0.0096  0.0247 -0.0569
20928W        W36822  11.512  18.647   1.047 -0.1683 -0.0971 -0.0276
20929W        W36823  10.798   5.152   1.123 -0.0942  0.1300  0.3612
20930W        W36824   9.112  10.462   5.352 -0.0952  0.1268  0.1022
20931W        W36825   7.816  19.082   0.343 -0.1094  0.0009 -0.1132
20932W        W36826  13.157   4.370  14.813 -0.1249  0.1423  0.0223
20933W        W36827  14.726   6.092  12.408  0.1092  0.2657  0.3690
20934W        W36828   8.773  16.193  13.066 -0.0413  0.3582  0.2114
20935W        W36829   7.086  10.434  14.130  0.3129  0.0921  0.0046
20936W        W36830  18.197  18.804  11.630 -0.0891  0.1570 -0.2672
20937W        W36831   3.324   9.553  14.260  0.1394 -0.3177  0.4155
20938W        W36832  15.698  17.075   2.097  0.3136  0.1565 -0.0059
20939W        W36833  11.017   6.128   3.049 -0.4446  0.0473  0.2945
20940W        W36834   2.987   5.992   3.185  0.1190  0.1379 -0.1690
20941W        W36835  11.701  17.854  10.682 -0.0461  0.1161  0.0733
20942W        W36836   1.351   3.359   2.761  0.0237 -0.1103  0.0807
20943W        W36837  12.350   3.518   2.080 -0.1084  0.0083 -0.1700
20944W        W36838  10.153  12.570   0.933  0.0255  0.0901  0.1824
20945W        W36839   6.897  14.879  10.325  0.0675  0.0948 -0.2879
20946W        W36840   2.087   2.207  13.813 -0.1499  0.0161  0.2857
20947W        W36841  14.881   7.344  13.762  0.3095  0.0713 -0.0518
20948W        W36842  14.937  10.602   0.044 -0.1247 -0.1775  0.0581
20949W        W36843   5.144  12.246   9.795  0.1564 -0.3281 -0.0252
20950W        W36844  19.042  16.117  13.102 -0.0138 -0.0243 -0.0321
20951W        W36845   1.495   5.861   4.598  0.1512  0.1382  0.2544
20952W        W36846  16.240   4.793   4.893 -0.0058  0.3597  0.0722
20953W        W36847   8.359   0.928  13.933  0.1300 -0.3599  0.1406
20954W        W36848   9.182  17.173  12.668  0.1172 -0.0862  0.4180
20955W        W36849  19.104  11.753   2.260  0.1087 -0.0386 -0.0034
20956W        W36850   5.458   0.644   4.870  0.1363  0.2028  0.1976
20957W        W36851   9.009  14.825   4.580 -0.1291 -0.1426  0.1109
20958W        W36852  14.280  13.758   2.757 -0.1776 -0.0059  0.1259
20959W        W36853  11.233   6.565   3.260 -0.0034 -0.0168 -0.0197
20960W        W36854  10.676   4.764   4.841 -0.0764  0.1823 -0.1956
20961W        W36855   3.354  17.995   3.187 -0.0526 -0.0186  0.1505
20962W        W36856  12.399  12.128  11.234  0.1155  0.1032  0.0578
20963W        W36857  13.050  17.969  12.201 -0.5346  0.3564  0.2301
20964W        W36858  16.959   7.722   2.116 -0.0875 -0.2486 -0.1772
20965W        W36859  13.476  18.340   0.647  0.1042 -0.0706 -0.0803
20966W        W36860  10.278  16.482   1.974  0.0218  0.0490 -0.3113
20967W        W36861   4.798  18.289   2.137 -0.1169  0.1781  0.0377
20968W        W36862   6.977   0.500   1.172 -0.1251  0.2539 -0.0357
20969W        W36863  11.728   7.459  11.641 -0.1721 -0.1693 -0.4039
20970W        W36864   2.961   4.023  10.091 -0.2131  0.1027 -0.0160
20971W        W36865  18.209   4.222   5.012 -0.1058 -0.4726 -0.0604
20972W        W36866  10.868   6.612   2.292  0.0151 -0.0630 -0.0643
20973W        W36867   0.694  13.789  14.420  0.1714 -0.0193 -0.0810
20974W        W36868   7.892  17.777  14.883  0.0478  0.1349  0.1121
20975W        W36869   2.510   9.243   5.593 -0.0613 -0.4349  0.4592
20976W        W36870   7.483  17.257  10.713  0.1410 -0.0354  0.2973
20977W        W36871   8.105   1.789  10.965  0.2134 -0.0312 -0.1781
20978W        W36872   9.354   5.770   0.030 -0.0416  0.0275 -0.0339
20979W        W36873   2.125  13.699  11.477  0.0322 -0.0332  0.1779
20980W        W36874   4.828  16.538  13.047  0.0692 -0.2441 -0.3569
20981W        W36875  15.386   3.232   4.286  0.1111 -0.1729 -0.0616
20982W        W36876   7.143  10.778   0.009 -0.2221  0.1289  0.2365
20983W        W36877   7.540   8.542  10.940 -0.1758 -0.2079 -0.2485
20984W        W36878  12.471   5.603   2.121 -0.0183  0.0260 -0.0244
20985W        W36879   6.998   3.942   1.336  0.0030 -0.0202  0.0276
20986W        W36880  10.837  10.714  12.186 -0.1473  0.3291  0.1745
20987W        W36881  17.895  14.578   4.896  0.0987 -0.0379  0.0307
20988W        W36882   4.835  12.745  10.454 -0.1291  0.0518 -0.1130
20989W        W36883  18.193   5.573  13.842 -0.1087 -0.0364 -0.3735
20990W        W36884  11.640  17.749   1.682 -0.0125  0.1383 -0.1128
20991W        W36885  14.817  18.004  13.506  0.1857 -0.1066  0.1605
20992W        W36886   5.633   9.208  11.113 -0.0181  0.0521 -0.0071
20993W        W36887   1.512  13.707   9.535 -0.4452  0.3248  0.2434
20994W        W36888   6.592   9.055   0.656 -0.0632  0.0416  0.1402
20995W        W36889  11.075   7.153   9.905  0.0269  0.0178 -0.0854
20996W        W36890  16.202  14.193   3.497 -0.4408 -0.0318  0.2681
20997W        W36891  16.233   6.738  11.403 -0.1324  0.3600  0.1206
20998W        W36892   3.680   3.179  13.729  0.3779  0.1560 -0.1737
20999W        W36893  17.212   8.600   3.989 -0.0300  0.3984 -0.2591
21000W        W36894   0.305  18.954   3.641 -0.1467  0.1625  0.5424
21001W        W36895   5.496  17.045  11.293 -0.4715  0.4214 -0.2516
21002W        W36896  13.535   3.794  10.056  0.0143 -0.0616  0.1741
21003W        W36897   3.761   5.047  14.179 -0.2288  0.1703  0.2607
21004W        W36898   5.525  15.434   3.400  0.3354  0.0965  0.3656
21005W        W36899   7.532  15.435   1.139 -0.0397  0.0631  0.3997
21006W        W36900   3.041   8.086  11.283 -0.0462  0.0058  0.3382
21007W        W36901  17.358  11.154  13.334 -0.1773 -0.1046  0.1313
21008W        W36902  13.469   5.115   2.559 -0.1763  0.1855 -0.4856
21009W        W36903   4.407  19.055   3.911 -0.2053 -0.1674  0.2300
21010W        W36904   3.487  17.169  12.727 -0.1928  0.2105 -0.1582
21011W        W36905  11.428   1.963  11.399 -0.0166  0.3869  0.2801
21012W        W36906  14.388   2.244  11.437 -0.3630 -0.0054  0.1737
21013W        W36907  10.803   7.190  11.301  0.0237  0.2662  0.0439
21014W        W36908   1.558  10.486   3.620 -0.0307 -0.0565 -0.2955
21015W        W36909  15.824   0.076   3.512 -0.1184  0.1191 -0.0011
21016W        W36910  18.396  18.972   1.786  0.1441  0.0137 -0.0456
21017W        W36911  18.701   6.772   4.791 -0.2458 -0.1749  0.1115
21018W        W36912   4.796  16.149  10.101  0.0929  0.2109 -0.4734
21019W        W36913  16.586   2.654  13.375 -0.0037  0.0586  0.1147
21020W        W36914   9.124  15.365   0.555  0.0148 -0.0093 -0.3462
21021W        W36915  18.053   1.817   5.926 -0.0981  0.1618 -0.0410
21022W        W36916   6.913   0.664   2.026  0.1139  0.1665  0.2047
21023W        W36917   7.899  15.518  14.252  0.2161  0.1303 -0.4408
21024W        W36918   4.053   8.754  14.556 -0.0382 -0.0658 -0.1168
21025W        W36919  13.821   3.300   4.986  0.2403  0.2378 -0.0412
21026W        W36920   2.681  11.552   5.753  0.0062 -0.1446 -0.1317
21027W        W36921  18.364  10.308  14.092  0.1967 -0.1574  0.0192
21028W        W36922  17.528   9.588  13.236  0.2075  0.0985 -0.1183
21029W        W36923  12.832  12.654   3.081  0.2986 -0.2080 -0.0598
21030W        W36924   8.877   4.887  12.619 -0.2968 -0.0026  0.2861
21031W        W36925   3.701   6.531   3.464 -0.0937  0.3535 -0.1051
21032W        W36926   9.467   8.361  14.995  0.1516  0.2816 -0.0083
21033W        W36927  11.530  17.249   4.161  0.0392  0.0077  0.2355
21034W        W36928   9.354  17.542  10.636 -0.0282  0.0175 -0.0721
21035W        W36929  17.728  18.338  11.860  0.0152 -0.1307  0.4967
21036W        W36930   2.131   1.306   0.677  0.0101  0.0984 -0.0804
21037W        W36931   2.020   7.670  14.696 -0.1598 -0.2752 -0.3906
21038W        W36932  14.361   8.580   2.776  0.1722 -0.1459  0.1167
21039W        W36933   0.740   7.569   5.435 -0.0801 -0.3215 -0.1003
21040W        W36934   3.858   2.368  13.551  0.2814 -0.1093  0.1076
21041W        W36935  17.697   1.126  12.349 -0.2533 -0.3504 -0.1950
21042W        W36936   5.436   1.382  14.302 -0.0654  0.2621 -0.2724
21043W        W36937  18.839   1.737  12.500  0.2468 -0.0646  0.1108
21044W        W36938  16.083  14.871  13.760  0.0813 -0.2100  0.0327
21045W        W36939  15.342   2.066  11.365  0.0175 -0.1585  0.1825
21046W        W36940   7.886  12.977  12.875  0.2275  0.1561  0.0201
21047W        W36941  13.936   2.984   0.162 -0.0939  0.1310  0.5502
21048W        W36942  10.920  10.769  14.884 -0.1821 -0.2432 -0.0753
21049W        W36943   5.004  18.109  13.741  0.0792 -0.3262  0.2032
21050W        W36944  18.018   6.495  14.951  0.1020  0.0287 -0.0632
21051W        W36945  14.694  17.682  12.657  0.0058 -0.1030  0.3171
21052W        W36946   9.696  13.967  14.708 -0.2936 -0.1924  0.2057
21053W        W36947   8.777   5.632   6.018 -0.2863 -0.1674  0.0673
21054W        W36948  11.103  17.905  13.904  0.0037  0.1140 -0.2903
21055W        W36949  15.385   8.764   4.963 -0.3079  0.5551 -0.3154
21056W        W36950  14.775  10.929   5.131 -0.0662 -0.2726  0.2223
21057W        W36951  11.720   9.604  14.609  0.2219 -0.0029 -0.2146
21058W        W36952   3.867  11.192   0.547  0.2660 -0.0733  0.0472
21059W        W36953  10.259   0.284   3.796 -0.2154  0.3360 -0.0700
21060W        W36954  18.980   9.561  14.231 -0.3116 -0.0628  0.0127
21061W        W36955   4.636   2.985   5.335 -0.5060  0.0712  0.0766
21062W        W36956  17.849   5.978   5.321  0.2847 -0.1029  0.0151
21063W        W36957   7.805   2.355  14.248 -0.0682  0.1321  0.2925
21064W        W36958   8.225   9.055  14.135 -0.0341 -0.2068 -0.0629
21065W        W36959   5.693  15.779  14.865  0.2613 -0.2538  0.0516
21066W        W36960   0.817   1.037  12.138 -0.1936  0.1921  0.1074
21067W        W36961   7.290   5.020  13.592 -0.1188  0.0816  0.3082
21068W        W36962  15.091  14.615  12.141  0.0750 -0.3083 -0.1029
21069W        W36963   2.986   1.251   4.924 -0.0439  0.2252  0.0532
21070W        W36964  17.925   1.889   3.385  0.1892 -0.1534 -0.0926
21071W        W36965  14.335  17.591  13.632  0.1612  0.0145  0.0363
21072W        W36966  10.498  11.263  12.855  0.1531 -0.0749  0.2620
21073W        W36967   9.645  16.619  12.874 -0.0891  0.1494  0.1108
21074W        W36968  12.726  15.187   4.322 -0.2193 -0.0843 -0.1463
21075W        W36969  11.471  17.921  11.104  0.0517 -0.1679  0.0125
21076W        W36970   5.693   7.175   4.481 -0.0583 -0.0665  0.1044
21077W        W36971  14.572  18.453   0.914 -0.2855  0.0320  0.1586
21078W        W36972  12.014  18.120   1.851 -0.0017 -0.4137 -0.2217
21079W        W36973  17.923   2.352   4.091  0.0771  0.3295  0.0760
21080W        W36974  17.450   9.087   1.793  0.1609 -0.0239  0.3186
21081W        W36975  14.725   4.668  11.691  0.0981 -0.1490 -0.2288
21082W        W36976   8.034   2.577   3.524 -0.2789  0.0102  0.2756
21083W        W36977   2.892  13.054   3.390 -0.1238  0.2928  0.1435
21084W        W36978   9.188  11.157   3.199 -0.0361 -0.2511  0.0229
21085W        W36979   7.943  16.674  10.136 -0.4205  0.2777 -0.1018
21086W        W36980   2.054   4.847   1.943  0.0226 -0.1141  0.1221
21087W        W36981  11.455   8.010   0.702 -0.2151  0.1591 -0.0197
21088W        W36982  11.502  12.665  12.690 -0.1171 -0.1546 -0.0191
21089W        W36983   5.898  12.624   1.267 -0.1542 -0.2834 -0.0053
21090W        W36984   1.218  13.037   1.228 -0.0866 -0.2508 -0.0687
21091W        W36985   6.954  12.810  13.087  0.4576  0.1090  0.0535
21092W        W36986   7.017   6.477   2.794 -0.1211 -0.1289 -0.0023
21093W        W36987   0.857  18.448  13.073  0.0308  0.0472 -0.0605
21094W        W36988   0.283   7.912  10.906 -0.1314 -0.0965  0.0384
21095W        W36989  11.701   4.511   2.645  0.1983 -0.2422  0.4429
21096W        W36990   1.916  18.252   1.571  0.1551  0.2944 -0.0596
21097W        W36991   0.404  13.603  13.061 -0.2457 -0.0142  0.1603
21098W        W36992  13.101   3.368  13.427  0.2221  0.2809 -0.1980
21099W        W36993  10.237  14.658   4.210  0.2006  0.0104  0.0307
21100W        W36994   1.671   1.009   9.865 -0.2642  0.1004 -0.2366
21101W        W36995   6.030  11.110   0.654 -0.0471 -0.1151 -0.1945
21102W        W36996   9.503   9.726  12.118  0.3523  0.0147  0.2433
21103W        W36997   4.772  16.481   3.582  0.2835  0.1465  0.0571
21104W        W36998  12.583  18.582  14.636 -0.0637 -0.1344  0.1257
21105W        W36999   9.379  16.067   4.894  0.0785  0.1106 -0.0139
21106W        W37000  15.333  19.090  10.426  0.1110 -0.0906  0.1338
21107W        W37001  10.951  16.589   1.158 -0.0004 -0.3548  0.0588
21108W        W37002  12.250  12.081  12.017  0.0120 -0.1100  0.0608
21109W        W37003  15.737  11.519   0.376  0.0137 -0.1434  0.2231
21110W        W37004   5.499   2.660  10.162 -0.0353 -0.2195  0.3078
21111W        W37005   9.047  15.515  12.708  0.2724 -0.1509  0.3366
21112W        W37006  14.833   4.136  10.794  0.4517  0.0293  0.1288
21113W        W37007   2.926   8.864   0.326 -0.1024  0.1414  0.2294
21114W        W37008  13.369  17.646   9.992 -0.4183 -0.2367  0.2098
21115W        W37009   1.543   2.762  13.400 -0.0429  0.0956 -0.1217
21116W        W37010  12.691   8.225   4.992  0.0825  0.4415  0.1517
21117W        W37011   0.721  14.788   2.514  0.1792  0.0205 -0.0381
21118W        W37012   9.427  11.226  11.420  0.1348  0.1040 -0.0401
21119W        W37013   6.892  11.581   0.388  0.2502  0.3234 -0.0815
21120W        W37014  13.699  12.152   9.947 -0.2417 -0.1403 -0.2022
21121W        W37015  10.373   1.615   3.204  0.1971 -0.0835  0.3453
21122W        W37016   2.836  13.261  10.477  0.3273  0.0671 -0.1537
21123W        W37017   9.091   8.431  12.908  0.1452 -0.1627  0.1245
21124W        W37018   0.384  10.495   0.820  0.0527 -0.1981  0.1737
21125W        W37019  16.852   2.926  14.744 -0.0626 -0.1487  0.0293
21126W        W37020   0.433  11.749   4.691 -0.0467 -0.0818  0.0005
21127W        W37021   2.707   8.874  13.982 -0.3236  0.1313 -0.3972
21128W        W37022   7.192  15.024   4.418 -0.3444 -0.0288 -0.3304
21129W        W37023  10.190  11.323   3.305  0.1110  0.2810 -0.0071
21130W        W37024   1.542   2.317   0.419 -0.2613 -0.0714 -0.2582
21131W        W37025  12.113   7.746  15.082  0.0641 -0.1252  0.1974
21132W        W37026  18.750   2.591   4.323  0.2682 -0.3079  0.2614
21133W        W37027  19.011   6.699   4.407 -0.1190 -0.2507 -0.2664
21134W        W37028  10.317  16.763  11.289  0.0885  0.1109 -0.2047
21135W        W37029  16.762   0.698   0.399  0.0096  0.2208  0.0342
21136W        W37030  10.985  13.085   2.899 -0.0650  0.2481  0.2069
21137W        W37031  18.317  12.243  11.430 -0.2404  0.0083  0.1289
21138W        W37032  17.464   5.122   4.199 -0.0460  0.1761  0.0456
21139W        W37033   9.315  11.596   3.993 -0.1320 -0.0363  0.0397
21140W        W37034  10.719   7.111   0.565 -0.3439 -0.2116 -0.2430
21141W        W37035  12.460   1.519  10.542  0.0056  0.2578 -0.2243
21142W        W37036  11.791   4.087  11.984 -0.0108 -0.3871  0.0109
21143W        W37037  17.693  13.477  14.054  0.0504  0.1925  0.1084
21144W        W37038  13.196  15.946  12.931  0.1079 -0.1714 -0.1561
21145W        W37039   1.939   8.402   2.268  0.1673 -0.1775 -0.2543
21146W        W37040   8.180   7.401   4.678 -0.0013  0.0577  0.0110
21147W        W37041   9.279   1.682   2.720 -0.5770 -0.2546 -0.0736
21148W        W37042   5.234   0.174  14.489  0.0853  0.1105  0.1357
21149W        W37043   3.218   9.325   1.615 -0.2624  0.1472  0.1559
21150W        W37044   0.320   3.167   0.185  0.2085  0.1989 -0.3522
21151W        W37045  13.660   9.312   5.210 -0.3042 -0.3796 -0.3915
21152W        W37046  15.676  13.867  14.523 -0.0410  0.0918  0.2735
21153W        W37047   4.105   7.570   2.791 -0.3223  0.2499  0.0085
21154W        W37048   3.951   2.533  11.403  0.0981  0.0614  0.0220
21155W        W37049   7.918  12.540   0.328 -0.1421 -0.0119  0.1874
21156W        W37050   9.597   3.934  11.286  0.1553  0.1694 -0.1835
21157W        W37051  18.230   7.246  13.489  0.1457 -0.2165 -0.0887
21158W        W37052  18.092   0.952   0.314  0.3062 -0.2707  0.3265
21159W        W37053  14.571  14.662  14.649 -0.1340 -0.0056  0.0406
21160W        W37054  17.234   7.817   0.847 -0.0490  0.0232  0.3745
21161W        W37055   8.560   1.776   1.003 -0.0739 -0.0912  0.0897
21162W        W37056   3.310  14.783  14.703  0.0329  0.3490 -0.3620
21163W        W37057  14.486   7.872  12.518 -0.0046 -0.1056 -0.0562
21164W        W37058  16.226   4.110  12.812 -0.0375 -0.1026  0.1877
21165W        W37059   0.826   7.848   0.803  0.0783 -0.2045  0.3536
21166W        W37060  10.147  11.326   1.908 -0.3573  0.2542 -0.2633
21167W        W37061   3.839  13.006   2.610 -0.0528 -0.2675 -0.2493
21168W        W37062   0.316   2.862   3.549  0.0319  0.0631 -0.0732
21169W        W37063  14.737   3.558   4.877 -0.3291 -0.1128  0.3124
21170W        W37064  10.839   8.948  14.568 -0.3739 -0.0704 -0.4536
21171W        W37065   7.263  12.278   3.548  0.0796  0.2769  0.2566
21172W        W37066   1.362   6.226  11.677  0.0184 -0.0351 -0.2390
21173W        W37067  16.344   0.465   0.182 -0.0920 -0.2401 -0.1505
21174W        W37068   5.440  11.101   2.628 -0.0622 -0.0879 -0.1190
21175W        W37069  11.155  17.219  12.316 -0.0880  0.0261  0.3124
21176W        W37070  11.756  10.312  14.039 -0.1473 -0.1369  0.0136
21177W        W37071  13.808   2.326  14.498  0.0094  0.0277 -0.2943
21178W        W37072  10.712   8.992   0.261 -0.2475  0.3828 -0.1988
21179W        W37073  17.734  10.499  11.398 -0.2208 -0.0157  0.2859
21180W        W37074   9.194   9.604  11.745 -0.1607  0.2192 -0.1716
21181W        W37075  13.031  17.088   0.904 -0.0207  0.1654  0.4455
21182W        W37076  10.812  17.230   2.348  0.1565 -0.5616  0.2511
21183W        W37077  11.270  15.633  10.159 -0.1006 -0.0646  0.0192
21184W        W37078  17.264   4.720  14.380 -0.0001 -0.0096  0.2728
21185W        W37079   9.607  12.085  12.059  0.0792 -0.1533 -0.0780
21186W        W37080  18.720   6.163  12.566 -0.1276 -0.3117  0.2449
21187W        W37081   1.765   7.174  13.212  0.0016  0.0875 -0.3281
21188W        W37082  13.290  17.174  14.460  0.1442 -0.0474  0.0890
21189W        W37083   4.622  15.544   3.819 -0.2562 -0.1531 -0.1360
21190W        W37084   4.770   7.676  14.256  0.1485  0.0924  0.0298
21191W        W37085   3.245  13.435  10.260 -0.0219  0.0892 -0.0606
21192W        W37086   7.744  14.023   4.381 -0.2600  0.1085 -0.1971
21193W        W37087   1.479  12.118  14.782  0.2320 -0.2899 -0.1338
21194W        W37088  18.106  18.094   2.256  0.3033  0.0990  0.0413
21195W        W37089  17.429   3.001   0.211  0.0307  0.0821  0.0676
21196W        W37090   1.019  10.378   3.935 -0.1025 -0.0728 -0.2399
21197W        W37091  12.436  16.289   9.740  0.0285 -0.1634  0.0526
21198W        W37092  16.247  15.965   1.077 -0.2026  0.2588 -0.1260
21199W        W37093  17.843  17.866   0.223  0.1827 -0.1287  0.3546
21200W        W37094   4.296  16.695  13.054 -0.1528 -0.0598 -0.0663
21201W        W37095  10.756   2.541   3.512 -0.1797  0.0944  0.2294
21202W        W37096  13.010   9.018   0.654 -0.0065  0.1410  0.0154
21203W        W37097   6.634  14.107  12.669 -0.1944  0.2315 -0.0637
21204W        W37098  15.822   1.373  13.464 -0.0357  0.2111 -0.2096
21205W        W37099  18.406  16.100  11.615 -0.1242  0.0819  0.0324
21206W        W37100  16.155  17.433   1.930  0.0500  0.0888 -0.0278
21207W        W37101   9.056   4.803   3.625  0.0245 -0.0029 -0.0531
21208W        W37102  17.761  11.051   0.489 -0.1803 -0.0448 -0.0315
21209W        W37103  15.909   1.670   4.489  0.0958 -0.0123 -0.0486
21210W        W37104  19.096   0.157   2.819 -0.3653  0.2714  0.0848
21211W        W37105   9.679  11.265   3.225 -0.0385  0.3959 -0.0575
21212W        W37106   8.458  12.308  14.615 -0.2372  0.2182  0.2157
21213W        W37107  14.021  14.247  13.467 -0.2253  0.0350 -0.0254
21214W        W37108  18.162   8.773   5.413  0.2225 -0.1476 -0.2437
21215W        W37109   5.927  14.183  12.312  0.1966  0.1710  0.1706
21216W        W37110   5.902   5.788   1.591  0.5962  0.0606 -0.1550
21217W        W37111  14.938  11.331  13.443 -0.3355 -0.2306 -0.3900
21218W        W37112   9.454   7.957   4.135 -0.1825 -0.1491 -0.1056
21219W        W37113   7.082   9.009  12.866 -0.0800 -0.1304  0.0045
21220W        W37114  10.417   5.168  10.439  0.1116  0.2068  0.1292
21221W        W37115   0.970  17.580   4.492 -0.2468  0.3413 -0.2198
21222W        W37116   8.767   5.162  14.772  0.1696  0.0581  0.1522
21223W        W37117   2.534   2.996   1.275 -0.0799  0.2089  0.1506
21224W        W37118   9.451   7.159   2.811  0.1724 -0.2039 -0.2868
21225W        W37119  13.120   8.866  13.615 -0.2537  0.2832  0.0377
21226W        W37120   5.059   0.594  11.330 -0.0132 -0.2226  0.3533
21227W        W37121  10.393  19.044   4.812 -0.0908 -0.2022  0.2792
21228W        W37122   1.615   6.841  10.821 -0.0682 -0.0084 -0.0762
21229W        W37123   4.543  16.052  13.878 -0.2017 -0.2184  0.0301
21230W        W37124  12.929  18.426  10.106 -0.1092  0.1635 -0.1046
21231W        W37125  16.473   5.972   4.825  0.2560 -0.1098 -0.0614
21232W        W37126   6.529   9.351  14.725 -0.2013 -0.0008  0.0718
21233W        W37127  13.294   2.633   1.003  0.2904 -0.3488 -0.0358
21234W        W37128  13.656   2.536   2.456 -0.4435 -0.0602 -0.0148
21235W        W37129   1.100  17.533  12.573  0.2693  0.1780  0.2546
21236W        W37130  11.090   8.972   0.832 -0.0198  0.2322  0.0820
21237W        W37131   0.713  18.178  10.433  0.0538  0.0072  0.0062
21238W        W37132  15.273  18.802  12.751  0.0947 -0.0584 -0.0493
21239W        W37133  16.627  15.825   0.755 -0.0574 -0.1914  0.1964
21240W        W37134  16.689  16.809  11.561 -0.0365 -0.4188 -0.0426
21241W        W37135  16.575  13.250   5.223 -0.1960 -0.1906  0.1642
21242W        W37136   0.571  10.607  10.586  0.0191 -0.0107 -0.1285
21243W        W37137  12.202   8.593  12.546 -0.0711 -0.1013 -0.3034
21244W        W37138  18.732  16.441   1.169 -0.3858  0.1232  0.3276
21245W        W37139   5.066  11.772  10.745 -0.3079  0.2003 -0.2201
21246W        W37140  12.361   4.846   4.308  0.0724  0.3235 -0.0338
21247W        W37141   6.310   1.979  15.061 -0.1190 -0.2665  0.2586
21248W        W37142  11.191  12.931   1.840 -0.0694  0.3585  0.1204
21249W        W37143   6.192  12.027  13.722 -0.1239 -0.2784  0.1162
21250W        W37144  16.830  15.098   2.817 -0.1573 -0.2288 -0.0907
21251W        W37145   6.214   4.983   4.613  0.0121 -0.1033 -0.1069
21252W        W37146   4.368  11.803  11.173 -0.2669 -0.0525 -0.0611
21253W        W37147   0.082   2.741  11.006 -0.0045 -0.0655 -0.4729
21254W        W37148   5.805   0.378  13.467  0.0652  0.1243 -0.0828
21255W        W37149   7.708  17.015   2.490  0.0711  0.1208 -0.1377
21256W        W37150   8.318   3.027   2.837  0.1261  0.6114  0.0850
21257W        W37151   2.644  11.147  10.511 -0.3185 -0.0630 -0.4178
21258W        W37152   5.740  12.217  12.282 -0.0469 -0.1909  0.0106
21259W        W37153   8.028   9.975  11.674 -0.1680 -0.0761  0.1021
21260W        W37154   0.323   3.711   3.441  0.2370  0.1346 -0.0191
21261W        W37155   4.240   5.820  14.716 -0.1859  0.0811 -0.0643
21262W        W37156  18.933  11.692  13.776  0.0466 -0.0594 -0.1851
21263W        W37157   8.728   9.045   0.774  0.0117  0.0587  0.0238
21264W        W37158   6.845   4.219   0.943 -0.1820 -0.1877  0.1000
21265W        W37159  10.751  18.750  10.576 -0.1276 -0.2483  0.1428
21266W        W37160  12.890   6.248  14.124  0.2272 -0.0967 -0.1700
21267W        W37161   4.342   3.233   1.407 -0.1085  0.2383 -0.0657
21268W        W37162  15.857   8.454  10.892 -0.1220 -0.0106 -0.0229
21269W        W37163   7.320   0.857   3.092  0.1864 -0.1065  0.1232
21270W        W37164  14.746  18.111  12.961 -0.0520  0.1437  0.3013
21271W        W37165  16.293   0.502  14.786 -0.1602 -0.0405 -0.0885
21272W        W37166   8.132   3.582  12.658 -0.0005 -0.1376  0.3266
21273W        W37167  18.463   0.204  14.212  0.0096 -0.5487  0.3160
21274W        W37168  19.108   7.526   0.765 -0.0406  0.2382 -0.2509
21275W        W37169   1.097  17.826   3.656  0.0463 -0.2246  0.2669
21276W        W37170   8.513   4.928   1.020 -0.1429  0.0028 -0.1859
21277W        W37171  18.219  14.833  10.940  0.1591  0.3460  0.1794
21278W        W37172  11.815   3.251  10.797 -0.2953 -0.1205 -0.2143
21279W        W37173  16.038   8.454  11.436  0.0103  0.1487  0.1124
21280W        W37174  11.494  18.567   3.258  0.2593  0.1141  0.1687
21281W        W37175   4.943  18.831   2.634 -0.4235 -0.2939 -0.0083
21282W        W37176  17.120  11.523   0.226  0.0482  0.0238  0.2718
21283W        W37177   8.233   9.896   1.023 -0.3691 -0.2544 -0.2282
21284W        W37178  11.751   2.495  14.919 -0.1910  0.3817  0.2197
21285W        W37179  18.751  16.474   2.244 -0.1220 -0.1714 -0.1051
21286W        W37180   5.675   3.546  10.827  0.1474 -0.0775  0.0353
21287W        W37181   5.917   3.720   0.694 -0.1096 -0.0062  0.3033
21288W        W37182   9.738   2.191   0.809 -0.2078  0.0352 -0.2530
21289W        W37183   2.872  15.140   1.075 -0.1809  0.0025 -0.2318
21290W        W37184  15.621   3.561  10.427 -0.1066 -0.0791 -0.1897
21291W        W37185  11.136   7.468   1.956  0.3721  0.0242 -0.0808
21292W        W37186   8.996  11.479  12.771  0.0856 -0.1117  0.2204
21293W        W37187  12.620   2.166   1.511 -0.0062 -0.2976 -0.0007
21294W        W37188   7.973  12.017   0.362  0.1359 -0.2534  0.0924
21295W        W37189   1.102  16.271   9.503  0.0802  0.0757 -0.3080
21296W        W37190   1.040  16.946   3.392 -0.4653  0.0331  0.1570
21297W        W37191   6.125   7.473   0.660  0.1013  0.0791  0.0273
21298W        W37192  10.507   5.497   0.334  0.4410 -0.0435  0.3606
21299W        W37193   3.892  17.760   1.321  0.2141  0.2753 -0.1721
21300W        W37194   6.235   2.427   5.188 -0.1863  0.1617  0.1015
21301W        W37195  13.767   4.656  11.107  0.0739 -0.0182  0.1942
21302W        W37196   5.381  17.739   1.170  0.0814  0.3046 -0.2807
21303W        W37197  18.580   9.964  11.101 -0.0949 -0.0601  0.0714
21304W        W37198  12.157   9.208  13.757  0.0680 -0.1495  0.1518
21305W        W37199  15.658  10.380  14.080  0.0963  0.1039  0.2183
21306W        W37200   2.956   3.126   1.050 -0.1443  0.2723  0.0703
21307W        W37201  18.323   0.214  14.986 -0.1780 -0.2076 -0.0921
21308W        W37202   3.270  18.228   0.842  0.0027 -0.5385  0.0376
21309W        W37203   6.336   2.816  13.550 -0.0656  0.0492  0.2332
21310W        W37204  18.567   9.113   4.548 -0.1010  0.0079 -0.0321
21311W        W37205  11.406   2.705   2.307 -0.1710 -0.3418  0.1314
21312W        W37206   7.249  14.233  13.931 -0.1136  0.2865  0.0203
21313W        W37207   1.329   8.223  14.766  0.2465  0.6441  0.2916
21314W        W37208   3.881   8.315   3.353 -0.0271 -0.2323 -0.2894
21315W        W37209   3.339  10.413   3.040  0.1944  0.1336 -0.1374
21316W        W37210  12.542  13.467  14.547  0.1349  0.3082 -0.0905
21317W        W37211  15.907   0.857  11.292  0.2921 -0.1317 -0.0935
21318W        W37212   4.755  14.104  12.748  0.3419  0.1798  0.5284
21319W        W37213  15.302  17.500   0.297 -0.2286 -0.0784 -0.0250
21320W        W37214  13.818   9.433   2.498  0.1583  0.1861 -0.1487
21321W        W37215  11.658  18.969  12.793 -0.1906  0.2251  0.2472
21322W        W37216   0.451   6.681  14.187 -0.0908  0.1782 -0.1220
21323W        W37217  17.630   3.689  14.238 -0.0246  0.0460  0.2771
21324W        W37218   5.773  14.933  14.120 -0.3516 -0.0370 -0.5515
21325W        W37219  11.567  14.935  13.211  0.1642  0.1496  0.0622
21326W        W37220   6.767   2.431   6.045 -0.1262 -0.0965  0.1223
21327W        W37221  15.088  17.142   2.754  0.0476  0.0990  0.0151
21328W        W37222  14.026   4.653   1.925  0.1260 -0.0858 -0.2346
21329W        W37223   9.725  12.915  10.386  0.1403  0.2060  0.2057
21330W        W37224   7.558  12.342  12.021  0.0270  0.0419  0.1839
21331W        W37225   9.514  14.095   1.388  0.2165 -0.1312 -0.2591
21332W        W37226  17.402  15.494  12.270 -0.2555  0.1484  0.0533
21333W        W37227   8.604  12.316  12.971 -0.1187 -0.2386  0.2323
21334W        W37228   9.983   2.490   0.493  0.0201 -0.1654  0.0897
21335W        W37229   3.124  19.202  13.918  0.2571  0.0442 -0.1599
21336W        W37230   8.107  12.312  15.018 -0.0576 -0.3297  0.3270
21337W        W37231   7.991   1.707   4.330 -0.2187  0.0221  0.2291
21338W        W37232  12.676  17.600  10.438  0.0148 -0.2649 -0.1638
21339W        W37233  17.410   7.231  12.233 -0.3181  0.3568 -0.1287
21340W        W37234   7.514  12.905  13.432 -0.0108 -0.2250  0.2818
21341W        W37235   3.625   8.449  11.587 -0.1912 -0.1148  0.0586
21342W        W37236   1.968   3.997  11.609 -0.4201  0.0144 -0.2303
21343W        W37237  13.879  14.106  11.268  0.1027 -0.1664  0.3394
21344W        W37238   6.334  13.502   5.489  0.0579  0.0275  0.0113
21345W        W37239   8.165  11.703  12.247 -0.1634 -0.0496 -0.0058
21346W        W37240   5.605  15.076   1.391 -0.1188 -0.0875 -0.0759
21347W        W37241   9.247  19.151   3.424 -0.2869  0.0412 -0.0833
21348W        W37242  12.827   7.338   1.225  0.1120  0.1785 -0.4081
21349W        W37243  12.489  14.594  11.627 -0.1145 -0.0623  0.1092
21350W        W37244   6.002   5.389  11.432  0.2812 -0.2201  0.2281
21351W        W37245   5.239   8.035  14.204 -0.1311  0.2672  0.1617
21352W        W37246  14.167  19.050  13.810  0.0394 -0.1787 -0.0974
21353W        W37247   7.126   3.889   3.893  0.3635  0.0184  0.1542
21354W        W37248   1.258   9.107   4.262 -0.0075  0.0612 -0.1758
21355W        W37249   9.217   2.235   0.113 -0.3960  0.0353 -0.3213
21356W        W37250   4.566   5.170   2.650  0.3569 -0.1715  0.0508
21357W        W37251  12.536   2.253  12.501  0.1775  0.1598 -0.0310
21358W        W37252  12.179  14.619   0.989  0.2360 -0.1396 -0.0267
21359W        W37253   5.104  11.595   1.282 -0.2095 -0.2299 -0.0158
21360W        W37254   7.981   3.282  12.210  0.3988 -0.1881 -0.0919
21361W        W37255  15.932   5.222  14.366 -0.2664 -0.0844  0.3483
21362W        W37256   2.566   3.899  14.436  0.3200 -0.2448  0.1977
21363W        W37257  13.844  18.628   3.802 -0.2692 -0.2075 -0.0865
21364W        W37258  10.800  12.724   5.025  0.0275  0.2271 -0.0148
21365W        W37259   0.953  17.739  13.506  0.0425  0.1550 -0.0857
21366W        W37260   1.651  11.936  10.387  0.2341 -0.3725  0.3535
21367W        W37261  18.925   2.243  11.143  0.1367  0.1608  0.0354
21368W        W37262   2.038  17.425   0.113 -0.1038 -0.0940 -0.0805
21369W        W37263  18.559   9.907   2.288  0.1506  0.0596  0.0165
21370W        W37264  13.661   9.936   3.261 -0.2932  0.2012  0.1166
21371W        W37265   1.460  16.428   1.001  0.0086  0.2526  0.0683
21372W        W37266  15.690  18.326   3.364 -0.1580 -0.0638 -0.0749
21373W        W37267   3.231  12.246   3.044 -0.0039  0.0111  0.2442
21374W        W37268   1.699  15.892   3.532 -0.1486  0.0837  0.2257
21375W        W37269   6.566   3.277   4.345 -0.1816 -0.0976  0.2878
21376W        W37270   5.484  16.689   2.812 -0.1020  0.0336 -0.2521
21377W        W37271  10.659  13.680  10.364 -0.3711  0.1237 -0.2545
21378W        W37272  14.520   2.124  13.623 -0.0537  0.0393  0.1505
21379W        W37273  17.885   3.190   2.920 -0.1354  0.2226 -0.0531
21380W        W37274   2.904  11.768   0.802  0.2138 -0.1953 -0.0837
21381W        W37275   6.513  15.620   2.519 -0.2795  0.1828 -0.1997
21382W        W37276   4.297   0.166  10.926  0.4635 -0.3726  0.2493
21383W        W37277  17.500  11.233   1.504  0.0819  0.0181 -0.0138
21384W        W37278  18.015   7.922   5.015  0.2969 -0.3481  0.1506
21385W        W37279   8.252  10.383  10.724  0.4142  0.1174  0.0435
21386W        W37280   1.216   2.732   9.974 -0.0310  0.0869  0.0577
21387W        W37281  14.522  18.969  11.282  0.2042  0.2301 -0.1528
21388W        W37282  13.112   0.100  10.467  0.2933 -0.4469 -0.0485
21389W        W37283  17.885  10.009   1.162  0.1529 -0.1370  0.1220
21390W        W37284   4.551  18.924  10.957 -0.0663 -0.0311 -0.1174
21391W        W37285  18.073  10.632   2.268  0.2464  0.0231  0.0674
21392W        W37286   2.045   9.965   0.791  0.0838 -0.1534 -0.1380
21393W        W37287   1.669  10.133  11.726 -0.2549 -0.1889  0.1754
21394W        W37288   7.935  19.060  11.826  0.1732  0.0507  0.0751
21395W        W37289   2.552   1.187   2.258  0.2513  0.1919  0.0514
21396W        W37290   0.371   3.781  14.497 -0.2341 -0.1455  0.0042
21397W        W37291   7.942   4.487   1.360 -0.0865  0.2139 -0.1577
21398W        W37292   2.110   9.507   1.286  0.1307  0.2780 -0.2903
21399W        W37293  18.265   8.193  10.886  0.3491 -0.2820  0.2807
21400W        W37294   5.156  12.803   5.600 -0.2767 -0.0244 -0.2114
21401W        W37295  19.030   7.136   4.825  0.0755 -0.0578 -0.1624
21402W        W37296  19.111   2.744  12.465  0.1700  0.1112 -0.2884
21403W        W37297  10.416  12.170   3.063  0.0094  0.0508  0.0796
21404W        W37298   0.832  11.068  10.838  0.3541  0.2757 -0.2263
21405W        W37299  17.078   5.774   2.264 -0.1984 -0.1674 -0.2683
21406W        W37300   1.640   8.471  12.633 -0.1955 -0.4091 -0.1415
21407W        W37301  10.423  13.068   5.078 -0.2539  0.1283 -0.0152
21408W        W37302  14.276   7.067   1.900  0.0866  0.0630 -0.2569
21409W        W37303  16.086   6.118   6.150  0.0335 -0.1853  0.2100
21410W        W37304   9.358   2.757   4.993 -0.0414  0.1239  0.0733
21411W        W37305   5.121   7.433  12.576  0.1837  0.0236  0.2779
21412W        W37306  11.657  13.673   1.906  0.2447 -0.0753  0.0349
21413W        W37307  13.090   7.325   2.339 -0.0817  0.2931 -0.1197
21414W        W37308   6.998  17.406   0.996 -0.2330  0.6434 -0.0734
21415W        W37309   9.934  15.766   3.544 -0.0693  0.0419 -0.2208
21416W        W37310  16.328  11.368  10.953  0.1243  0.0734  0.1199
21417W        W37311  16.391  14.159   1.271  0.0624  0.0187 -0.0075
21418W        W37312  10.779  16.320  12.934 -0.1941 -0.4114  0.1449
21419W        W37313   1.691   3.438  14.910  0.1598 -0.2911 -0.2601
21420W        W37314   4.862  16.357  13.550  0.0056  0.1000  0.3109
21421W        W37315  12.670   7.001   3.100  0.1606  0.2965  0.3092
21422W        W37316   3.745   6.990   3.235  0.1390  0.1394 -0.4741
21423W        W37317  16.518  17.768   1.500 -0.4496  0.0931  0.4247
21424W        W37318  13.757   8.712  11.623  0.1409 -0.3672  0.2185
21425W        W37319  17.778  14.581  10.492 -0.1441 -0.0060  0.0946
21426W        W37320  13.752  14.664   2.728  0.1406  0.0233  0.2825
21427W        W37321  16.251   0.102  13.778 -0.1635 -0.2207  0.0814
21428W        W37322  10.490   9.365  12.964 -0.0883  0.1564 -0.2833
21429W        W37323   1.720  15.265  13.222  0.1325 -0.0328  0.1524
21430W        W37324   4.171  18.103  14.761 -0.0288 -0.1994  0.0361
21431W        W37325   2.174   1.300  11.017 -0.1662  0.0758 -0.1028
21432W        W37326  13.787   5.679   1.612  0.0716  0.0817 -0.3765
21433W        W37327   1.949  12.438  12.374  0.3308  0.0166  0.1589
21434W        W37328   2.891  15.675   1.623 -0.1657 -0.0994 -0.0753
21435W        W37329   6.172  17.039   1.430  0.0210  0.2437  0.0802
21436W        W37330  13.013   2.033  12.497 -0.0291  0.2048  0.2360
21437W        W37331  10.095  12.802  12.267 -0.3655 -0.1351 -0.0892
21438W        W37332  12.134   2.567   3.133 -0.0745  0.0536  0.0518
21439W        W37333  17.709   9.074   3.461  0.2834 -0.1298 -0.1905
21440W        W37334  15.546   7.628   3.984 -0.1687 -0.1694  0.2954
21441W        W37335  16.655   0.446  11.357  0.0758  0.1658 -0.3145
21442W        W37336  15.973  16.878   1.306  0.2795 -0.3558 -0.0227
21443W        W37337   1.399   1.285   4.289  0.1916 -0.1513 -0.0937
21444W        W37338  15.148  16.172   3.737 -0.1448 -0.1622  0.1061
21445W        W37339  16.874  11.619   0.788  0.0640 -0.3126  0.1715
21446W        W37340   5.241   3.886  11.531  0.3754 -0.2633  0.0318
21447W        W37341  18.431   1.998   0.963  0.0262  0.0595  0.0496
21448W        W37342  11.036   4.543  11.459 -0.1536 -0.0428  0.0628
21449W        W37343   3.567  18.973   5.087  0.4168 -0.0718 -0.0983
21450W        W37344   7.024  15.917   4.139  0.1514 -0.0028  0.2109
21451W        W37345  11.167  14.579   0.274  0.0269  0.1491 -0.0042
21452W        W37346   2.926  15.575   5.090 -0.0861 -0.4316  0.1224
21453W        W37347   5.191  16.626   3.825 -0.2334  0.4377 -0.1908
21454W        W37348   2.208   3.883  12.570 -0.0289  0.1230 -0.2182
21455W        W37349   2.387  15.960   5.351  0.0210  0.0763 -0.4158
21456W        W37350  14.512   2.658   0.760 -0.1990 -0.2037  0.0149
21457W        W37351   4.786   3.174  10.958 -0.2008  0.0946  0.0312
21458W        W37352  13.412  16.642  12.140 -0.1098  0.2737 -0.0947
21459W        W37353  10.163  15.149  10.402  0.1964  0.2186 -0.3427
21460W        W37354  11.556   3.574   4.417 -0.0877  0.0721 -0.2847
21461W        W37355   6.109  14.256  12.767 -0.0346 -0.1168 -0.2881
21462W        W37356   8.753  16.685  14.029 -0.1807  0.0603 -0.0300
21463W        W37357   9.732   9.845  13.958 -0.0379  0.0172  0.2644
21464W        W37358   7.784   7.962  14.787  0.0287 -0.3223 -0.1803
21465W        W37359  10.141  15.072  13.354  0.0695  0.0709 -0.0997
21466W        W37360   9.271   3.639  11.605 -0.1781  0.0305 -0.1505
21467W        W37361   5.915  11.603   0.278  0.0221  0.0626 -0.2173
21468W        W37362  16.348   8.484   5.130  0.1082  0.0131  0.4593
21469W        W37363  18.295  18.932   0.782 -0.1664 -0.1574  0.0522
21470W        W37364  11.631   6.182   0.221  0.1360 -0.0854  0.0682
21471W        W37365   5.529   1.336  11.730  0.0386  0.3640  0.0461
21472W        W37366   8.174  15.277  12.828 -0.3029  0.1566 -0.1484
21473W        W37367   2.996   8.485   1.787  0.2339  0.0406 -0.0836
21474W        W37368   8.888   4.172   4.754  0.3151 -0.2191 -0.0942
21475W        W37369   7.135   5.331  11.510  0.0845 -0.3817  0.3823
21476W        W37370   3.767  10.488  12.388  0.0088 -0.1963 -0.0513
21477W        W37371   2.878   1.725  13.715 -0.0337 -0.0635  0.4398
21478W        W37372   5.463  11.641  11.011  0.1696  0.0041 -0.2401
21479W        W37373  10.858  13.951  11.674 -0.1545 -0.1060  0.2132
21480W        W37374   0.062   3.865   1.054 -0.1005 -0.1157  0.1885
21481W        W37375  13.724   8.716   5.448 -0.0535  0.0698  0.2461
21482W        W37376   9.582   6.798  12.283 -0.1679  0.4714 -0.1254
21483W        W37377  12.018  12.509  14.562  0.3462 -0.3058 -0.1387
21484W        W37378   3.851  14.112   2.246 -0.2810 -0.0278 -0.3313
21485W        W37379  16.899  13.694   4.593 -0.1956 -0.1494  0.3019
21486W        W37380   7.426  13.927  14.348  0.0058 -0.0152 -0.0860
21487W        W37381   5.321  17.495   0.644 -0.1945 -0.0134  0.0045
21488W        W37382   6.002   9.011   4.746 -0.0143  0.2809 -0.0737
21489W        W37383   0.472  16.326   4.814  0.0419 -0.2163  0.1688
21490W        W37384  13.465   3.685   4.184  0.2176  0.2302  0.0438
21491W        W37385  11.331   7.826  14.702 -0.0443  0.1505 -0.0927
21492W        W37386  19.189   3.648  12.512  0.3198 -0.2556 -0.0003
21493W        W37387   3.307   7.260  14.248  0.1244 -0.2257 -0.1251
21494W        W37388  16.778  15.798   4.331 -0.0620  0.1036  0.1459
21495W        W37389   9.201   6.175   0.318  0.1248 -0.0602 -0.5758
21496W        W37390   5.700  14.299  14.839 -0.2496  0.1545  0.3006
21497W        W37391  13.386  16.800  10.891 -0.2744  0.2332 -0.0621
21498W        W37392  11.767  12.426   1.372 -0.1455  0.3958 -0.3169
21499W        W37393   6.427   1.369   1.740 -0.0219  0.2453  0.0392
21500W        W37394   2.242   0.535   1.746  0.4113 -0.3663  0.0753
21501W        W37395   1.923   4.648   2.820 -0.0964  0.0400  0.0591
21502W        W37396   7.864  13.668  13.457 -0.0320  0.2845  0.0959
21503W        W37397   0.085   7.844   3.290  0.0493 -0.0210  0.1292
21504W        W37398  14.232   7.416  12.687  0.1167 -0.1029 -0.0499
21505W        W37399  10.469   0.986  12.887 -0.1489 -0.2302 -0.1644
21506W        W37400  14.617  14.458  12.380 -0.1181  0.2826  0.2008
21507W        W37401  12.470   6.007   1.221 -0.1348 -0.4224 -0.0627
21508W        W37402  11.879   9.427   0.695  0.0017  0.1740 -0.0181
21509W        W37403   2.848  18.060   4.303 -0.1955 -0.0079 -0.1779
21510W        W37404   2.772  11.667   1.245 -0.0060 -0.1909  0.1564
21511W        W37405  10.909   8.272  13.993  0.1635  0.2069  0.1492
21512W        W37406  15.887   0.396   4.200 -0.3795  0.2038  0.2176
21513W        W37407   8.119  15.303  11.911  0.0700 -0.2735  0.3647
21514W        W37408  15.983  12.831  14.869 -0.0256 -0.0668 -0.0843
21515W        W37409   7.930  18.072   3.338  0.1475 -0.0614  0.0055
21516W        W37410  15.740   6.049  10.526  0.2824  0.0385  0.0938
21517W        W37411   2.760   0.857   5.253 -0.0004  0.3062  0.3449
21518W        W37412   8.997  12.807   3.510  0.0780  0.3239  0.0909
21519W        W37413   6.288   3.751   1.136  0.2066 -0.0536 -0.0870
21520W        W37414   5.965   7.678  13.162  0.1133  0.3014 -0.1863
21521W        W37415  12.348   6.278  12.019 -0.1520 -0.0332  0.0457
21522W        W37416  11.909   0.433   2.896  0.1005  0.0325 -0.1099
21523W        W37417  11.184   1.237  10.802  0.2542 -0.1888 -0.0352
21524W        W37418   2.688   2.328   1.314  0.1528  0.2799  0.1308
21525W        W37419  15.490   5.389  13.068 -0.0002  0.1325  0.1085
21526W        W37420  11.031   0.366  14.310  0.3553  0.0979 -0.5168
21527W        W37421   6.176   2.016  13.471  0.0085 -0.2100  0.1648
21528W        W37422  17.843   3.181  13.025 -0.4288  0.0776 -0.0379
21529W        W37423  18.359   1.863   1.486 -0.2600  0.2564 -0.0306
21530W        W37424  18.288  10.661  12.531  0.3322 -0.2839 -0.0563
21531W        W37425  11.468   3.757  12.444  0.2342  0.2297 -0.2852
21532W        W37426   6.692   5.768  13.431 -0.1981 -0.0223  0.1897
21533W        W37427   3.023   0.213   1.261  0.0655  0.0791  0.1976
21534W        W37428  18.453  11.806  13.717  0.1616  0.1303 -0.2056
21535W        W37429  15.624   1.282   4.254 -0.1277  0.1792 -0.1999
21536W        W37430   3.783   1.262  12.738  0.2322  0.1634  0.1830
21537W        W37431   5.443  13.995  11.641  0.0366  0.0125 -0.3211
21538W        W37432   2.540  10.557  11.227 -0.1175 -0.0531 -0.3776
21539W        W37433   9.738  18.664  14.539 -0.0394  0.1178 -0.0344
21540W        W37434  14.037   9.781   2.257  0.2740  0.3596  0.2616
21541W        W37435  17.769  13.918  14.252 -0.0021  0.1431 -0.0625
21542W        W37436   6.753  15.241   0.478 -0.1507  0.2485 -0.2869
21543W        W37437  14.655  17.260  14.705 -0.2975 -0.0137  0.2137
21544W        W37438  17.949   8.346   5.318  0.2965  0.0566 -0.0689
21545W        W37439   6.464   3.084   3.379  0.0160 -0.0769 -0.4364
21546W        W37440  11.304   5.976  14.602 -0.3726 -0.1482  0.1099
21547W        W37441  10.424   3.564   5.505 -0.1365  0.2024  0.3475
21548W        W37442  15.366  14.744   1.040 -0.0596  0.2964  0.0746
21549W        W37443   1.983  17.652   1.524  0.0571 -0.0137 -0.0390
21550W        W37444   7.198   1.231   1.840 -0.1425 -0.1089  0.0065
21551W        W37445   5.791  19.146  12.249  0.2611 -0.1260 -0.2989
21552W        W37446  18.699   2.378  13.613 -0.0951 -0.3719 -0.1353
21553W        W37447  15.895  14.136   1.635  0.1892 -0.1891 -0.1051
21554W        W37448  15.229   2.645   3.569 -0.0521 -0.1506 -0.0734
21555W        W37449   7.686   5.759  10.408  0.2344 -0.0356  0.1258
21556W        W37450   2.984   9.397  13.105 -0.1037  0.0365  0.1256
21557W        W37451   0.157   5.203  11.031  0.0782 -0.5897 -0.2558
21558W        W37452  16.066  13.465   4.180 -0.2527 -0.1435 -0.0263
21559W        W37453  18.636   1.165  13.977 -0.0805  0.0135 -0.0944
21560W        W37454  18.989   9.142  12.928 -0.0293  0.0822  0.2803
21561W        W37455   1.839  18.234   0.865 -0.0908 -0.0683  0.0871
21562W        W37456   6.925  17.704   4.256 -0.2187  0.0522 -0.3407
21563W        W37457   2.765  18.561   1.593  0.4379 -0.2425 -0.1250
21564W        W37458   6.368  16.970  11.834 -0.2142 -0.3123  0.0083
21565W        W37459  12.899   1.724   4.433  0.1542 -0.0677  0.2073
21566W        W37460   2.145   3.323  10.903  0.3117  0.0597  0.3458
21567W        W37461  18.837   8.287   1.449  0.1588  0.1203 -0.0636
21568W        W37462  15.150   1.489   4.490 -0.0256 -0.1442 -0.1719
21569W        W37463   3.295   4.713   5.693 -0.0985 -0.1569  0.0659
21570W        W37464   4.800  18.596  12.868  0.1070 -0.1296 -0.2826
21571W        W37465   5.008   5.307   3.712  0.1121  0.1110 -0.2137
21572W        W37466   4.418   4.298   3.479 -0.1409 -0.1218  0.1495
21573W        W37467   4.066  11.118  11.876 -0.0845  0.1871  0.0335
21574W        W37468   8.660  19.215  11.089 -0.1387 -0.0803  0.2314
21575W        W37469   5.677  17.536   3.920  0.0631  0.0776  0.0429
21576W        W37470   7.656   0.637  14.399 -0.1449 -0.3664 -0.2188
21577W        W37471   5.578  13.807  12.280  0.1780 -0.0180  0.0252
21578W        W37472   4.891   2.330  11.415  0.1428  0.1242  0.4696
21579W        W37473  18.379   2.822   1.682  0.0228 -0.2054 -0.0050
21580W        W37474  18.325   0.107  10.152 -0.0491  0.1984 -0.1697
21581W        W37475  10.419   9.423   4.140 -0.1992 -0.0644  0.2242
21582W        W37476  14.594  11.727  14.740  0.0571  0.3263 -0.2105
21583W        W37477  10.592  15.261   0.899  0.4922 -0.4260 -0.0120
21584W        W37478  16.448  12.217   3.610  0.0350  0.2803  0.0300
21585W        W37479   3.699   8.701  12.043  0.0079  0.3695 -0.0145
21586W        W37480  15.342  16.396  12.284  0.0863 -0.2217  0.2050
21587W        W37481   8.430   0.926   5.179  0.0843  0.1779  0.0896
21588W        W37482   9.135  12.322  10.649 -0.0076 -0.0613 -0.1216
21589W        W37483  14.558   3.158  11.440 -0.0728 -0.1662 -0.0473
21590W        W37484  18.885  14.633  11.826  0.1875 -0.2623  0.3252
21591W        W37485  16.245   8.319   4.082 -0.1589  0.0730  0.0523
21592W        W37486  12.305  16.403   0.817 -0.1578 -0.0731  0.0784
21593W        W37487  10.411   4.400  10.672  0.2973  0.1990 -0.1413
21594W        W37488  10.046  14.826   3.452  0.1791 -0.0110  0.2021
21595W        W37489   3.871   6.054   0.980 -0.1508 -0.0440 -0.1361
21596W        W37490  19.182  16.487  11.887  0.1573  0.1489 -0.0071
21597W        W37491  17.339   7.743  14.993  0.1255  0.1003 -0.1793
21598W        W37492   9.740   2.527  13.543  0.1949  0.0954 -0.1977
21599W        W37493  11.127   2.749  11.773  0.0981  0.0359  0.0136
21600W        W37494  13.844   2.607   3.358  0.2825 -0.1158  0.0370
21601W        W37495   8.664   4.458   1.695  0.0278 -0.1438  0.1509
21602W        W37496   0.229  16.745   9.231  0.0387 -0.1802  0.1092
21603W        W37497   9.546  13.116   1.362  0.0022 -0.0301 -0.0058
21604W        W37498  17.587   7.994  13.929 -0.0047  0.0769  0.0991
21605W        W37499   5.269  18.433   1.131 -0.1100 -0.1273 -0.2093
21606W        W37500   8.923   1.582  11.038  0.2240 -0.1040 -0.0518
21607W        W37501   6.411   1.308   3.655  0.0686  0.1357 -0.1445
21608W        W37502  15.571   8.663   3.120 -0.3047  0.0444 -0.2202
21609W        W37503  18.657   2.497   0.393  0.1374 -0.1752  0.1337
21610W        W37504  10.189   5.512  13.150  0.0114 -0.0683  0.0525
21611W        W37505  18.431   2.927   4.479  0.2301 -0.3059 -0.1278
21612W        W37506   7.316   7.792   2.346 -0.0680 -0.1168 -0.2361
21613W        W37507  11.927   6.815   4.349 -0.3980  0.2381 -0.1712
21614W        W37508   8.576   1.275   0.223 -0.0166 -0.0626 -0.2300
21615W        W37509  13.172  17.907   0.562  0.1743 -0.3955 -0.1504
21616W        W37510   9.514   9.665  13.536  0.4222  0.1153  0.0324
21617W        W37511   9.343  11.048   4.207 -0.3848  0.1980 -0.1478
21618W        W37512  15.859  14.918   3.849  0.1033 -0.0648  0.2643
21619W        W37513  11.995   0.667   3.795  0.1333  0.4843  0.2253
21620W        W37514   4.966   4.631  13.856 -0.1297  0.2553 -0.1611
21621W        W37515   4.051  10.450  11.315 -0.0964 -0.1697 -0.1317
21622W        W37516   2.098  17.082  11.098  0.5773  0.1045 -0.0523
21623W        W37517   3.678   5.921   4.265 -0.1293 -0.1213 -0.2978
21624W        W37518   9.192   3.339   2.453  0.2154  0.4940  0.0096
21625W        W37519   1.882   9.673   3.946  0.0931  0.1305 -0.2154
21626W        W37520  17.169  11.228   0.646 -0.2834  0.0869 -0.0031
21627W        W37521   7.222  17.595  11.448  0.0649 -0.2056  0.0633
21628W        W37522   9.382  10.033   1.705  0.0314  0.0146  0.1557
21629W        W37523   3.757  18.787  12.450  0.2091  0.0240 -0.3464
21630W        W37524  12.624  10.509   3.608  0.6174 -0.2767  0.2330
21631W        W37525   0.962   8.388  10.533  0.0900 -0.0842 -0.4223
21632W        W37526   3.425   8.281  14.560  0.0342 -0.0926  0.2078
21633W        W37527  12.313  15.645   2.741 -0.0233  0.3621  0.2338
21634W        W37528  14.374  12.343   1.144 -0.2586  0.4946 -0.4043
21635W        W37529   4.697   2.789  12.653  0.0851 -0.1633  0.1362
21636W        W37530   9.394   6.494  13.881  0.2667  0.2443 -0.0882
21637W        W37531   2.659   3.377  10.848  0.4887  0.3076 -0.1342
21638W        W37532  13.033   4.859   4.675  0.0070 -0.0044  0.3414
21639W        W37533   4.051   2.571  14.912  0.3374  0.1994  0.2342
21640W        W37534  11.847   1.057  14.690 -0.1119  0.0573  0.1771
21641W        W37535   3.365  17.311   5.681  0.1730  0.3458  0.0204
21642W        W37536   2.739   9.424  11.352  0.1821 -0.4421 -0.2518
21643W        W37537  10.211   8.830   1.324  0.2225  0.3789 -0.0978
21644W        W37538   5.834  13.685   0.031  0.0797  0.1275 -0.1492
21645W        W37539   9.320   0.217  13.557 -0.3268 -0.1464  0.1599
21646W        W37540   4.004   5.377   5.621 -0.0601 -0.0273  0.1412
21647W        W37541  14.893   5.219  10.775 -0.0839  0.0898 -0.1599
21648W        W37542  11.721  16.304  13.088 -0.2029  0.2696  0.1815
21649W        W37543   2.659  15.113  10.052 -0.0323  0.0865 -0.0127
21650W        W37544  12.822  13.454  10.605  0.5139 -0.0318 -0.0378
21651W        W37545  13.251  16.024   3.964 -0.0266 -0.2123  0.1100
21652W        W37546  14.804   5.944  13.002 -0.3087  0.2582  0.0796
21653W        W37547  18.599  13.491   9.911 -0.0784 -0.1555  0.1688
21654W        W37548  13.863   1.796  14.298  0.2640  0.1200  0.0788
21655W        W37549  13.410   6.659   0.286  0.3754  0.0352 -0.1738
21656W        W37550   3.600  12.187  12.696  0.0947  0.2462  0.1090
21657W        W37551  14.449  10.764   3.058  0.1869  0.0747  0.2309
21658W        W37552   7.951  18.326  14.976 -0.1568  0.1837  0.1809
21659W        W37553  18.241   2.770   3.880  0.2732 -0.0568 -0.2050
21660W        W37554  14.711   0.238  14.932  0.3153 -0.3738 -0.2410
21661W        W37555   8.686   4.447   3.799  0.1125 -0.1462 -0.0631
21662W        W37556   7.421   3.707  11.285  0.0394  0.4247 -0.0298
21663W        W37557   3.980  11.020  11.271  0.2047  0.2881  0.0097
21664W        W37558   3.095  17.781   0.860 -0.0895  0.0704 -0.1391
21665W        W37559  13.442  17.831   2.542  0.0478  0.1636  0.1455
21666W        W37560  10.488   0.716   0.695 -0.1674 -0.4884 -0.0345
21667W        W37561   4.424  18.829   2.714 -0.0255 -0.1577 -0.0807
21668W        W37562  12.713  17.089  10.369 -0.0742 -0.1314  0.0889
21669W        W37563  18.633  16.409  10.453  0.1974  0.1443  0.1696
21670W        W37564   8.292   0.794  12.229  0.0434  0.0265 -0.1371
21671W        W37565   7.318   9.353   5.757  0.5590  0.1022  0.0074
21672W        W37566   6.917  12.056  11.369 -0.3388  0.1787 -0.0303
21673W        W37567   5.499   0.845   0.522 -0.0810 -0.1318 -0.2532
21674W        W37568   1.466  11.653   3.485 -0.2605  0.0351  0.2764
21675W        W37569  18.049  12.470   9.639  0.1892 -0.0482  0.0991
21676W        W37570   0.711   5.978  11.055 -0.3479 -0.0181 -0.1289
21677W        W37571   4.543   4.959  11.660 -0.2882  0.0884 -0.0988
21678W        W37572   6.613   1.749   1.496 -0.3382 -0.2917  0.3304
21679W        W37573  18.627  11.082  14.887 -0.1856  0.0418  0.1602
21680W        W37574  18.310  17.848   1.697 -0.1158 -0.1052  0.0415
21681W        W37575   9.752   6.551   4.628  0.0552  0.1379  0.0843
21682W        W37576  19.047  13.717  11.440  0.0325  0.0833 -0.2692
21683W        W37577   1.271   3.725  13.673 -0.1158  0.1892 -0.2363
21684W        W37578  16.472  16.653   1.622 -0.1135  0.2867 -0.0302
21685W        W37579   6.116   3.784  11.108  0.0433  0.1199  0.0654
21686W        W37580   5.229   5.358  12.768 -0.1730  0.1136 -0.0012
21687W        W37581  13.410   4.012  12.057  0.0369  0.1189 -0.2166
21688W        W37582   5.303  18.648  11.371 -0.0893 -0.0906  0.1022
21689W        W37583  14.131  15.073   3.136  0.3230 -0.1558  0.1336
21690W        W37584  16.902   9.326   3.598  0.2553 -0.1241 -0.0394
21691W        W37585   5.734   7.503   3.069 -0.2334  0.1044 -0.1310
21692W        W37586   8.730   7.750  14.561 -0.2488  0.2620  0.0933
21693W        W37587  12.719   2.794  14.793 -0.3551 -0.1547 -0.2825
21694W        W37588  14.208   6.816  10.389  0.1390 -0.1146  0.0749
21695W        W37589  10.977   2.698  12.579 -0.2127 -0.0142 -0.0464
21696W        W37590  18.821  14.771  10.308  0.0429 -0.4817  0.3968
21697W        W37591  14.293   1.590  14.387 -0.1650  0.1773 -0.0109
21698W        W37592   0.553  14.884   1.118 -0.2225 -0.3984 -0.1698
21699W        W37593   5.775   8.763  12.470  0.2058  0.0898  0.0074
21700W        W37594  13.986  18.577   2.998 -0.3255 -0.1929 -0.0196
21701W        W37595   6.059   8.150  13.293  0.1057  0.1902  0.2813
21702W        W37596   7.663  18.580   0.331 -0.0649  0.2136 -0.1558
21703W        W37597   8.131   2.515   1.579 -0.1368  0.0128 -0.0234
21704W        W37598   8.505  17.111   1.432  0.0454  0.1198 -0.3092
21705W        W37599  14.355   5.374   2.961 -0.0758 -0.0169 -0.0836
21706W        W37600  18.967  15.511   3.189 -0.0502  0.0553  0.2305
21707W        W37601   7.391   6.692   2.017  0.2869  0.3332 -0.0511
21708W        W37602  18.035   3.395  14.070 -0.0250 -0.1192 -0.0302
21709W        W37603   8.037   7.162   0.026  0.0618  0.4200  0.2458
21710W        W37604   2.081  15.795   4.687  0.2888  0.0253 -0.1587
21711W        W37605   1.666   6.219   4.151  0.0959 -0.4966  0.2014
21712W        W37606   1.808   1.231   2.746  0.3487 -0.1454 -0.1681
21713W        W37607   3.939  12.090  13.400  0.0296  0.0541  0.1243
21714W        W37608   5.388  17.807  10.487  0.2119  0.1472  0.1661
21715W        W37609   9.658   0.084   3.725  0.3956  0.1158 -0.1014
21716W        W37610  19.074  18.308  15.102  0.0493  0.2882 -0.2668
21717W        W37611   0.523   5.928  10.595  0.2033 -0.0147  0.0193
21718W        W37612   0.309  18.058  13.857 -0.1380  0.0014  0.0902
21719W        W37613  10.623  14.658   3.593 -0.1180 -0.1172 -0.0117
21720W        W37614   4.625   3.049  14.658 -0.0356  0.3356  0.2881
21721W        W37615  12.073  10.204  12.753  0.1998  0.1065  0.2780
21722W        W37616  19.135   3.065   4.306  0.1711  0.3112 -0.0368
21723W        W37617   3.707   9.917   3.943  0.0513  0.0707 -0.1022
21724W        W37618   2.339  16.816   5.377  0.1241  0.0249 -0.1080
21725W        W37619  14.540  14.616  12.863  0.1443 -0.0190  0.1751
21726W        W37620   0.560  16.256   3.348  0.1982  0.0205  0.2742
21727W        W37621   4.735   3.643  14.504 -0.0151 -0.2773 -0.0138
21728W        W37622   6.941   6.910  11.951  0.1062 -0.4487 -0.0696
21729W        W37623  17.196   9.633  14.849  0.1047  0.3305  0.0278
21730W        W37624   7.020  15.468  12.600  0.2454 -0.3005  0.3238
21731W        W37625   8.786  18.705   1.057  0.1056 -0.5366  0.1386
21732W        W37626   3.106   9.256  13.918  0.2765 -0.0481 -0.0072
21733W        W37627  11.463   4.578   4.665 -0.0333  0.0419 -0.0414
21734W        W37628  17.609   0.925   0.557  0.0367  0.1114 -0.0324
21735W        W37629  12.095   4.037   2.105  0.1400  0.2048 -0.0299
21736W        W37630  10.658  12.826   1.868 -0.2000  0.1368  0.0720
21737W        W37631  13.163   3.848  13.141 -0.1490  0.0888  0.1442
21738W        W37632  14.858   6.677   4.152  0.1227 -0.0174  0.3125
21739W        W37633   7.481   8.224   3.003  0.0889 -0.0424  0.1773
21740W        W37634  13.489   8.687  13.105 -0.0480 -0.0312  0.0700
21741W        W37635   1.035   9.597   3.534  0.0230 -0.0617 -0.2555
21742W        W37636  15.403   3.947   3.882 -0.1098 -0.1949  0.1581
21743W        W37637   9.130  12.246   4.944  0.2192  0.0535  0.2517
21744W        W37638  10.548  16.095   2.117 -0.0274 -0.1807  0.2176
21745W        W37639  15.305   6.149  13.402  0.0890 -0.2681  0.1440
21746W        W37640   0.169  18.575  11.023 -0.3166 -0.1849  0.1918
21747W        W37641   8.443   2.735   5.080 -0.0807 -0.1509 -0.1178
21748W        W37642   4.060  18.625  11.628  0.2067 -0.0186  0.3321
21749W        W37643  14.494   3.243   2.409 -0.0406 -0.0764  0.1061
21750W        W37644   9.211  17.977  10.887 -0.2631 -0.3222 -0.2068
21751W        W37645   8.528   4.274   2.843 -0.3582 -0.1467  0.0667
21752W        W37646   0.277  18.625   4.516 -0.3708 -0.1008  0.2774
21753W        W37647  17.893   4.148  10.008  0.1540  0.3052 -0.0510
21754W        W37648   3.301  15.995   3.871  0.1700  0.0376  0.1841
21755W        W37649  14.435   2.819   9.943  0.0943 -0.0818 -0.1785
21756W        W37650  10.976   1.636  10.143  0.2725 -0.0876  0.2884
21757W        W37651   1.713   9.847   5.563  0.2617 -0.2201  0.0144
21758W        W37652  15.203   4.743  11.270 -0.1546 -0.0860 -0.1995
21759W        W37653  17.241  18.366   2.459 -0.1519 -0.0391  0.0307
21760W        W37654  13.496   5.544   4.658 -0.2339  0.0070 -0.0666
21761W        W37655  10.104   8.229   0.163  0.2524 -0.1475 -0.2028
21762W        W37656   2.632  10.421   0.337  0.0659 -0.0613 -0.1273
21763W        W37657  14.532  17.125   2.051 -0.3259  0.0761  0.1757
21764W        W37658   5.766  12.914  10.808 -0.2343 -0.0590 -0.0181
21765W        W37659   6.031  15.325  10.304 -0.0902  0.4013 -0.2191
21766W        W37660  14.148  11.062   2.504  0.0978  0.2138 -0.2058
21767W        W37661  16.222   0.693   2.247  0.0537  0.0297 -0.0458
21768W        W37662  16.949  11.089   4.612 -0.0334 -0.1657 -0.1276
21769W        W37663  13.614  13.901   0.327  0.4421  0.3408 -0.0595
21770W        W37664  11.130   1.250   1.208 -0.4324 -0.0947  0.0743
21771W        W37665  18.305  19.073  12.155  0.2590  0.1739  0.1005
21772W        W37666   6.049   7.106   3.306 -0.1547  0.0691 -0.1857
21773W        W37667  14.089   3.321  14.386 -0.1290  0.1110 -0.1345
21774W        W37668  12.402  10.638   1.719  0.1870  0.2265  0.2352
21775W        W37669  13.624  13.422   4.827 -0.3535 -0.0573  0.0257
21776W        W37670   4.951  13.316   0.926 -0.3727 -0.2192  0.2848
21777W        W37671  13.717  18.870  12.473  0.2588 -0.1312  0.1231
21778W        W37672   0.081   5.821   1.119  0.1328 -0.1083  0.1435
21779W        W37673   6.618   5.568   2.351 -0.1865  0.2926 -0.2226
21780W        W37674  10.000   1.179   4.897  0.0160  0.0098 -0.0404
21781W        W37675   1.369   4.578   2.666  0.0165 -0.4272 -0.0370
21782W        W37676   2.014   2.718   2.974  0.0624  0.3903 -0.3106
21783W        W37677   0.031   7.324  12.913  0.0621  0.4227 -0.1260
21784W        W37678  14.191  15.715   2.891  0.0796 -0.0023 -0.1872
21785W        W37679   0.325  18.131  12.941  0.3659  0.1728  0.1298
21786W        W37680  16.911  10.166  14.878 -0.0086  0.0819 -0.4054
21787W        W37681  13.003  12.202   1.696 -0.0503  0.3206 -0.1088
21788W        W37682   1.764  16.542  10.399 -0.1234 -0.1122  0.2229
21789W        W37683   3.170   6.937   2.093 -0.0169  0.3503 -0.0168
21790W        W37684  16.117  12.945   2.929 -0.0466  0.1388  0.0408
21791W        W37685   6.024   6.487   2.100 -0.0209  0.0816  0.2449
21792W        W37686   4.163  18.335   2.644 -0.3361  0.0315  0.1970
21793W        W37687   5.542   9.221  12.225 -0.0224  0.0294 -0.1048
21794W        W37688   7.044  18.999   4.588  0.2116  0.0434  0.1596
21795W        W37689   0.358   0.133   2.141 -0.0350  0.1266 -0.0228
21796W        W37690  15.854  15.069  12.745  0.2170 -0.0286 -0.2732
21797W        W37691  17.177   0.860  10.614 -0.0886  0.0240 -0.3169
21798W        W37692  10.876  17.699   1.547  0.0312 -0.0761 -0.4899
21799W        W37693   3.390  16.743   4.528 -0.0421  0.1478  0.1074
21800W        W37694   8.823   5.712   2.862 -0.2984  0.2045  0.1270
21801W        W37695   9.689   9.686   2.409 -0.0491 -0.0312 -0.0548
21802W        W37696  12.358  11.411   0.537  0.0816 -0.3944 -0.0902
21803W        W37697   2.834  12.720  12.453 -0.1731  0.2747 -0.1329
21804W        W37698   7.629  18.337   4.736 -0.0062 -0.1167 -0.0585
21805W        W37699   3.715  18.751   1.316  0.1357 -0.0910  0.2814
21806W        W37700   4.346   3.523  14.208  0.0554  0.0342  0.0253
21807W        W37701  11.465  17.468  12.936  0.0194 -0.2061 -0.2614
21808W        W37702  12.464  12.234   3.896  0.0536  0.1304  0.3639
21809W        W37703   3.234   3.346  13.573 -0.3841  0.1393  0.4047
21810W        W37704  14.475  19.121   4.648 -0.0912  0.1752 -0.0383
21811W        W37705  11.409  10.041  12.540  0.2563 -0.3698 -0.2584
21812W        W37706   7.779   3.434   2.135  0.0971 -0.1566  0.2243
21813W        W37707  12.526  15.027  13.267 -0.0301 -0.0230  0.1347
21814W        W37708  11.871  11.232   2.210  0.0120 -0.1428 -0.2382
21815W        W37709   7.217   6.567   3.795  0.0276 -0.0985 -0.2785
21816W        W37710   2.329  17.817  14.017 -0.3770  0.1972  0.4286
21817W        W37711   4.245  17.104  15.009 -0.1153 -0.0092  0.2499
21818W        W37712  13.627   4.040  13.863  0.0149 -0.0889  0.0979
21819W        W37713   3.405   5.776   3.432  0.0364 -0.1861 -0.1295
21820W        W37714   0.489  14.234  10.530  0.0771  0.0346  0.1273
21821W        W37715   6.341   3.966   2.149 -0.3423  0.1308  0.0508
21822W        W37716  17.934   3.657  12.871  0.4685  0.0416 -0.0484
21823W        W37717   1.632  15.688   5.274  0.4162  0.1578 -0.1091
21824W        W37718  12.640  11.054   2.278  0.0472 -0.4268  0.1733
21825W        W37719  11.150  16.882   2.117 -0.3697  0.0097 -0.2092
21826W        W37720  12.964   9.091  14.060 -0.2750  0.1891  0.0622
21827W        W37721   2.265  16.222  12.085 -0.1097 -0.0240  0.1073
21828W        W37722  16.334   1.222  14.457  0.0113  0.1202  0.0071
21829W        W37723   5.031   6.083   5.559  0.2658 -0.1325 -0.0789
21830W        W37724  12.319  12.480  11.601  0.0407 -0.0701 -0.2037
21831W        W37725  17.613   3.165  14.176  0.1106  0.1907 -0.5292
21832W        W37726   6.537  16.188  14.151 -0.0794 -0.0243 -0.1219
21833W        W37727   2.070  18.507   4.092 -0.1658  0.0590  0.2097
21834W        W37728  12.187   5.389   1.684  0.2530  0.3573 -0.3229
21835W        W37729   6.993   9.378  12.595 -0.0896  0.0782  0.0730
21836W        W37730   0.933   6.462  12.591  0.0051 -0.1236  0.0368
21837W        W37731  13.530  15.347   0.161  0.0822 -0.3464 -0.1292
21838W        W37732  11.503  18.494  12.978 -0.2338  0.1902  0.0522
21839W        W37733   2.686  16.760  11.349  0.0065 -0.1558 -0.0517
21840W        W37734  10.071  18.610  10.799 -0.1382  0.1579  0.0044
21841W        W37735  16.245   4.675   0.495  0.1075  0.2251 -0.1268
21842W        W37736  15.214   5.169   2.131 -0.3190 -0.0828  0.3824
21843W        W37737   1.103   9.958   0.545 -0.1854  0.5620 -0.1764
21844W        W37738  14.031  12.289  13.423  0.1256  0.1323 -0.1628
21845W        W37739   5.014   6.590   1.749 -0.1743 -0.1200 -0.0334
21846W        W37740   5.834   0.295   5.721 -0.0292  0.0969 -0.0487
21847W        W37741   0.734  12.736   1.014 -0.3406  0.4074  0.0870
21848W        W37742   5.944   9.037   0.859  0.0829  0.1450  0.0326
21849W        W37743  15.631   1.449   2.489  0.5216  0.0544 -0.1703
21850W        W37744   2.586  10.885   5.373  0.4809  0.1601  0.0345
21851W        W37745  10.949  15.807  13.024 -0.2204 -0.0696  0.1016
21852W        W37746  13.518   8.564   4.825 -0.1102  0.1801  0.0154
21853W        W37747   8.180  18.438   3.583  0.1230 -0.0902 -0.2437
21854W        W37748   0.452   9.643  14.846 -0.0755  0.2320  0.1508
21855W        W37749   9.865  15.148   2.660  0.0307 -0.0441  0.4570
21856W        W37750   0.570   0.244   0.785 -0.0112 -0.0694  0.3090
21857W        W37751  15.000   1.892  12.923  0.2415  0.2043 -0.1683
21858W        W37752  18.524   5.464   3.223  0.0382  0.0126  0.4373
21859W        W37753   4.984   8.046   5.042 -0.0376 -0.0737 -0.1368
21860W        W37754  13.343  13.510  11.983  0.3200 -0.1716 -0.2401
21861W        W37755   1.822   9.215  11.376 -0.0434 -0.1031 -0.1334
21862W        W37756   9.650  12.365  14.156 -0.0657 -0.6056  0.1714
21863W        W37757  17.526   3.589  14.964  0.0296  0.0192  0.1806
21864W        W37758   7.914   0.512   0.474  0.0067 -0.1451 -0.2094
21865W        W37759  18.451  16.346   3.646  0.0483  0.0657 -0.1624
21866W        W37760  15.768  10.716   0.313 -0.2949  0.2382 -0.0261
21867W        W37761   5.344   2.545   0.845 -0.0478 -0.0597  0.2083
21868W        W37762  18.421  11.665   1.385 -0.0676 -0.1274 -0.0539
21869W        W37763  10.239  18.146   2.837 -0.1404  0.1363 -0.5602
21870W        W37764   3.289  15.001  10.537 -0.2065  0.1883  0.1981
21871W        W37765   3.307   6.632   2.468  0.1072 -0.0864  0.2441
21872W        W37766  14.652   0.934  14.215  0.0511 -0.0353  0.1120
21873W        W37767  17.133   5.199  14.409 -0.3845 -0.1529 -0.1192
21874W        W37768   9.607  18.727   3.326  0.3812  0.2991 -0.1330
21875W        W37769   4.838   9.818  12.106 -0.0347  0.4129 -0.0667
21876W        W37770  15.224  14.274   5.185 -0.1147  0.3799 -0.1187
21877W        W37771   2.460  16.011  13.206 -0.1647  0.2888  0.0787
21878W        W37772  15.389  10.471   4.245 -0.2169  0.2321  0.2810
21879W        W37773  16.474   2.988  12.344  0.4788  0.2144  0.1370
21880W        W37774   8.520   4.437   1.187  0.0664 -0.3329 -0.0740
21881W        W37775  11.103  19.209   2.938 -0.0999  0.3073  0.3497
21882W        W37776   9.013  16.142   2.139 -0.1597  0.3645 -0.1451
21883W        W37777   7.997  14.461   2.934 -0.1665 -0.1596  0.0453
21884W        W37778  15.058   8.861  11.307 -0.0365 -0.2280 -0.1571
21885W        W37779   1.354  10.244  10.695 -0.3067 -0.2344  0.0344
21886W        W37780  17.619  14.347  11.487 -0.3055  0.2410 -0.1312
21887W        W37781   2.538  17.740  12.848  0.2071  0.1395  0.0633
21888W        W37782   3.149   0.558   5.094  0.2675 -0.3987 -0.2504
21889W        W37783  18.948   2.452   2.186  0.1931 -0.2678 -0.0144
21890W        W37784  12.089   6.794   2.898  0.0617 -0.2482  0.2268
21891W        W37785  12.303   7.925   5.212  0.1830 -0.1698  0.3006
21892W        W37786   4.060  15.876   3.241  0.1093  0.1817 -0.1725
21893W        W37787  10.190   8.728  14.102  0.3191 -0.0669 -0.0926
21894W        W37788  17.113  13.855  14.833 -0.0623 -0.1453 -0.1951
21895W        W37789   0.245   1.693   4.825  0.0314 -0.1982  0.0428
21896W        W37790   3.988  16.256  13.030 -0.0891 -0.0564 -0.2336
21897W        W37791   8.800   9.246  11.304 -0.2794 -0.0269  0.1053
21898W        W37792   7.074  12.352   1.995  0.2458 -0.0720  0.1744
21899W        W37793   4.533  15.598  10.484 -0.1226 -0.2200  0.0900
21900W        W37794   9.149   3.214   4.907 -0.0076 -0.1185 -0.1480
21901W        W37795   5.577   6.291  13.175  0.1089  0.1865 -0.5817
21902W        W37796   5.438  13.673   0.332 -0.0362  0.2782  0.0475
21903W        W37797  13.333  11.314  11.477  0.3449  0.3135  0.1483
21904W        W37798   9.070  13.482  13.016  0.0214  0.3253 -0.0800
21905W        W37799   5.178  11.727  14.754  0.1018  0.2040 -0.0411
21906W        W37800  18.824  10.290   4.123  0.1935 -0.3730  0.2537
21907W        W37801  11.032  10.996  13.626  0.0162 -0.2286  0.1387
21908W        W37802  14.368  10.591  11.241  0.1726  0.2147  0.1240
21909W        W37803  13.464  16.475   0.162  0.0473  0.0860 -0.0864
21910W        W37804  15.214  16.582  10.597 -0.0797 -0.1135 -0.3256
21911W        W37805   5.202  18.266   3.937  0.1375 -0.1168  0.3516
21912W        W37806  14.797  11.756   1.857  0.3481 -0.0357 -0.0475
21913W        W37807  11.891   7.928  10.542  0.0555  0.0515 -0.1290
21914W        W37808   1.578  14.876  15.021 -0.2901  0.1999  0.1574
21915W        W37809  16.542   9.609  13.350  0.1912  0.2418  0.3753
21916W        W37810  14.674  15.720   5.679  0.1191 -0.1095  0.1440
21917W        W37811   8.675  13.145  10.950 -0.1191  0.2050 -0.0379
21918W        W37812  16.626   4.370  12.577 -0.1447  0.3624 -0.2173
21919W        W37813  12.462   6.470   0.226 -0.3371 -0.0771 -0.0512
21920W        W37814  10.664   0.046  10.472  0.0911 -0.2860 -0.3397
21921W        W37815  10.789   4.823   4.277  0.5039  0.4021 -0.0480
21922W        W37816   4.851  17.146  10.132 -0.1261  0.1103  0.0019
21923W        W37817   9.326  10.056   2.623 -0.0619  0.0583 -0.1289
21924W        W37818   3.990   8.050  11.413  0.1448  0.3572 -0.2437
21925W        W37819   7.486  12.224  12.531 -0.1271 -0.1080  0.2638
21926W        W37820  12.030  18.273  14.668 -0.1357 -0.2067 -0.0675
21927W        W37821  15.673   2.924   5.474 -0.1116  0.0291  0.0820
21928W        W37822   3.086   3.073  11.688  0.1536 -0.0643 -0.0000
21929W        W37823  11.758  16.108   1.477 -0.1756 -0.1008 -0.1273
21930W        W37824   8.231  13.765   0.913  0.2703 -0.1072 -0.0023
21931W        W37825   9.520  12.292  11.035 -0.0241  0.2951  0.1246
21932W        W37826   1.530   9.363   2.140 -0.4806  0.1103  0.0730
21933W        W37827   9.340   5.029   1.407  0.0924 -0.0867 -0.3655
21934W        W37828   2.370   0.357  15.061  0.1640 -0.4590 -0.0796
21935W        W37829   8.263   1.546  11.602 -0.2776 -0.2083  0.3073
21936W        W37830   4.119   8.369   4.138 -0.2652 -0.1202 -0.1862
21937W        W37831   4.937  11.129   4.506  0.1464 -0.1559 -0.1826
21938W        W37832   9.725  11.276   3.881  0.0326 -0.1285 -0.1136
21939W        W37833   2.240  14.536  12.627  0.1119 -0.0891  0.1411
21940W        W37834  10.019   4.348  13.956  0.0010 -0.0915 -0.2219
21941W        W37835  10.273   9.653   0.106 -0.1288 -0.3284 -0.1096
21942W        W37836  10.240   5.378  12.666 -0.2046 -0.0080 -0.1954
21943W        W37837  14.720   0.614   0.831  0.4357  0.0014 -0.1717
21944W        W37838  13.292  18.402   3.727  0.0840 -0.1023 -0.1267
21945W        W37839   8.125  14.031   0.053  0.0760  0.1526 -0.3300
21946W        W37840  10.807   3.142  11.760 -0.2780 -0.2503  0.2363
21947W        W37841   8.632   0.336  12.246 -0.1278 -0.1114 -0.1046
21948W        W37842   6.065  15.346   9.778 -0.2592 -0.3822 -0.1835
21949W        W37843   7.832   7.408   4.171 -0.1559  0.1137 -0.3413
21950W        W37844   5.217  18.409  13.383  0.0406 -0.0290  0.2445
21951W        W37845   6.291   5.699  12.620  0.3556  0.0354 -0.1144
21952W        W37846   3.805  17.080   4.263  0.0364  0.0313 -0.5770
21953W        W37847  16.363   2.535  10.781  0.2262  0.0978  0.1169
21954W        W37848   1.724   6.786  12.631 -0.2723 -0.0180  0.0869
21955W        W37849   8.155  14.991  12.375 -0.1569  0.1364  0.0253
21956W        W37850  11.942  17.781   5.109 -0.3696 -0.0192 -0.0327
21957W        W37851   0.350  14.167  14.378 -0.0063  0.0616 -0.0108
21958W        W37852   4.146   4.225  11.817  0.2899 -0.1761  0.1094
21959W        W37853   1.224  14.222  10.181  0.0277 -0.0614  0.3308
21960W        W37854  16.761  10.494  13.527 -0.1538  0.2172 -0.1805
21961W        W37855  13.469   5.881   4.255  0.0409 -0.2331 -0.1060
21962W        W37856  12.845  16.786  10.890 -0.0906  0.0335  0.1485
21963W        W37857   3.329   4.599  11.325 -0.0759  0.0026 -0.2957
21964W        W37858   3.476   5.322   3.598 -0.0767  0.1750  0.0409
21965W        W37859  15.359  18.863   1.849 -0.0886 -0.1388  0.2069
21966W        W37860  14.787   1.705  14.566  0.0103 -0.2466  0.0968
21967W        W37861   6.237   5.533   1.945  0.1022 -0.1022 -0.0837
21968W        W37862   0.013  18.583   1.811  0.2102 -0.3049 -0.0317
21969W        W37863   8.960  13.023  11.911 -0.2813  0.0837 -0.2596
21970W        W37864   3.299   4.662  14.061 -0.0167 -0.0014 -0.1681
21971W        W37865   4.962  14.666   5.147 -0.4507 -0.4255  0.0015
21972W        W37866  19.027  11.199  10.317 -0.0081 -0.0860 -0.3698
21973W        W37867  13.595   1.974   2.073  0.0351 -0.0196  0.0279
21974W        W37868  13.844   9.026   1.686 -0.2875 -0.0563 -0.0398
21975W        W37869   7.557   3.453  11.780 -0.1979 -0.0877  0.1007
21976W        W37870  13.364   7.584   1.214  0.0203  0.1872  0.0614
21977W        W37871   4.197  10.023   4.040  0.1171 -0.0192 -0.0938
21978W        W37872   1.680  16.918  10.089  0.3699 -0.0629  0.2373
21979W        W37873   4.552  10.345  11.335  0.1263  0.1089 -0.2406
21980W        W37874   6.628   9.814  14.611 -0.1781  0.0838 -0.0084
21981W        W37875  15.677  12.045   2.593 -0.4164 -0.0156 -0.1046
21982W        W37876   6.166   1.829   1.779 -0.0100  0.1760  0.4519
21983W        W37877  13.341  15.318   2.135 -0.2800 -0.3549 -0.1345
21984W        W37878  14.699  13.553  12.015  0.2607  0.0711 -0.1618
21985W        W37879   9.150  15.277   3.845 -0.3275 -0.0627 -0.1293
21986W        W37880   5.686  19.096  13.702  0.0905  0.2997 -0.0106
21987W        W37881  18.334  16.818  12.597  0.2101  0.1601  0.0904
21988W        W37882  11.167  15.958   4.016  0.0833  0.1513 -0.1543
21989W        W37883   3.051  15.545  14.253 -0.2305 -0.0578 -0.2071
21990W        W37884   3.026  17.701   3.399 -0.0209 -0.0972  0.1358
21991W        W37885  18.696   2.750  11.941  0.0313  0.5962 -0.0383
21992W        W37886   5.049   7.046  13.103  0.1399  0.1303  0.1999
21993W        W37887  15.754   3.211   3.003  0.1700  0.1330 -0.2220
21994W        W37888  14.943   7.103  13.309  0.0789  0.1971  0.0231
21995W        W37889  14.008   4.344   0.573 -0.0668 -0.1238 -0.0091
21996W        W37890   5.763   3.665  14.632  0.0773  0.4279  0.2164
21997W        W37891   5.972  17.069   3.702  0.3351 -0.0365  0.1504
21998W        W37892  13.401  10.990  15.006 -0.0347 -0.0288  0.0251
21999W        W37893   1.110   8.532  11.044 -0.2156 -0.1981 -0.2696
22000W        W37894  15.741   6.844  12.115  0.2203  0.0766  0.0200
22001W        W37895  11.471   9.767  13.272  0.0042  0.1948 -0.0946
22002W        W37896   9.739  12.330   1.894  0.1425 -0.2115  0.3425
22003W        W37897  12.090  14.011   2.506  0.1991 -0.4154 -0.0057
22004W        W37898  15.292  17.313  10.427 -0.0859 -0.0261 -0.0809
22005W        W37899  12.869   2.968   2.578 -0.1306 -0.0514 -0.0611
22006W        W37900   3.589   0.555  13.186  0.0272 -0.1634 -0.1266
22007W        W37901  13.875   0.783   1.211  0.1895 -0.4382 -0.3107
22008W        W37902  14.950   9.599   2.301  0.0035  0.1232  0.4241
22009W        W37903   8.111   9.120   5.158  0.3048  0.2297  0.0702
22010W        W37904  12.250   4.117  11.993  0.1926 -0.0867 -0.1358
22011W        W37905   1.674   0.971  11.013 -0.2584 -0.0596  0.0835
22012W        W37906   4.650   6.361  13.542  0.4251 -0.2842  0.2730
22013W        W37907  14.408  18.039   3.365 -0.5947 -0.0133  0.0238
22014W        W37908  11.960   7.332   4.348 -0.1109 -0.5551 -0.5880
22015W        W37909   5.831   8.411   5.801 -0.2766 -0.1068 -0.2452
22016W        W37910   5.437   0.619   2.020  0.1305 -0.2186 -0.1016
22017W        W37911   1.493   1.062  13.199  0.0777  0.2371  0.2485
22018W        W37912  10.840  16.893  13.149 -0.2348 -0.0483 -0.2599
22019W        W37913   9.186   3.986   5.712  0.0846  0.0210  0.0269
22020W        W37914   8.313   6.910   1.110  0.1281  0.0975 -0.1603
22021W        W37915   2.955  12.136  14.435  0.1298  0.2210  0.2755
22022W        W37916  12.017   6.805   0.358  0.0949  0.0198 -0.2768
22023W        W37917  18.738   3.767   2.015  0.2973  0.2604 -0.1138
22024W        W37918   8.173  10.439  12.697 -0.0431 -0.1463 -0.1338
22025W        W37919  15.645  10.155  11.335  0.2448  0.1081  0.0436
22026W        W37920  16.586  17.114   2.928 -0.0029  0.1919 -0.2490
22027W        W37921   3.126  14.374   1.735  0.2359 -0.2294 -0.2273
22028W        W37922   0.738  10.251   1.862 -0.4399 -0.2533 -0.4151
22029W        W37923  15.992  10.512   2.919  0.1955  0.1908  0.0782
22030W        W37924  18.510   4.542   1.444  0.0043  0.0446  0.1050
22031W        W37925  10.798  14.146  14.011  0.0459 -0.3137 -0.0582
22032W        W37926   5.441  16.710   1.144 -0.4484  0.3334  0.0601
22033W        W37927  14.065  14.723   3.760  0.1592 -0.3439  0.2584
22034W        W37928  15.318  12.579   0.333 -0.2084  0.0604 -0.2385
22035W        W37929  10.856  16.571   0.653 -0.2089  0.0563 -0.1571
22036W        W37930  17.555   9.647   1.115 -0.0434  0.0406  0.1586
22037W        W37931  13.850   1.882  12.983 -0.1567 -0.0623 -0.2790
22038W        W37932  11.926  13.808  12.631  0.1882  0.1167 -0.0691
22039W        W37933   0.952  14.838  12.403 -0.1531 -0.4902  0.1686
22040W        W37934   1.067  12.080  13.897 -0.2684  0.4236 -0.4984
22041W        W37935  16.182   0.161  14.489  0.0291  0.0082  0.0567
22042W        W37936   8.078   8.843  10.168  0.2503  0.0268  0.0180
22043W        W37937   6.848   6.452   2.170 -0.2820  0.1190  0.0756
22044W        W37938  14.857   5.842   4.610  0.0777  0.4089  0.0509
22045W        W37939  13.192  16.869   9.532  0.1203 -0.0305 -0.0952
22046W        W37940  14.903  18.926  14.821  0.2081  0.1574 -0.1985
22047W        W37941  13.992   1.046  12.866 -0.3927 -0.2001 -0.5185
22048W        W37942  17.627   4.520   1.076  0.5637 -0.2120 -0.0023
22049W        W37943  16.266   5.434   0.872  0.1784 -0.1338 -0.2172
22050W        W37944   3.157   7.000  11.711  0.1661 -0.0794 -0.0211
22051W        W37945  10.239  13.594   3.396  0.1084 -0.1739  0.3630
22052W        W37946   9.749   7.512   2.308 -0.1748 -0.3096 -0.0870
22053W        W37947   5.181  17.038  14.229 -0.0423 -0.2663  0.1714
22054W        W37948   9.415  10.023  11.296  0.1408  0.2041 -0.2271
22055W        W37949   6.028   2.041   1.214  0.0862  0.1275 -0.3050
22056W        W37950   0.503   3.496   4.975  0.0581 -0.1700  0.0945
22057W        W37951  17.654   6.092   4.866 -0.4786  0.1131 -0.1478
22058W        W37952  13.616  10.016  13.167 -0.0638  0.1242 -0.1496
22059W        W37953  17.263   5.284   0.021 -0.0861  0.0919 -0.1336
22060W        W37954   2.536   1.744  13.366 -0.4480 -0.0823 -0.2221
22061W        W37955   8.662  17.113  12.834  0.0379 -0.2026 -0.0089
22062W        W37956  16.675   3.044   3.732 -0.1289 -0.2805  0.3001
22063W        W37957  15.287  11.991   4.285  0.1842  0.1558 -0.0050
22064W        W37958   7.779  13.467   1.266 -0.1037 -0.0593 -0.0601
22065W        W37959  11.913  18.597  11.045 -0.2081  0.1212 -0.0593
22066W        W37960   0.358   6.117   2.419  0.0802 -0.1642  0.1418
22067W        W37961   5.760   4.394   2.951 -0.2695 -0.0917 -0.0531
22068W        W37962  17.518  14.323   8.977 -0.2144 -0.1242 -0.1020
22069W        W37963  11.008  13.188  12.103  0.1570 -0.0717  0.1033
22070W        W37964   8.031   1.758   5.830  0.1964 -0.1358  0.3097
22071W        W37965   1.511   6.768  13.691 -0.1380 -0.2151 -0.0627
22072W        W37966   6.405   4.343  14.445 -0.1163 -0.3435 -0.1498
22073W        W37967   7.285   6.954  14.684  0.0821  0.0677  0.1187
22074W        W37968   4.156  12.291  11.116  0.2706 -0.0755 -0.0857
22075W        W37969   1.193   2.904  12.632  0.0226 -0.0591 -0.3006
22076W        W37970   7.400  10.761   9.304  0.3401 -0.0964  0.2439
22077W        W37971  15.927   4.894  13.978  0.0338  0.2188 -0.3919
22078W        W37972  18.698   8.343  13.090  0.1536 -0.2102  0.0510
22079W        W37973   7.694   4.686  11.155  0.3091  0.1217  0.2284
22080W        W37974   3.304   8.606  12.336 -0.0829  0.0001  0.2412
22081W        W37975  14.498   5.032   3.432 -0.0040  0.0083 -0.1275
22082W        W37976  14.906   2.261  11.546 -0.2137  0.1324  0.1967
22083W        W37977  17.522   1.079  11.498 -0.2194 -0.0436  0.1385
22084W        W37978  13.534   2.872  10.450  0.0338  0.4220 -0.1729
22085W        W37979  15.362  17.768  11.315 -0.0918 -0.2135  0.1763
22086W        W37980  11.801  10.111  12.275 -0.4049 -0.1182  0.2682
22087W        W37981  17.997   6.210  11.053 -0.1627  0.0669  0.0619
22088W        W37982  15.184   4.926  10.408  0.0616 -0.0263 -0.0349
22089W        W37983   5.369   4.036  13.070 -0.0292  0.1358 -0.0275
22090W        W37984   9.967  10.077   6.026 -0.1638 -0.2216 -0.0749
22091W        W37985   3.148   6.176  10.562 -0.1007  0.0147 -0.1536
22092W        W37986   0.273  11.352   0.771 -0.0832 -0.0432  0.1709
22093W        W37987  15.245  15.330   4.373 -0.0370  0.3528 -0.2454
22094W        W37988  10.196   7.151  13.023 -0.0574 -0.2645 -0.0404
22095W        W37989  13.832  11.641   3.986  0.2221  0.2440 -0.0946
22096W        W37990   9.665  15.282   0.774 -0.2945  0.2030 -0.1256
22097W        W37991  10.458   7.411   3.841  0.2609  0.0462  0.3046
22098W        W37992   6.099   4.277   0.534  0.1092  0.2574 -0.1011
22099W        W37993   9.122  14.188  10.379  0.1160 -0.0340 -0.3565
22100W        W37994   1.732  13.878   3.442  0.3033 -0.1623  0.1481
22101W        W37995  18.583   6.951  10.785  0.1077 -0.1364  0.1362
22102W        W37996   2.062   1.392   1.677 -0.2558  0.2290 -0.2152
22103W        W37997  16.208  12.057   4.025 -0.2197 -0.1363  0.0785
22104W        W37998   2.858   2.044  15.043  0.1908  0.4215  0.1001
22105W        W37999   9.824  16.405   1.785  0.0054  0.1814  0.3541
22106W        W38000   8.959   7.018   2.544 -0.0448 -0.0643  0.0886
22107W        W38001   8.220  16.007  11.647  0.1499 -0.0028  0.0276
22108W        W38002   3.333  17.625  11.816  0.0263 -0.1301  0.3100
22109W        W38003   7.217  16.260  10.509 -0.0775  0.0239 -0.2469
22110W        W38004   8.841   9.218   9.043  0.0383  0.2630  0.0364
22111W        W38005   6.426  10.917  12.486  0.1092  0.1182 -0.5488
22112W        W38006   7.677  16.143   1.011  0.2337  0.1369  0.0089
22113W        W38007  16.200   8.775   4.324  0.3924 -0.1967 -0.1215
22114W        W38008  14.857  11.502  13.938 -0.0566  0.0824  0.1695
22115W        W38009  17.942  10.383   4.141  0.0806  0.3089 -0.1210
22116W        W38010  10.477   9.528  10.970 -0.1439 -0.0336 -0.3184
22117W        W38011  16.847  16.994   3.717  0.0438 -0.2146  0.0178
22118W        W38012  14.267   1.842   1.888  0.3026  0.3481 -0.0901
22119W        W38013  14.868   0.177  10.775  0.1681 -0.3680 -0.0407
22120W        W38014  18.591   0.976  12.700 -0.1830 -0.2921 -0.2252
22121W        W38015   9.941  18.494   4.431  0.2398 -0.2197  0.0089
22122W        W38016   1.582   2.611   4.725  0.3561  0.0156  0.1507
22123W        W38017   1.167  15.740   0.898  0.2970 -0.0213 -0.4507
22124W        W38018   3.051   5.136   2.156 -0.0798  0.1370  0.0044
22125W        W38019  12.266   1.216   3.242  0.3270 -0.3174  0.1206
22126W        W38020   2.255  10.124  10.619 -0.2651 -0.1567  0.1726
22127W        W38021  11.996   5.245   0.052 -0.0665  0.1032 -0.0333
22128W        W38022  15.925  18.241  11.950  0.0529 -0.2830 -0.0254
22129W        W38023  11.274   2.392   3.526  0.1367  0.0743 -0.1655
22130W        W38024  18.735   9.444  11.015 -0.1696 -0.3428 -0.1985
22131W        W38025   8.630   8.169   0.346 -0.2166 -0.1305  0.5553
22132W        W38026   5.928   4.909   4.036 -0.0550 -0.0981 -0.4247
22133W        W38027  12.610   5.641   1.552 -0.2941 -0.1188  0.1455
22134W        W38028  18.387   7.201   4.052  0.1381  0.2589  0.1242
22135W        W38029   5.028   6.760  14.303  0.0022  0.3012  0.0350
22136W        W38030  15.821   3.596  13.959  0.1708 -0.1249 -0.0409
22137W        W38031   9.559  17.054  14.115  0.2508 -0.1775 -0.1808
22138W        W38032  10.317   9.277  10.389 -0.2046  0.5516  0.0594
22139W        W38033  12.071   5.826   1.481 -0.1098 -0.2333 -0.1277
22140W        W38034  16.265  11.554   4.237  0.3948 -0.0901  0.0701
22141W        W38035   5.601  11.557  13.336 -0.0625  0.0310 -0.3144
22142W        W38036   3.845   5.590   1.006  0.1543  0.1682 -0.0748
22143W        W38037   5.003  10.819  14.315 -0.1464  0.0184  0.2331
22144W        W38038   0.419  13.193   0.764 -0.2117 -0.1944  0.1025
22145W        W38039   1.291   7.116  12.380 -0.2385  0.0619  0.2915
22146W        W38040  12.977  16.520  12.830  0.1042 -0.4459 -0.0097
22147W        W38041   2.268   9.547  12.344  0.1748 -0.1430  0.1402
22148W        W38042  12.705  15.350  11.699 -0.1137  0.1298 -0.0445
22149W        W38043  12.717  13.065  14.041  0.1459 -0.1879  0.2081
22150W        W38044  12.756   0.602  14.127  0.1516 -0.1895 -0.3085
22151W        W38045   9.399  13.529   2.100 -0.0734  0.2749  0.3611
22152W        W38046  13.524  13.399   4.360 -0.0907  0.0727 -0.0465
22153W        W38047   3.179  13.883   1.631  0.1089 -0.1358  0.1836
22154W        W38048   1.973   2.690  13.642 -0.5953 -0.2659 -0.3990
22155W        W38049   4.973  17.371   2.037  0.0118 -0.1047  0.1328
22156W        W38050   1.056   6.252   0.733  0.2022 -0.0343 -0.0747
22157W        W38051  17.780   8.390  14.100  0.0125 -0.1843  0.1086
22158W        W38052  12.112   8.812   3.531  0.1089  0.0444  0.2030
22159W        W38053   1.365  13.407   4.885  0.0384  0.2733  0.1189
22160W        W38054   2.333  12.655  11.649  0.4424 -0.1116  0.0008
22161W        W38055   9.425   1.437  11.864  0.2188 -0.0446  0.1241
22162W        W38056   4.102   6.052   3.620 -0.2166 -0.4003 -0.1022
22163W        W38057   4.977   9.279  13.573  0.2120 -0.4097  0.4671
22164W        W38058  15.676   1.814   3.072  0.0061  0.1557 -0.1509
22165W        W38059   0.329   0.745  13.598 -0.2733  0.2655 -0.1664
22166W        W38060   4.175  14.161  13.427 -0.1479 -0.1486 -0.2848
22167W        W38061  15.837   6.166  11.031 -0.1050 -0.1218  0.1301
22168W        W38062  12.123   0.631   0.563  0.2373  0.0577 -0.0410
22169W        W38063  11.753  13.596   0.785  0.0274 -0.0567 -0.4017
22170W        W38064  10.310   5.474  14.058 -0.0203  0.0755 -0.1872
22171W        W38065  15.456  11.133   0.503  0.0321 -0.1171  0.2615
22172W        W38066  15.545  18.324  12.887  0.2246  0.0249 -0.2151
22173W        W38067   4.768  14.903  10.844  0.1315  0.0242  0.0010
22174W        W38068   3.729  19.087  14.313  0.0176  0.1590  0.1339
22175W        W38069   6.646   3.247   3.798 -0.0763  0.0456 -0.0533
22176W        W38070   8.888  19.048   2.280  0.1441 -0.2146 -0.4507
22177W        W38071  15.810   1.951   3.640 -0.0007 -0.1237  0.0044
22178W        W38072  10.668   3.475   1.189  0.2038  0.0922 -0.2931
22179W        W38073   3.641   7.052   1.147  0.1649  0.2722  0.1148
22180W        W38074   6.121  17.865  12.800  0.1916  0.2371 -0.1307
22181W        W38075  16.424   8.028  12.753  0.3976  0.0408 -0.1625
22182W        W38076  15.849  18.892   3.113 -0.1140 -0.0042  0.2306
22183W        W38077   8.619  16.847  11.550  0.0897 -0.1407 -0.4021
22184W        W38078  16.616  10.286  14.433 -0.0102  0.1214  0.0855
22185W        W38079   7.335  17.093   1.983  0.0073  0.4900 -0.2511
22186W        W38080   5.782   3.789   5.171  0.3701  0.0416 -0.0917
22187W        W38081  17.968   0.646   5.051  0.1605  0.3740  0.2195
22188W        W38082  13.866  18.192  13.184  0.1211  0.4253  0.1151
22189W        W38083  18.536   8.763   5.765 -0.1619  0.1263 -0.1387
22190W        W38084   1.161   3.300  11.630  0.0659 -0.0931 -0.2006
22191W        W38085  11.892   2.671  14.429  0.1337  0.0959 -0.1685
22192W        W38086   9.051  17.871   1.196  0.1465  0.2898  0.0549
22193W        W38087  15.401  16.661  13.709  0.1590 -0.0914 -0.0122
22194W        W38088  11.738   3.127  14.352 -0.0184 -0.0269 -0.4598
22195W        W38089  15.280  18.246   4.173  0.1476  0.0774  0.0616
22196W        W38090   5.593   8.481   0.194  0.1002 -0.0195  0.2729
22197W        W38091  16.744   1.742  11.781  0.2192 -0.1074  0.2773
22198W        W38092  16.621  14.264   5.151 -0.1830 -0.1350 -0.2348
22199W        W38093  15.451  17.253  11.314 -0.3899 -0.1665  0.1198
22200W        W38094  13.268   3.798   2.434  0.1984  0.2327  0.0084
22201W        W38095   0.415   8.886   1.671 -0.3730 -0.2454 -0.1449
22202W        W38096  16.448   0.935  11.308  0.3109  0.0418  0.2509
22203W        W38097   3.656  10.011  11.351  0.1665  0.2308 -0.0330
22204W        W38098  15.083   8.451   0.924  0.2966 -0.2871 -0.4464
22205W        W38099  10.854  17.054  14.455  0.0384  0.1763 -0.0021
22206W        W38100  17.525   9.793  11.068  0.0165  0.0585 -0.0796
22207W        W38101   0.557   3.295   5.484 -0.3435 -0.0549 -0.1032
22208W        W38102   8.627   4.772  11.562 -0.0128  0.5609 -0.1152
22209W        W38103   6.025   1.062   0.296  0.3354  0.3357 -0.2523
22210W        W38104  17.349   9.718   5.043 -0.4360  0.0635 -0.0724
22211W        W38105   1.498  14.514   3.988 -0.0465 -0.1283 -0.2005
22212W        W38106  16.865  14.463   0.259 -0.0656 -0.0263 -0.0430
22213W        W38107  15.513  14.639   0.067  0.0276 -0.0775 -0.1174
22214W        W38108   6.681   9.540   0.718  0.1887 -0.0287  0.5501
22215W        W38109   7.004  11.112  11.526 -0.1702  0.2325  0.2251
22216W        W38110  18.920  12.478   4.134 -0.2382 -0.1360 -0.1348
22217W        W38111  18.720  17.524  10.928 -0.1763 -0.1412 -0.2061
22218W        W38112   0.476   1.718   9.597 -0.0675 -0.2277  0.0946
22219W        W38113   8.007  16.044  13.483 -0.2464 -0.3766  0.2582
22220W        W38114   7.326  12.960  11.465 -0.2136 -0.0306 -0.1566
22221W        W38115   3.603  12.656   3.521 -0.0211  0.0050 -0.4334
22222W        W38116   3.934   7.427   1.857  0.3206  0.0580 -0.0575
22223W        W38117  16.095  18.652  10.398 -0.1169 -0.1566 -0.2081
22224W        W38118  15.669  19.001   0.058 -0.0984 -0.0665 -0.2889
22225W        W38119   8.057   3.052   3.282  0.2173  0.0498 -0.1905
22226W        W38120  13.231  18.873   4.027 -0.0593  0.1394  0.2448
22227W        W38121   3.667   7.687   9.739 -0.3665  0.2590  0.2364
22228W        W38122   1.999  18.752   2.965  0.2927 -0.0892  0.0280
22229W        W38123   3.941  17.192  13.000 -0.0514 -0.0291 -0.2906
22230W        W38124  16.321   9.048  13.060 -0.0985  0.4688  0.2894
22231W        W38125   5.995   5.020  11.918  0.1024 -0.1491 -0.0830
22232W        W38126  12.144   1.619  13.557 -0.2646  0.1297 -0.0229
22233W        W38127  18.696  17.605  14.504  0.0764 -0.1900 -0.1842
22234W        W38128   1.667  15.212  10.983 -0.0734 -0.2567  0.0085
22235W        W38129   6.185  14.356   0.042 -0.1914  0.0210  0.0972
22236W        W38130  12.084  17.821  12.338 -0.2865  0.1250  0.0809
22237W        W38131   2.009  10.745   3.728 -0.1070  0.0193 -0.2170
22238W        W38132   4.457   5.565   2.239  0.0550  0.0358  0.2080
22239W        W38133  12.918   8.495  10.611 -0.0712 -0.0160  0.2254
22240W        W38134  17.215  10.409  12.045  0.1223  0.0686 -0.0500
22241W        W38135  16.245  12.268   1.997 -0.1175 -0.0806  0.0349
22242W        W38136  10.963  10.340  13.804  0.0676 -0.0817 -0.1927
22243W        W38137   2.875  17.080  10.451 -0.0483  0.0270  0.0261
22244W        W38138  11.371  16.905   1.285  0.1060 -0.4228 -0.0799
22245W        W38139  15.663   8.895   2.283 -0.3502 -0.1243 -0.0969
22246W        W38140   9.442  16.985   4.916 -0.2248  0.2386 -0.2723
22247W        W38141   7.999   3.825   5.241  0.0639  0.0847  0.1528
22248W        W38142   9.607  10.628   3.275  0.3216 -0.0439 -0.0498
22249W        W38143  14.006   9.680   4.246  0.1611 -0.1970  0.1340
22250W        W38144   3.910   0.368   3.363 -0.1612 -0.3057  0.1061
22251W        W38145   4.319   4.344   2.904 -0.2249  0.2327  0.0781
22252W        W38146  17.542  19.203  14.988 -0.4453  0.1740  0.2724
22253W        W38147   4.698  14.028   5.022 -0.0460  0.0198  0.2085
22254W        W38148   6.799  15.533   3.914  0.1291  0.1096 -0.1519
22255W        W38149  11.195   7.253  10.871 -0.0225  0.1788 -0.3993
22256W        W38150   0.128  10.808  10.397 -0.0453 -0.2362 -0.4778
22257W        W38151  12.523  11.274   4.273  0.3497  0.4009 -0.1644
22258W        W38152  17.820  11.251  10.999 -0.1315  0.2816  0.2867
22259W        W38153   1.209  19.011   4.562 -0.3654  0.0867 -0.3388
22260W        W38154  10.380   9.594  11.588  0.1278 -0.0906  0.3013
22261W        W38155  11.092  11.549  13.809 -0.0256  0.2326 -0.0047
22262W        W38156   1.950  10.250   4.922 -0.0327 -0.1054  0.2806
22263W        W38157  10.503   3.723   2.888 -0.1298 -0.1211  0.3304
22264W        W38158  10.063   4.234   4.206  0.1843 -0.2955 -0.1227
22265W        W38159   0.725   1.236   9.843  0.0198  0.0627  0.5332
22266W        W38160  18.801  15.121   1.023 -0.1822  0.1032 -0.2552
22267W        W38161  11.709  14.298   2.557 -0.0474 -0.1119  0.0961
22268W        W38162   5.200  18.089   4.733  0.2893  0.0441 -0.1118
22269W        W38163  15.798   5.535  12.188 -0.1179 -0.2285  0.3711
22270W        W38164   3.953  14.770   3.591  0.0317 -0.0955 -0.0269
22271W        W38165   4.232   8.762   0.390  0.2510  0.3181 -0.0309
22272W        W38166  13.815  13.764   2.597  0.0266 -0.1305  0.1841
22273W        W38167   3.126  10.807  14.554  0.4398  0.1799  0.4377
22274W        W38168   8.487  17.986   1.804  0.3276  0.2073 -0.2831
22275W        W38169  11.711   8.929   3.817  0.1711 -0.1519 -0.2623
22276W        W38170   3.279   8.386   3.719 -0.2319  0.1658 -0.2502
22277W        W38171  16.892  17.346   4.619  0.0996 -0.0769 -0.4063
22278W        W38172   8.148  14.130   1.956 -0.0513 -0.1320 -0.0930
22279W        W38173   9.183  13.256   1.640  0.2458  0.0865  0.2410
22280W        W38174   4.723  18.066  11.017 -0.1503 -0.1479  0.0828
22281W        W38175  10.127   5.954  12.816 -0.1974  0.2793  0.1271
22282W        W38176   8.244  15.987  14.582  0.4249 -0.0035 -0.0678
22283W        W38177  10.350  18.583   1.179  0.0981 -0.1844  0.3573
22284W        W38178  18.106   1.010   5.404 -0.1462 -0.2604  0.2226
22285W        W38179  12.726   3.520  14.205  0.0123 -0.1389  0.2168
22286W        W38180  11.447  17.265   3.560  0.2442 -0.1002  0.2439
22287W        W38181   2.954  10.206   4.793  0.1796 -0.3468  0.1158
22288W        W38182   1.635  12.757  11.047 -0.1701 -0.1655  0.0678
22289W        W38183   8.169  16.214   3.617  0.2983  0.0188 -0.4068
22290W        W38184  15.719  17.357   5.812 -0.2071  0.0797  0.1470
22291W        W38185  13.882   3.547   9.299  0.0607  0.3390 -0.0764
22292W        W38186   8.767   3.880  12.468  0.1967  0.3026 -0.0415
22293W        W38187   4.934  14.341   2.905 -0.1280  0.1154 -0.1804
22294W        W38188  11.305   0.077  12.442 -0.1630 -0.1245  0.0357
22295W        W38189   3.506  17.908  12.725 -0.2330 -0.3725 -0.2483
22296W        W38190   5.690  10.412   0.982  0.0495 -0.2826 -0.1118
22297W        W38191   6.821  12.211  10.792  0.0916  0.1615  0.1645
22298W        W38192   9.943   1.824  12.898 -0.0146 -0.2000  0.0396
22299W        W38193   6.461   0.247   4.231 -0.1889  0.1147 -0.2946
22300W        W38194   2.350  13.313  11.790 -0.0525  0.0798  0.1764
22301W        W38195   7.001   5.447  13.794 -0.3462  0.0336  0.2161
22302W        W38196  17.666  19.163  10.570 -0.2207  0.1853  0.4065
22303W        W38197  12.974   1.287   3.522  0.0653  0.2448 -0.2848
22304W        W38198   4.747   7.909  14.968 -0.2150 -0.0318 -0.2120
22305W        W38199   5.574   6.033   1.844 -0.1752 -0.3322  0.1515
22306W        W38200   1.024  11.593  13.867  0.1305  0.3054 -0.1064
22307W        W38201   1.819   5.316  13.046 -0.3416  0.2414 -0.3615
22308W        W38202   9.526  10.323   0.598  0.2581 -0.1956  0.3375
22309W        W38203   2.220  14.030   4.290  0.0093 -0.0852 -0.1666
22310W        W38204   0.900   6.221  10.425 -0.1313  0.3142  0.1409
22311W        W38205   5.665  17.214  12.128 -0.1259 -0.0207 -0.0079
22312W        W38206  14.088  13.699   0.197 -0.0324 -0.3195  0.0363
22313W        W38207   2.014   1.107  12.938  0.0001 -0.0445  0.1661
22314W        W38208  11.612   2.774   1.141  0.4083 -0.0218  0.0012
22315W        W38209  17.623   8.631  10.551 -0.2507  0.1013  0.0424
22316W        W38210  15.345  15.621  14.612  0.1390 -0.2200 -0.1482
22317W        W38211   2.837  15.036  12.122 -0.2761 -0.1410  0.1005
22318W        W38212   4.331   0.298   4.107  0.1010 -0.1368  0.2397
22319W        W38213   2.882  16.118   1.257 -0.0126 -0.1792  0.1483
22320W        W38214  17.265  17.839  14.542  0.2753 -0.0117  0.0690
22321W        W38215   0.743  15.894  11.492 -0.1232  0.0176  0.2639
22322W        W38216  18.510  16.387  13.474 -0.1837 -0.0575 -0.0989
22323W        W38217   6.605  12.633  10.284 -0.2790 -0.1784 -0.0360
22324W        W38218  11.035  14.071   1.697 -0.2746 -0.1015 -0.2110
22325W        W38219  16.428  16.107   4.004  0.1003  0.4166  0.1336
22326W        W38220  11.399  16.993  15.037 -0.3466  0.2651 -0.3180
22327W        W38221   9.206   6.785  14.150  0.0754 -0.1326  0.1697
22328W        W38222   0.266  11.936  11.612 -0.0226 -0.1727 -0.1015
22329W        W38223  12.654   9.439   4.630  0.4764  0.0509  0.2078
22330W        W38224  12.128  17.476   1.850  0.3550 -0.3559 -0.2907
22331W        W38225  12.535  10.327  12.603  0.0940 -0.5060 -0.0199
22332W        W38226  18.643  14.176  14.731  0.0528  0.1093 -0.3069
22333W        W38227  13.027   6.074  13.282 -0.0665  0.1859  0.0723
22334W        W38228  14.595  17.181  10.964  0.1893 -0.0501  0.4328
22335W        W38229   2.452   8.821   5.299 -0.1579 -0.0409 -0.0371
22336W        W38230   4.592  14.975  13.002  0.0821  0.1086  0.1303
22337W        W38231  15.330   7.481  14.908 -0.1967 -0.2434 -0.1644
22338W        W38232   7.713   3.704   2.543 -0.0786 -0.1340  0.4286
22339W        W38233   2.135  11.785  10.904  0.1299  0.3607  0.3759
22340W        W38234   0.320   7.734   1.023  0.1230 -0.0320  0.3356
22341W        W38235  19.084  13.142  13.429 -0.2866 -0.0575  0.0187
22342W        W38236   5.918  13.214   2.556  0.0625  0.1669  0.0255
22343W        W38237  12.638  16.557  13.238  0.1047 -0.1774  0.0178
22344W        W38238  14.499   6.337  14.448 -0.0346  0.1255  0.2853
22345W        W38239   7.282  16.447  14.638 -0.1065 -0.1275  0.0452
22346W        W38240  14.541   7.914   3.442 -0.0462 -0.1545  0.0703
22347W        W38241   4.663   0.332  12.641  0.0152 -0.2195  0.1935
22348W        W38242   6.931  13.939  13.033 -0.0605 -0.1298 -0.0448
22349W        W38243  10.726   9.471   0.232 -0.2079 -0.2655 -0.1299
22350W        W38244   1.911   4.255   0.923  0.6322  0.1021  0.1571
22351W        W38245   9.928   9.269   2.223 -0.5231 -0.5147 -0.0473
22352W        W38246   1.727   7.473   2.841  0.1600  0.0581 -0.0374
22353W        W38247   5.782   8.712   2.454  0.0805  0.0193 -0.0470
22354W        W38248   0.366  16.909  11.442 -0.0200 -0.1123  0.0015
22355W        W38249   2.003   1.790  10.938  0.0791 -0.2513 -0.1151
22356W        W38250   6.177  12.451  12.148  0.1384  0.1858  0.3713
22357W        W38251   9.421  10.592   4.477 -0.3214  0.1876  0.1475
22358W        W38252   5.033   3.414  14.829  0.0905  0.0606 -0.2786
22359W        W38253  15.049   4.426  14.721 -0.0671 -0.2467 -0.3061
22360W        W38254   1.967   5.806   4.287 -0.1012 -0.1550 -0.2378
22361W        W38255  12.428   0.802  12.071  0.0150  0.3082 -0.1728
22362W        W38256   4.337   4.121  13.179 -0.1349  0.0230  0.1135
22363W        W38257  17.273  16.901  13.791 -0.0858  0.1505 -0.0535
22364W        W38258  10.112  12.873   4.697  0.2418 -0.2139  0.1328
22365W        W38259  17.233  13.007   0.339  0.1630  0.1869  0.0567
22366W        W38260  19.194   8.815  13.840  0.0580  0.5050 -0.0329
22367W        W38261   6.164  18.855  11.968  0.0841 -0.2780  0.1288
22368W        W38262   4.370   4.227   1.214 -0.0090 -0.2501  0.3254
22369W        W38263  14.142  17.506   0.885 -0.0457 -0.2628 -0.0968
22370W        W38264  16.219   6.311  11.739 -0.0608  0.0593  0.2610
22371W        W38265   4.502   7.625  11.711  0.2185 -0.2756 -0.1253
22372W        W38266  11.546   9.720   4.235 -0.3290  0.0491 -0.1705
22373W        W38267   4.623   5.996   4.281  0.0185 -0.3514  0.3326
22374W        W38268  19.129   2.790   5.316 -0.0607 -0.0230 -0.1163
22375W        W38269  18.871  13.918   3.248  0.2609  0.0624 -0.0667
22376W        W38270   6.036  16.440  11.008 -0.3138  0.1058  0.0348
22377W        W38271   8.081  11.220   2.726 -0.0479 -0.1742 -0.4705
22378W        W38272   1.823  16.632  13.968  0.1581  0.0810 -0.2738
22379W        W38273  10.879   4.027  12.131 -0.1351 -0.0920 -0.1098
22380W        W38274   8.637  19.126  13.852  0.0097  0.0446  0.2575
22381W        W38275   0.463  10.468  13.314  0.0268  0.1012 -0.1383
22382W        W38276  17.684   2.327   3.231 -0.0449  0.1608  0.2694
22383W        W38277  11.902   5.319  13.427  0.2535 -0.0670  0.3056
22384W        W38278  17.673  10.027   3.458 -0.0826  0.1128 -0.1820
22385W        W38279   3.883   7.009  10.326  0.0325 -0.1449 -0.0962
22386W        W38280   3.461  14.773   3.466  0.1756 -0.0050 -0.0828
22387W        W38281   9.415  18.079  11.339 -0.0013 -0.1060 -0.3648
22388W        W38282   4.431   7.481   3.927  0.0932 -0.1658  0.3778
22389W        W38283  15.062   0.911   0.288 -0.1234  0.2029  0.0318
22390W        W38284  16.627  11.261   0.413 -0.0017  0.1846  0.1204
22391W        W38285   5.273  13.550   3.866 -0.3315  0.0751  0.0437
22392W        W38286   9.642   4.496  12.562  0.0843 -0.0833 -0.1074
22393W        W38287   5.201  16.473   4.418  0.1320 -0.1358 -0.4169
22394W        W38288   5.354  10.505  13.989 -0.0666 -0.1266 -0.1840
22395W        W38289   1.781  11.393  11.202 -0.0411  0.1364  0.0536
22396W        W38290  15.534  18.091  14.634 -0.2132 -0.0257  0.2817
22397W        W38291  18.846   5.445   4.367  0.0632  0.0609  0.2226
22398W        W38292  16.507  10.245  10.948 -0.1075 -0.0844  0.1184
22399W        W38293   7.580   5.171  14.000 -0.1062  0.2175 -0.2581
22400W        W38294   6.641   5.423  12.315  0.1708  0.0653 -0.2274
22401W        W38295  10.961   8.122   3.705  0.2221 -0.2739  0.0827
22402W        W38296  12.975   0.366   3.966 -0.0069  0.3526 -0.1720
22403W        W38297  17.483   7.251  15.014  0.1520  0.3816  0.0650
22404W        W38298  14.735  14.559   1.699  0.2145  0.1572 -0.2363
22405W        W38299  11.075  12.097  13.963 -0.1304 -0.1914  0.2114
22406W        W38300  17.543  17.864  11.042  0.1155 -0.1966  0.2147
22407W        W38301   3.856   1.715  14.547 -0.2360 -0.0623  0.3784
22408W        W38302  19.139  13.476   0.468  0.1802 -0.1884 -0.1367
22409W        W38303  15.397   2.218  14.224 -0.0829 -0.0663  0.4015
22410W        W38304  14.380  12.928  14.051  0.2794 -0.1269  0.0171
22411W        W38305   1.566  18.496   1.293  0.3178 -0.1764  0.1010
22412W        W38306   4.741  12.328   0.668  0.2209  0.2055 -0.1202
22413W        W38307   5.779   5.594   2.112 -0.2117 -0.1356 -0.1990
22414W        W38308  12.861  19.107  12.845  0.1181  0.4175  0.0630
22415W        W38309   3.164   2.764  12.120 -0.2248 -0.3142  0.3819
22416W        W38310   9.426  15.117  11.570 -0.1504 -0.1918 -0.0769
22417W        W38311   8.071   5.520  11.148 -0.0918 -0.2376 -0.2049
22418W        W38312   6.567   8.632  12.703 -0.0735  0.4143  0.2269
22419W        W38313   9.816  13.803  14.086 -0.1308  0.1495 -0.0945
22420W        W38314   6.627  12.610   0.350  0.0461 -0.1678  0.0888
22421W        W38315   3.148  11.884  10.947  0.1564 -0.2867 -0.1276
22422W        W38316  16.124   1.306   0.611 -0.0180 -0.0700 -0.2717
22423W        W38317  11.410   9.112   2.324 -0.1773  0.2875 -0.1276
22424W        W38318  16.750   5.389  11.236 -0.3704 -0.0510 -0.1307
22425W        W38319  12.902  19.052  11.840 -0.2209  0.5253  0.0288
22426W        W38320  12.621  10.497   0.352  0.2410  0.1502  0.2216
22427W        W38321  14.851   3.740   2.413  0.0608  0.0283 -0.0741
22428W        W38322   2.620  10.736   1.156  0.0213  0.0665 -0.0052
22429W        W38323   5.184   1.115   0.192 -0.0150 -0.5421 -0.1493
22430W        W38324   0.000  16.639  14.510  0.0999 -0.3819 -0.1651
22431W        W38325   7.011  12.721  10.010  0.2455  0.1988 -0.2090
22432W        W38326   6.467  10.696   0.189 -0.1287 -0.0608  0.0922
22433W        W38327  16.623  16.319  13.977  0.2478 -0.0104 -0.0480
22434W        W38328  11.726   5.901   4.332 -0.1831 -0.1619 -0.3341
22435W        W38329  11.708  15.031  14.334  0.1359 -0.0415 -0.2604
22436W        W38330  12.102   1.598  12.370 -0.0916  0.2786 -0.0781
22437W        W38331  19.153   2.712  14.480  0.0246  0.2494 -0.1251
22438W        W38332   8.352  19.002  14.259 -0.1932  0.1830  0.0361
22439W        W38333  17.208  16.182   0.044  0.1091 -0.1567  0.0486
22440W        W38334  11.235  16.747  14.633  0.1300 -0.1807  0.2460
22441W        W38335  12.563  17.670  12.218  0.1163 -0.1293  0.3037
22442W        W38336   6.833   4.355   4.736 -0.1852 -0.0246  0.1468
22443W        W38337   6.444  13.780   0.318  0.2227 -0.1450  0.1230
22444W        W38338   0.461  11.712   1.473  0.0356 -0.1683 -0.0139
22445W        W38339   5.052  17.724  12.782  0.2543 -0.0740  0.5349
22446W        W38340  16.993   0.059  14.796 -0.0229  0.0989  0.0594
22447W        W38341  15.854   2.506  10.595  0.2036  0.1953  0.2394
22448W        W38342  13.821  18.583  11.575 -0.0247 -0.5009  0.0457
22449W        W38343   6.539   0.841   0.319  0.4193  0.0677 -0.2293
22450W        W38344  18.685   5.328   3.870 -0.0854 -0.1035 -0.0023
22451W        W38345   6.121   4.450  12.976  0.0574  0.3196  0.1445
22452W        W38346   4.259  13.845  14.613 -0.2547 -0.2131 -0.4394
22453W        W38347   9.663  17.798  10.063 -0.2276 -0.3014 -0.0327
22454W        W38348  14.330   1.758  10.749 -0.2513 -0.1984  0.0807
22455W        W38349   3.747  11.109  14.347 -0.0842  0.1872  0.3581
22456W        W38350  16.540  15.002   1.785  0.1239 -0.0246  0.2328
22457W        W38351   9.596   0.017  13.884 -0.2371  0.2474 -0.0047
22458W        W38352   8.779  17.530  10.310  0.4006  0.0321 -0.2499
22459W        W38353  13.152  14.939   0.891 -0.1628  0.0751 -0.6258
22460W        W38354   9.252  15.997   3.246 -0.1591  0.0681 -0.1894
22461W        W38355  10.350  13.524  12.931 -0.2257 -0.0602  0.2911
22462W        W38356   3.505  11.065   1.945  0.1137  0.2963  0.1027
22463W        W38357  17.699   7.845  13.488 -0.1059 -0.0054  0.3634
22464W        W38358  12.132   2.728   4.847 -0.1138  0.1674 -0.1119
22465W        W38359  12.557  12.213   0.240  0.2125  0.1262 -0.3889
22466W        W38360   4.284  11.476  13.471  0.1159 -0.1844 -0.0099
22467W        W38361   9.715   5.856  12.114  0.2501 -0.2282 -0.2779
22468W        W38362  16.383   8.663   3.173  0.3085 -0.1575  0.0456
22469W        W38363   4.640   1.174  10.718  0.0496  0.0592 -0.0599
22470W        W38364   7.858  11.835  12.668 -0.0929 -0.2512 -0.1555
22471W        W38365   2.176  14.667   0.822 -0.1034 -0.3847 -0.4497
22472W        W38366  18.422  17.991  14.615  0.0930 -0.0917  0.0305
22473W        W38367   9.506   8.749  10.945  0.0342  0.2790 -0.2036
22474W        W38368   6.433   1.696   0.759 -0.2206 -0.1485 -0.0234
22475W        W38369  12.689   5.130  14.196 -0.0006  0.2699 -0.0623
22476W        W38370  11.097   3.553   4.558 -0.2107  0.0276 -0.0095
22477W        W38371  12.153  14.137   0.772 -0.3523  0.1797  0.0412
22478W        W38372   3.988  17.964   0.090 -0.0630 -0.0830 -0.1131
22479W        W38373   9.724   1.502   2.950  0.2605 -0.0338 -0.0888
22480W        W38374   8.993  13.711  10.250  0.1068 -0.0938  0.2672
22481W        W38375  16.614   2.970  11.509  0.2446 -0.2196 -0.0643
22482W        W38376  12.060  14.096  11.577 -0.2561  0.1171  0.0358
22483W        W38377  14.025   8.010  12.129 -0.1336  0.1862  0.1731
22484W        W38378  11.299   3.372   4.028  0.3013  0.0847 -0.2806
22485W        W38379   6.090   3.753  12.186  0.0922  0.0667 -0.2548
22486W        W38380  11.515   3.974  10.064 -0.1287  0.2548  0.0522
22487W        W38381   5.745   8.720   3.513  0.3010  0.1445 -0.3446
22488W        W38382   6.438   6.010   0.963  0.0180  0.0542  0.0220
22489W        W38383  12.235  14.994  12.438  0.0727 -0.2964 -0.1248
22490W        W38384  18.422   2.532   2.201 -0.0552 -0.2547 -0.0673
22491W        W38385  16.882  16.452   2.951  0.0148  0.2215  0.1104
22492W        W38386   7.702  17.710  14.435 -0.1730  0.2680  0.3429
22493W        W38387  18.385   4.983   2.455 -0.2071 -0.2972 -0.4044
22494W        W38388   8.036   1.610  14.613 -0.2069  0.0916  0.1889
22495W        W38389   2.131   8.353  10.850 -0.0200  0.1193  0.1489
22496W        W38390  11.324  14.222  14.824 -0.0101  0.2131 -0.2201
22497W        W38391   7.584   4.087   5.241 -0.0095  0.4608  0.0615
22498W        W38392  15.186  14.050  12.447 -0.1216  0.0636 -0.1996
22499W        W38393  13.301   2.953   4.040  0.2336 -0.0296  0.0374
22500W        W38394   2.229  12.713   0.461  0.0795 -0.0122 -0.0884
22501W        W38395  10.094  11.470   0.280  0.1610  0.1983 -0.1046
22502W        W38396   2.890  13.205  11.059  0.2112  0.0252 -0.2778
22503W        W38397   5.275  12.774   1.766  0.2116  0.4401  0.0719
22504W        W38398  11.091  11.655  14.267 -0.1994  0.0894 -0.1857
22505W        W38399   6.621   4.814   0.257 -0.1311  0.0994  0.1129
22506W        W38400   5.665  13.016   2.969  0.1606 -0.1616 -0.0903
22507W        W38401  17.711  13.375  13.156 -0.0216 -0.1794  0.0016
22508W        W38402   9.223   6.074   3.736 -0.2915 -0.3087 -0.0351
22509W        W38403   2.269   1.056   3.714 -0.0331  0.1990  0.0270
22510W        W38404  18.253   4.569  14.067 -0.2888  0.2107  0.0236
22511W        W38405   4.474   4.799   0.646  0.0635  0.4082 -0.2792
22512W        W38406  10.030  12.587  12.909  0.1097 -0.2558  0.2584
22513W        W38407   1.805  15.110  14.175  0.4643  0.1158  0.0541
22514W        W38408   3.669  12.462  13.121  0.2667 -0.1379 -0.1559
22515W        W38409   4.944   8.526   2.768  0.1583  0.3714 -0.3604
22516W        W38410   4.458   6.246   4.642 -0.4327  0.0755 -0.1128
22517W        W38411  13.304   2.128   4.565 -0.1032 -0.1516 -0.1219
22518W        W38412   7.297   4.900   4.263 -0.2866 -0.0947 -0.2252
22519W        W38413   6.302   9.446  13.801 -0.2719  0.3485  0.1334
22520W        W38414  12.903   3.779   2.102 -0.3062 -0.1907  0.1842
22521W        W38415  12.888   5.769   0.485 -0.1435 -0.2230 -0.1036
22522W        W38416   3.952  18.543  15.077 -0.0033  0.0614 -0.1147
22523W        W38417   3.860   0.300  14.471  0.1251 -0.3415  0.2813
22524W        W38418   9.489  18.576  12.621  0.1474 -0.3631 -0.0650
22525W        W38419   3.781  12.867   9.878 -0.0629  0.0539 -0.0720
22526W        W38420   3.103   3.032   1.695 -0.0360  0.1301 -0.0301
22527W        W38421   7.062   3.137  12.483  0.5019  0.1198  0.0694
22528W        W38422  11.407  12.485  11.809 -0.1341  0.0539  0.1789
22529W        W38423   4.701   5.902  13.315 -0.0184  0.1265 -0.0844
22530W        W38424  15.166  14.106   9.809 -0.0712 -0.1985  0.1376
22531W        W38425   7.911  12.448   1.711 -0.1122  0.2578  0.0833
22532W        W38426   4.560   5.411   3.214  0.0176 -0.0116 -0.1268
22533W        W38427  18.848   3.431  12.733  0.1739 -0.1488  0.1684
22534W        W38428   2.572   5.041   5.026  0.3750  0.1273 -0.3173
22535W        W38429  14.072   9.806  13.034 -0.0317  0.1668 -0.0041
22536W        W38430  16.032  18.506   2.002  0.2647  0.2838  0.0674
22537W        W38431  12.728  15.767  12.101 -0.5802 -0.0233  0.0903
22538W        W38432   9.176   2.515  10.411 -0.0002 -0.1411 -0.0456
22539W        W38433  14.445  19.148  10.877  0.2310  0.0173  0.2742
22540W        W38434   3.697   8.937  11.418 -0.1095  0.3239  0.3313
22541W        W38435  17.838   8.992  14.870 -0.0073  0.1753 -0.0248
22542W        W38436  17.448   2.907   4.586 -0.3817  0.0370  0.0115
22543W        W38437   8.175   6.134  13.377 -0.3594  0.3108 -0.0147
22544W        W38438   5.356   7.401  11.851  0.5321  0.3440 -0.0370
22545W        W38439   5.333  16.181   2.471 -0.3397 -0.1204  0.0487
22546W        W38440  15.090  13.684   4.478 -0.1932 -0.2130  0.1129
22547W        W38441  15.540   4.083   0.577  0.0727  0.0316 -0.2219
22548W        W38442   1.706  17.275   0.557  0.1035 -0.1962 -0.3173
22549W        W38443   1.566   6.598  13.245 -0.4258  0.0587 -0.3049
22550W        W38444  15.962   6.955   0.372 -0.3161  0.0607 -0.0203
22551W        W38445   9.831  11.251  12.222 -0.3027  0.1707  0.1110
22552W        W38446  16.154   9.757   1.236  0.0165  0.0415 -0.0685
22553W        W38447   0.848   7.594  13.230 -0.4077 -0.0092  0.0512
22554W        W38448   5.246   5.159  13.921  0.0935 -0.0289  0.1010
22555W        W38449  13.254  19.201  13.717 -0.1862 -0.1588  0.0474
22556W        W38450  18.297  11.445  13.035  0.1501 -0.1104 -0.0181
22557W        W38451  11.846  14.470  10.664 -0.0189  0.2032 -0.2420
22558W        W38452   1.609  18.846  14.845  0.0108 -0.0528  0.1524
22559W        W38453   9.142   5.547  11.496 -0.1499 -0.0356  0.0838
22560W        W38454  12.290  15.300   5.144 -0.0662 -0.0494  0.0658
22561W        W38455   2.711  13.015  14.180  0.0230 -0.1388 -0.5629
22562W        W38456   8.085   0.908  13.503  0.1908  0.2560  0.0159
22563W        W38457  10.980  16.332  12.487 -0.3725 -0.1604  0.0525
22564W        W38458  19.093  11.273  14.871  0.0458 -0.0355 -0.2264
22565W        W38459   8.905   9.142   1.682 -0.0165 -0.0436  0.2413
22566W        W38460   6.577  18.060  10.881 -0.4010  0.3128 -0.6339
22567W        W38461  16.092   2.604  13.448 -0.0519 -0.1527  0.0458
22568W        W38462   6.346  13.150  13.726 -0.2317 -0.1697 -0.0547
22569W        W38463   1.587   8.433  10.998  0.0077  0.1572  0.1910
22570W        W38464  16.058   9.553   3.204  0.0655  0.1633 -0.2731
22571W        W38465   7.435   9.357   4.601 -0.1411 -0.0403 -0.0576
22572W        W38466  11.254  16.179   1.428  0.0122 -0.0688 -0.1051
22573W        W38467  16.914  10.201  11.699 -0.0769  0.3378  0.2064
22574W        W38468  18.107  18.186  10.872 -0.3297 -0.1165  0.1958
22575W        W38469  17.087   3.485   0.393  0.1707 -0.0082 -0.2577
22576W        W38470  11.554   1.525  14.952  0.0526  0.1344  0.2807
22577W        W38471   8.215   0.177   9.587  0.1766  0.2376  0.0153
22578W        W38472   2.368  11.822   3.025 -0.2758  0.0770 -0.2300
22579W        W38473   7.754  17.484  13.804  0.1525  0.0153 -0.1741
22580W        W38474  17.223  15.387  10.748 -0.2314  0.0152 -0.1857
22581W        W38475   6.100   8.703   1.175 -0.0710  0.1023 -0.2707
22582W        W38476   5.408   0.629  10.295 -0.2946 -0.1912  0.2480
22583W        W38477   8.815   2.241  10.574  0.0609  0.0640 -0.0069
22584W        W38478   2.057  14.019  12.475  0.0157  0.0518 -0.2993
22585W        W38479   6.810   4.919  13.927 -0.0537  0.1655 -0.2875
22586W        W38480   5.243   7.852   4.176  0.0347 -0.1983 -0.1504
22587W        W38481   2.197  18.581  14.473 -0.0018 -0.2544 -0.1643
22588W        W38482  10.084   7.802   0.485 -0.1452 -0.1731  0.4438
22589W        W38483   2.348  10.593   9.412 -0.0104 -0.3274  0.2793
22590W        W38484   1.185  13.023  13.150 -0.0015  0.0481 -0.0237
22591W        W38485   5.559  10.741  13.445  0.0005 -0.1525 -0.0287
22592W        W38486  17.341   7.902   5.546  0.1752  0.2559 -0.3050
22593W        W38487   0.901  16.728  13.769  0.1333  0.3463  0.0937
22594W        W38488  18.952  10.267   4.613 -0.2923  0.0372  0.1578
22595W        W38489   4.637   1.701  12.793  0.3285 -0.0870 -0.0920
22596W        W38490  16.111  17.776  11.148  0.0064  0.0321  0.0522
22597W        W38491   9.886   0.565   5.309 -0.0598  0.2460  0.4681
22598W        W38492   9.093  14.240  14.393  0.2287  0.5357 -0.1368
22599W        W38493  12.296  15.982   3.091 -0.1318  0.0884 -0.0422
22600W        W38494  16.884   8.457  10.108 -0.0986 -0.2744  0.0934
22601W        W38495   0.368   7.028  11.319  0.0067  0.0990  0.0841
22602W        W38496   3.412   6.616   4.757  0.0408 -0.1373  0.2707
22603W        W38497   3.925  10.937  14.762  0.1682  0.1040 -0.0610
22604W        W38498  18.206  13.382  10.991 -0.0046  0.1477  0.0907
22605W        W38499  12.483   2.790  13.389  0.2451  0.0800 -0.1374
22606W        W38500  15.464  16.544  11.009 -0.1688 -0.1403  0.2328
22607W        W38501   6.688   1.250   4.271  0.1236 -0.0355  0.0849
22608W        W38502   1.111  17.522   2.125 -0.1088 -0.0818 -0.0554
22609W        W38503   7.505   2.630  13.840  0.2313 -0.0565 -0.0511
22610W        W38504   2.631   7.115   0.192 -0.0053 -0.5277  0.0043
22611W        W38505  16.281   2.715  10.073  0.1396  0.0283  0.1137
22612W        W38506   6.036   0.517   0.243  0.1002 -0.0192  0.2312
22613W        W38507   0.491   2.941   2.488 -0.1438 -0.0859  0.2828
22614W        W38508  10.344  15.140   1.876  0.1175 -0.1519  0.0770
22615W        W38509   2.353   7.052  13.255 -0.2463 -0.3869 -0.3673
22616W        W38510   2.322  18.192   1.274  0.1635  0.0526  0.2137
22617W        W38511  15.216  18.888   5.683  0.2167  0.0752 -0.3609
22618W        W38512   1.160  11.383  14.464 -0.3845 -0.2235  0.0085
22619W        W38513   7.600   6.436  12.645 -0.1063 -0.4470  0.2015
22620W        W38514  18.153   8.004  14.052 -0.0312 -0.0603  0.3452
22621W        W38515  18.670   3.935  11.825  0.2504  0.3975 -0.1623
22622W        W38516   9.043  13.700   4.014  0.4097 -0.1694 -0.0838
22623W        W38517   6.995  11.932   3.270  0.0483 -0.2860  0.3284
22624W        W38518   4.506  18.722  13.335  0.1767 -0.1560  0.0270
22625W        W38519  15.925  11.061  12.373 -0.0555 -0.0754 -0.2346
22626W        W38520  14.916   6.928  12.820  0.3350 -0.0061 -0.1566
22627W        W38521   9.971  16.388   4.294 -0.1982 -0.0622  0.0607
22628W        W38522   6.827   8.289  11.082 -0.0705  0.1458  0.4293
22629W        W38523   4.965   2.048   3.350 -0.1606 -0.2433 -0.3889
22630W        W38524  13.711  17.405   0.586  0.0071  0.0268  0.1362
22631W        W38525   2.379  16.963   3.227 -0.0740  0.0387  0.0919
22632W        W38526  15.240  10.810  11.741  0.3228  0.0801 -0.3077
22633W        W38527   7.579  13.269   1.865 -0.0294 -0.0299  0.2870
22634W        W38528  13.565   8.241  12.838  0.4935 -0.1742  0.2880
22635W        W38529  14.462   0.269  12.999  0.0314 -0.2104  0.0814
22636W        W38530  19.108   3.165   0.569  0.4084 -0.4550  0.0843
22637W        W38531  10.913  15.820  10.432 -0.1660  0.0420  0.1795
22638W        W38532   7.199  19.040  14.696 -0.3695 -0.1093 -0.0244
22639W        W38533  17.884  11.079  14.253 -0.1425 -0.0415  0.2674
22640W        W38534  15.238  14.516  11.678  0.2857  0.1161 -0.1661
22641W        W38535   4.249   8.538   1.636  0.0301  0.1465  0.0250
22642W        W38536  16.783  12.978   3.518  0.2658 -0.1733 -0.0485
22643W        W38537   1.559   6.592   3.726  0.1154 -0.1349 -0.0102
22644W        W38538   6.161   9.545   0.702 -0.3120  0.0810 -0.0425
22645W        W38539  14.511  17.204  12.807 -0.1188 -0.1177  0.2691
22646W        W38540  10.216  10.902   3.038 -0.1844  0.1455 -0.0453
22647W        W38541  17.039   1.973   4.882 -0.2157  0.2329  0.0550
22648W        W38542  15.375   5.039  10.888  0.1058  0.0514 -0.3211
22649W        W38543  11.461  18.279  10.764 -0.0302 -0.1716  0.2360
22650W        W38544   3.898   9.644   1.224  0.0801  0.0887 -0.0758
22651W        W38545  15.231   5.616  13.471  0.0342 -0.3369 -0.1596
22652W        W38546   5.501  11.530  13.833  0.1708  0.2077  0.1128
22653W        W38547  17.127   8.093   3.050  0.0016  0.4352  0.1222
22654W        W38548   3.816   4.130  13.633  0.1433 -0.4513 -0.1564
22655W        W38549   6.668  17.016  11.076 -0.2201  0.0375 -0.2634
22656W        W38550   3.053  14.306  12.267 -0.0935 -0.3053 -0.0832
22657W        W38551   8.221   4.588   0.207 -0.1318 -0.1167  0.0071
22658W        W38552  18.991  14.435   0.290  0.0076  0.3066  0.1086
22659W        W38553  17.817   0.615  11.512  0.0665  0.4380  0.1236
22660W        W38554   6.712   5.147  12.782  0.0632  0.1561 -0.0100
22661W        W38555  16.881   2.296  13.128  0.0635  0.0094 -0.0148
22662W        W38556   7.683   9.966  12.143 -0.2700  0.0781  0.1028
22663W        W38557  17.359  16.466   1.825  0.0492  0.2592 -0.0710
22664W        W38558  11.728   7.843   4.174  0.0359  0.0872  0.0607
22665W        W38559   9.394   3.822   5.313 -0.2384 -0.0359 -0.1272
22666W        W38560  10.615   9.830   9.653  0.1736  0.0140 -0.2038
22667W        W38561   5.998  11.167  12.602  0.0866  0.2509 -0.0305
22668W        W38562  16.115  16.326  14.273  0.1344 -0.3179  0.1472
22669W        W38563  15.837  12.657   3.711 -0.0561  0.0331  0.2008
22670W        W38564  18.333  12.207   1.335  0.0080 -0.0016  0.1134
22671W        W38565  12.816  15.340   5.401 -0.3224  0.3107  0.2209
22672W        W38566   0.323   4.537   1.833 -0.1272 -0.0220  0.2395
22673W        W38567  10.040  14.891   9.413  0.0073  0.0100 -0.3071
22674W        W38568   6.564  17.733   0.243  0.3370  0.0266 -0.0767
22675W        W38569  18.887   4.203   0.529 -0.1161 -0.0803  0.1019
22676W        W38570   5.277   8.307  11.997 -0.1300  0.0422  0.3845
22677W        W38571  16.767   5.018  10.906 -0.0001  0.1931  0.3272
22678W        W38572   2.021  16.767   3.502  0.1757  0.0326  0.0604
22679W        W38573   6.591   7.631  12.386  0.1268 -0.2051 -0.3295
22680W        W38574  18.164  16.013  14.892  0.2711 -0.0426  0.0208
22681W        W38575   2.812   3.861   6.273 -0.2745  0.3241  0.1396
22682W        W38576  13.643  12.626  14.749  0.1784  0.1453 -0.1986
22683W        W38577   3.568  16.339  11.542  0.0217  0.3555  0.1065
22684W        W38578   0.403  13.401   2.319  0.3173  0.1063 -0.2090
22685W        W38579   5.395  15.612   0.448  0.3795  0.1340  0.1248
22686W        W38580  14.130   7.467  10.892 -0.0418 -0.2654  0.1611
22687W        W38581   8.194   0.940   1.940  0.0260  0.1432  0.1601
22688W        W38582   8.852   8.684   3.604  0.1709  0.1653  0.2416
22689W        W38583   1.143  16.725   1.965 -0.0685 -0.2164  0.0810
22690W        W38584  10.469   8.358  14.863  0.4036  0.0337 -0.1516
22691W        W38585   0.981   4.194  13.065  0.3982 -0.1882 -0.3946
22692W        W38586   0.860   1.477  14.155  0.0370 -0.1954 -0.0532
22693W        W38587   0.776   2.776  10.341  0.4226  0.0397 -0.1610
22694W        W38588   6.621  19.142   1.018 -0.2822 -0.0396  0.4401
22695W        W38589   3.188  14.619   0.702  0.3931  0.1527  0.1659
22696W        W38590  18.518   6.697   4.312 -0.2015 -0.1705  0.2232
22697W        W38591  10.010   9.053  10.736  0.0500 -0.2431 -0.3298
22698W        W38592  18.724   0.337  12.661 -0.1479  0.1715  0.2400
22699W        W38593   0.465  17.015  13.086  0.2859 -0.0745  0.3418
22700W        W38594   8.568  16.756  10.933  0.0582 -0.0440  0.1011
22701W        W38595  17.147   8.219   4.793  0.1179 -0.2980 -0.0017
22702W        W38596   2.923   0.405  14.791  0.0419  0.1489  0.1320
22703W        W38597   8.588  13.904  12.198  0.0571 -0.0321  0.2378
22704W        W38598   6.858  13.626  11.942  0.0356 -0.2023  0.2201
22705W        W38599  15.573   8.302   0.879  0.0441  0.0149  0.1002
22706W        W38600   5.679  16.326  12.401  0.2756  0.0862  0.1468
22707W        W38601  10.187   8.005   3.068  0.1312 -0.1650 -0.1903
22708W        W38602  17.342   9.189   3.821 -0.1444  0.1397 -0.3231
22709W        W38603  15.451   2.528  15.100  0.1537 -0.1392 -0.3733
22710W        W38604   8.022   6.130  12.899  0.2993  0.0274  0.0228
22711W        W38605   5.450   8.956   3.817  0.3403 -0.0404 -0.2357
22712W        W38606  18.471   8.642   3.411 -0.2720 -0.2021  0.2302
22713W        W38607   6.347  13.639  11.114  0.2643 -0.1096 -0.2298
22714W        W38608   3.079   1.796   2.745 -0.0258  0.4075 -0.0196
22715W        W38609   8.045  18.821  13.956  0.1191  0.2257  0.0497
22716W        W38610  14.023  19.139   3.080 -0.1804 -0.0510  0.0677
22717W        W38611   5.830  18.381   3.616 -0.1121 -0.0500 -0.0413
22718W        W38612   3.729   0.347  11.789 -0.1467 -0.0877  0.1385
22719W        W38613  18.987   1.912  14.960  0.0505  0.0711 -0.0131
22720W        W38614  11.219  11.667  11.192  0.1728  0.1505 -0.0163
22721W        W38615   1.102  18.379  12.346  0.2345  0.3271 -0.3055
22722W        W38616   3.612  16.188   2.207 -0.0977  0.2833  0.2909
22723W        W38617  14.833  17.534  13.699  0.0946 -0.0838  0.0129
22724W        W38618  18.199   1.735  11.647  0.0731 -0.0146 -0.1264
22725W        W38619   2.335   4.628  13.198  0.3035  0.1444  0.4435
22726W        W38620   1.177  17.730   4.923 -0.1184 -0.3844  0.1345
22727W        W38621  15.220   3.261  12.630 -0.0982 -0.4170  0.2007
22728W        W38622  15.102   8.800   4.429  0.0396  0.0113 -0.3036
22729W        W38623   1.393  15.064   4.981 -0.1072  0.2555 -0.0494
22730W        W38624  11.449  19.055   3.944  0.0646  0.0224 -0.3440
22731W        W38625   1.201  10.812   3.562 -0.1478 -0.1187 -0.0727
22732W        W38626  12.751   3.002  14.311  0.1285 -0.2449 -0.2555
22733W        W38627   4.430  17.615   5.138  0.5834 -0.1152  0.0669
22734W        W38628  16.578  12.667   2.135  0.1892 -0.0070  0.1660
22735W        W38629   4.496  19.222   5.395  0.2079 -0.0352 -0.0695
22736W        W38630  11.372  10.083  10.678  0.0427  0.6910  0.0981
22737W        W38631   7.730   5.843  14.622 -0.0489 -0.0595 -0.0384
22738W        W38632   0.538  15.619  12.964  0.1583 -0.0662 -0.0690
22739W        W38633  14.295   0.210  14.092  0.0529  0.2185  0.1623
22740W        W38634  17.890   7.986  12.848 -0.0144  0.1262  0.0258
22741W        W38635  10.043  17.652   3.838 -0.0183 -0.1003  0.1768
22742W        W38636   3.184  16.691  12.725  0.2775  0.2597  0.4234
22743W        W38637   3.136   3.560   2.031  0.1908 -0.3545 -0.1405
22744W        W38638  14.995   3.154  13.884 -0.1527  0.1297  0.4090
22745W        W38639   8.659  15.574  13.102 -0.0014 -0.0512  0.1054
22746W        W38640   1.167   7.087  11.077  0.0454 -0.1247  0.3717
22747W        W38641   6.905  16.859  11.897 -0.0900  0.0628  0.2175
22748W        W38642   0.127   8.147   4.029 -0.2477  0.0574  0.0340
22749W        W38643  12.493   6.811   3.582  0.0850  0.1492  0.1597
22750W        W38644  14.514   6.832   3.398 -0.0133 -0.0524 -0.1641
22751W        W38645   2.286  12.116   0.083 -0.1490  0.0963  0.2271
22752W        W38646  15.283  14.665   3.812  0.2112  0.0398  0.4706
22753W        W38647  18.865   6.548  12.968  0.1213  0.1133  0.0337
22754W        W38648   1.379  13.440   3.590  0.1266  0.0263 -0.2370
22755W        W38649  19.066   2.042   0.840 -0.0047 -0.2744 -0.0607
22756W        W38650  14.995   7.318   2.506  0.1514  0.0417 -0.0500
22757W        W38651  13.607   4.078  12.506  0.3508 -0.1883  0.1649
22758W        W38652   5.287   4.368  10.897  0.1999  0.1907  0.3640
22759W        W38653  15.738   6.466  14.682  0.1977 -0.0350  0.0504
22760W        W38654  16.543   4.349   3.491 -0.0522  0.2358  0.5846
22761W        W38655  15.539  10.107  13.678  0.0571 -0.4698  0.1542
22762W        W38656  17.282  17.603   4.879  0.1881 -0.0400  0.1668
22763W        W38657   1.703   0.768  11.722 -0.0766 -0.0354  0.4544
22764W        W38658  10.104  13.842   0.515  0.2262 -0.0420 -0.0547
22765W        W38659  12.891   4.171  11.197  0.2029  0.0543 -0.0303
22766W        W38660  15.449   1.414  10.541 -0.1074  0.0182  0.2260
22767W        W38661  13.572   7.669  14.609 -0.1608 -0.1024 -0.0865
22768W        W38662  12.808   3.488   0.046 -0.2622  0.0772 -0.0422
22769W        W38663  18.557   7.164   1.541  0.1994 -0.0280 -0.2951
22770W        W38664  18.173  10.433   5.186  0.0032 -0.2616 -0.1254
22771W        W38665  11.517  11.535  10.307  0.4340 -0.2150 -0.0172
22772W        W38666   7.118   9.326   4.158  0.3307  0.1906 -0.0660
22773W        W38667  18.668   4.631  11.198 -0.0171  0.0305  0.1703
22774W        W38668   0.116  12.930   2.328 -0.0072 -0.1364 -0.2148
22775W        W38669  16.729   6.646   5.805 -0.2762  0.1756 -0.3068
22776W        W38670   5.914   2.583   1.090 -0.2826 -0.0375 -0.3473
22777W        W38671  10.922  18.914   2.490  0.2294 -0.2145  0.2762
22778W        W38672  16.791  15.495   5.612 -0.1915 -0.1994  0.1903
22779W        W38673   0.153  17.559  11.892  0.0485 -0.1120 -0.1453
22780W        W38674  16.262  14.504   3.917  0.0941  0.1806 -0.0532
22781W        W38675  11.116  16.153   3.035 -0.2846 -0.0088 -0.3278
22782W        W38676   6.799  12.984   1.206  0.1615 -0.1833  0.1275
22783W        W38677   6.707   1.697  14.216  0.0103 -0.0001  0.0854
22784W        W38678  15.212   3.837  14.998  0.2620  0.1346 -0.2588
22785W        W38679   0.861  11.805  11.413  0.3440 -0.0562 -0.2469
22786W        W38680   5.948   7.104  10.820  0.1047  0.0282  0.0818
22787W        W38681   9.501  10.754  10.673  0.0058 -0.1830 -0.3736
22788W        W38682  17.394  16.195   5.033 -0.4900  0.0958 -0.3858
22789W        W38683   2.507  14.386   4.978  0.1621 -0.0026  0.3794
22790W        W38684   6.704   1.629   5.758  0.0871 -0.3743  0.1486
22791W        W38685  15.331  18.098   4.690 -0.2793 -0.0643 -0.3628
22792W        W38686   0.493  16.885   4.710 -0.0337 -0.1118 -0.1182
22793W        W38687  10.955   8.644   3.856  0.0580 -0.1920 -0.0348
22794W        W38688   4.246  13.481   3.954  0.2051 -0.0855 -0.1151
22795W        W38689  14.733  16.713   2.196  0.1049  0.0429  0.0194
22796W        W38690   5.967  14.859   4.877 -0.0892  0.0321  0.1646
22797W        W38691   8.514   1.322  12.962  0.1720  0.1367  0.0131
22798W        W38692  14.961  16.810  12.573 -0.1964 -0.2084 -0.0473
22799W        W38693   6.801   8.379   3.207 -0.0287  0.0503  0.0080
22800W        W38694  11.492   2.729   4.054  0.2682 -0.1176 -0.0026
22801W        W38695  15.219  10.125   1.400 -0.0228 -0.1877  0.1073
22802W        W38696  12.583  17.296   3.008 -0.0589  0.0396  0.1896
22803W        W38697   7.450   2.320   1.055 -0.0084  0.1397 -0.2537
22804W        W38698   5.685  14.508  10.511  0.3057 -0.0732 -0.0510
22805W        W38699  12.906  13.050  11.288 -0.2395 -0.2303 -0.1506
22806W        W38700   4.490   5.576   3.659 -0.1665 -0.1328 -0.0497
22807W        W38701  16.457   8.190  13.345 -0.4813 -0.2369  0.2450
22808W        W38702   8.913   8.306   1.226  0.1668 -0.3940 -0.0433
22809W        W38703  14.323  12.028   2.057  0.3545 -0.2105 -0.0817
22810W        W38704  18.727  12.388  12.055 -0.0931 -0.4258  0.1144
22811W        W38705  17.979  11.639   3.885  0.2629  0.0091 -0.0723
22812W        W38706   0.846  14.713   4.969 -0.1651  0.3911 -0.1670
22813W        W38707   3.848   0.923   5.373  0.2861  0.2031  0.0008
22814W        W38708  16.553  14.691  11.554 -0.0952 -0.0359  0.0320
22815W        W38709   8.265  11.380  12.650  0.2576  0.2591  0.1522
22816W        W38710  12.501   5.061   1.488 -0.0305  0.1234 -0.3979
22817W        W38711   8.019  17.095   4.842 -0.1109  0.2227  0.3455
22818W        W38712  13.916   0.638  14.861 -0.0304 -0.1587  0.0929
22819W        W38713  15.606   0.358  11.497 -0.3362 -0.0042 -0.1748
22820W        W38714   2.907  18.814   2.989  0.1672 -0.1171 -0.1424
22821W        W38715   8.085  18.800  12.574 -0.0970  0.0906  0.1053
22822W        W38716  10.250  11.001  12.439  0.0175 -0.2884  0.1565
22823W        W38717  15.328   3.143  14.231 -0.1288  0.3977 -0.0765
22824W        W38718   0.712   9.542  14.336  0.0797 -0.0901 -0.3000
22825W        W38719   1.119   0.247  10.844 -0.0509 -0.1530 -0.2637
22826W        W38720   5.981   7.136   2.058 -0.0873 -0.1363  0.1357
22827W        W38721   9.140   1.323  12.611  0.5007 -0.2069 -0.0858
22828W        W38722  15.658  12.532  10.388 -0.2349  0.0623 -0.0473
22829W        W38723   5.877   2.190  14.545 -0.0830  0.3453 -0.2626
22830W        W38724  12.295   2.349   5.138  0.1370 -0.1169  0.0920
22831W        W38725   6.298  12.233   3.811  0.1420 -0.1266 -0.3063
22832W        W38726   6.096   4.455  12.087 -0.0799  0.0303 -0.2201
22833W        W38727   6.467   8.308  13.525 -0.0697 -0.0294  0.1121
22834W        W38728   0.101   6.541  13.812 -0.1905  0.1500 -0.1756
22835W        W38729   2.575  15.123   3.548 -0.3783 -0.2041 -0.0990
22836W        W38730  10.609  18.300   3.133  0.1707  0.0918  0.1125
22837W        W38731  19.125   8.941  14.356  0.0033 -0.2173 -0.1100
22838W        W38732   4.591   0.127  11.757 -0.0488  0.0880  0.0304
22839W        W38733   4.038  13.655  13.425 -0.0932 -0.2616  0.1015
22840W        W38734   4.934   5.836  14.295  0.0438 -0.1061 -0.2953
22841W        W38735   2.573  16.285  12.572  0.1317  0.0196  0.1737
22842W        W38736   1.651  16.838  11.076  0.0228 -0.3509  0.2660
22843W        W38737   5.117   7.864  12.783 -0.0132  0.1107  0.2894
22844W        W38738  11.018  12.822  12.557  0.0676  0.2026  0.0092
22845W        W38739   3.346  12.505  12.315 -0.0182 -0.0031 -0.0150
22846W        W38740  18.757   8.642   0.011  0.2326  0.2070 -0.0020
22847W        W38741  14.863   8.475   4.785 -0.1231  0.3838  0.1491
22848W        W38742  11.021  11.747  10.386  0.2274  0.1369  0.1549
22849W        W38743  16.393  16.820   0.504 -0.2277 -0.2636  0.1282
22850W        W38744   3.249  12.605  12.798  0.0402 -0.5712  0.0934
22851W        W38745  16.085   0.549  13.433  0.0679 -0.0610 -0.1371
22852W        W38746   3.751  19.181   2.975  0.2118 -0.2527  0.2659
22853W        W38747  17.295  12.065   1.985 -0.0601  0.0227 -0.2099
22854W        W38748   2.567  16.440   3.451  0.1239 -0.1306 -0.1663
22855W        W38749  14.631  16.247  13.121 -0.1059  0.1568 -0.2099
22856W        W38750  12.389  18.540  13.398  0.1494  0.4518  0.0763
22857W        W38751  14.813   4.740   0.127  0.2570 -0.2644 -0.0534
22858W        W38752   5.192  18.045  10.915 -0.0207  0.1714  0.2468
22859W        W38753   4.123  15.785  10.352 -0.2277 -0.0635 -0.1151
22860W        W38754   5.197  19.003  11.043  0.1157 -0.1689  0.0331
22861W        W38755  18.694   1.436  13.496 -0.0884  0.0817 -0.1453
22862W        W38756   4.994  13.538  15.017  0.1975 -0.1352 -0.3823
22863W        W38757  17.096   6.380  12.959  0.1251  0.4502 -0.0507
22864W        W38758   6.988  15.300  14.357 -0.0310 -0.3378  0.1292
22865W        W38759  14.544   9.469   3.058  0.0382 -0.2529 -0.1377
22866W        W38760   4.913   2.381   4.340 -0.2790 -0.1309 -0.2522
22867W        W38761  18.380   6.078   1.631  0.2145 -0.0621  0.0588
22868W        W38762  19.062   5.238   2.335 -0.1083  0.1595 -0.0878
22869W        W38763   6.709   8.575   1.651  0.1048 -0.1335 -0.3202
22870W        W38764  16.742   8.029   1.103  0.2388 -0.2019  0.1868
22871W        W38765  15.736   9.011   2.795  0.1338 -0.1050  0.0851
22872W        W38766  13.916   9.365  12.992 -0.0442  0.0424  0.3618
22873W        W38767  10.611  19.060   2.938 -0.0438  0.1068 -0.2510
22874W        W38768   9.305  17.214   2.817  0.1779 -0.1898 -0.0004
22875W        W38769  13.766   6.923   1.629 -0.0825 -0.0965  0.2733
22876W        W38770   2.886   9.211  14.407  0.0169  0.0599  0.0359
22877W        W38771  18.187  14.563  12.537 -0.0451  0.1303  0.1028
22878W        W38772   3.952   7.820   6.039 -0.1189  0.1161  0.1350
22879W        W38773  15.228   8.967   2.943 -0.1402  0.0935 -0.1633
22880W        W38774  14.573  18.072  11.850 -0.2337  0.1160 -0.0880
22881W        W38775  17.790  15.240   2.416 -0.1044  0.3435  0.1241
22882W        W38776  12.137  13.781  14.514 -0.1939 -0.1132 -0.2590
22883W        W38777  14.869  15.238   0.230 -0.0492 -0.1272  0.0216
22884W        W38778   2.734   9.100  11.755  0.4190  0.3868 -0.2151
22885W        W38779   3.165   6.500   0.710 -0.0482  0.0470 -0.3091
22886W        W38780   0.778   5.847  10.146  0.0424 -0.1109  0.3520
22887W        W38781   9.001  15.540  14.117  0.2865  0.1836 -0.0174
22888W        W38782  18.650  17.383   3.260 -0.2140  0.0608 -0.0611
22889W        W38783   8.425  16.770   2.940 -0.3922 -0.4332  0.1189
22890W        W38784   7.800   6.352  11.027  0.4847  0.0580  0.1565
22891W        W38785  11.901  13.235   3.590 -0.0634 -0.1614  0.0478
22892W        W38786   5.807   6.028  11.896 -0.0600  0.2441  0.0673
22893W        W38787  11.345  14.420  13.187  0.2190  0.0077 -0.0270
22894W        W38788  16.165   5.890   2.693 -0.2393 -0.1542  0.0415
22895W        W38789   1.746  14.283  10.266 -0.0179 -0.1233 -0.2633
22896W        W38790   6.367  13.390   0.580  0.0348  0.0937  0.0680
22897W        W38791  18.772   0.789  14.260 -0.1744  0.2768  0.0697
22898W        W38792   5.686  18.074   3.215  0.1749  0.0539 -0.0273
22899W        W38793   7.679  15.490  12.851  0.0927  0.1168 -0.1425
22900W        W38794   9.792  14.665   3.038 -0.0417 -0.0252  0.2321
22901W        W38795   8.986  10.033  12.999 -0.2068  0.2078  0.0711
22902W        W38796  13.396  15.655  12.543  0.2500 -0.1257 -0.2699
22903W        W38797   5.594   5.168  11.604  0.2049 -0.0507  0.1276
22904W        W38798   0.629   8.162   2.342 -0.0992 -0.2563 -0.0205
22905W        W38799   7.436  15.926  12.655  0.0313 -0.1220 -0.2078
22906W        W38800  17.774   3.461   0.887  0.0995 -0.1972  0.2035
22907W        W38801   5.985  14.037  10.575  0.0467 -0.2049  0.0544
22908W        W38802  16.459  18.843  13.279  0.0474 -0.1014 -0.1535
22909W        W38803  11.683   8.038  11.824 -0.0846  0.1089 -0.0460
22910W        W38804   7.766   4.185  12.154  0.4181  0.1690  0.0119
22911W        W38805   2.335  16.976  13.271 -0.0582  0.0810  0.0300
22912W        W38806   5.855   6.397   0.918 -0.1269  0.0287  0.2650
22913W        W38807   9.834   2.887  10.681  0.3311 -0.4019  0.0294
22914W        W38808   1.056   3.506   1.673  0.0180  0.1215  0.0269
22915W        W38809   1.448  14.848   4.349  0.1193 -0.4429  0.3861
22916W        W38810  17.140  11.111  11.668 -0.0082 -0.1034 -0.0567
22917W        W38811   0.130   3.146   9.674  0.0147 -0.1745 -0.3227
22918W        W38812   1.867   3.816   0.484 -0.0768 -0.0334  0.3054
22919W        W38813   5.722  18.872  11.138  0.2971  0.0940  0.0933
22920W        W38814   4.071  13.391   1.109 -0.0604  0.0065 -0.0166
22921W        W38815   8.636  14.879  13.229 -0.2764 -0.1508 -0.1452
22922W        W38816  17.748   5.954   1.017  0.2840  0.2145 -0.2156
22923W        W38817  10.036   7.604  13.234  0.1794 -0.1732 -0.0716
22924W        W38818   8.111  16.608   4.397  0.2591  0.0130 -0.0253
22925W        W38819   6.863   5.596  14.263  0.2180  0.4911 -0.2205
22926W        W38820  16.342   5.942   3.801  0.0596 -0.2214  0.1260
22927W        W38821   4.942   0.114   9.374 -0.0603  0.1143  0.2183
22928W        W38822   4.430   1.355  11.178  0.0334 -0.0641  0.2115
22929W        W38823   8.035  14.979   3.174  0.3362 -0.1784  0.3615
22930W        W38824  17.559   8.625   0.398 -0.0194  0.0110  0.2885
22931W        W38825   5.431   1.728  14.737  0.3124  0.0039 -0.6605
22932W        W38826   3.205  14.258   2.557 -0.4573 -0.1296  0.1066
22933W        W38827  16.638   7.725   2.940  0.0536  0.1092 -0.4180
22934W        W38828   4.522  15.480   1.947  0.0047  0.1746  0.0682
22935W        W38829   4.022  14.032  12.678 -0.1028  0.3666 -0.3513
22936W        W38830   2.576   2.511   4.669 -0.2047  0.3717 -0.1129
22937W        W38831   6.186  11.190  10.481  0.1751 -0.0700  0.2003
22938W        W38832   2.199   6.597  12.202  0.1485 -0.3095  0.1064
22939W        W38833   7.526   1.462  12.390 -0.2484 -0.2044 -0.1962
22940W        W38834   0.223  17.432   5.401  0.1685  0.0868  0.0618
22941W        W38835   3.006  11.171   1.920 -0.2919 -0.0108  0.0138
22942W        W38836  18.084  17.872  12.821 -0.1122 -0.0505 -0.2366
22943W        W38837  10.867  17.062  15.049  0.0101  0.1950 -0.1166
22944W        W38838  16.965  15.167  11.478 -0.1427  0.0002 -0.0691
22945W        W38839  19.192   6.838  11.567  0.0526 -0.0533  0.1173
22946W        W38840   1.895  11.611  13.849  0.1076 -0.1884 -0.0268
22947W        W38841  15.878  17.454  11.491 -0.1573  0.2057  0.0467
22948W        W38842   9.884  17.029   0.668  0.0691 -0.1548 -0.2305
22949W        W38843  10.816   4.167   5.157 -0.1066 -0.1709 -0.3703
22950W        W38844  13.706  18.124   3.896  0.0261 -0.0069 -0.1442
22951W        W38845   2.038   2.974   2.502  0.1806 -0.0525 -0.0329
22952W        W38846  14.514  13.189  13.614 -0.0984  0.0304 -0.0890
22953W        W38847   1.360  11.547   0.965 -0.0775  0.1129  0.0914
22954W        W38848   3.163  15.538  10.331  0.2381 -0.0743 -0.1409
22955W        W38849  14.297  10.727   0.316  0.0816 -0.0703 -0.0659
22956W        W38850   8.051  12.044   1.973 -0.3062 -0.4032  0.1356
22957W        W38851  14.207  18.824   4.182 -0.0844 -0.1039  0.0593
22958W        W38852   8.912  11.658   0.579  0.2620 -0.1831 -0.1321
22959W        W38853  14.420  12.650  12.434  0.1204 -0.0268  0.2146
22960W        W38854   5.609  16.522  11.261  0.0797 -0.2765 -0.3057
22961W        W38855  17.913   6.702   0.799  0.2136  0.0059 -0.0757
22962W        W38856   2.199  12.736   2.209  0.3128 -0.0160  0.0732
22963W        W38857   5.518   8.466  14.007 -0.1134 -0.0686 -0.2860
22964W        W38858   4.117  16.586  11.667 -0.0075 -0.2480  0.1018
22965W        W38859   3.403   7.464  11.088  0.0218  0.2548  0.0672
22966W        W38860   9.484  15.552   3.342  0.1032 -0.3975  0.0323
22967W        W38861  17.229   8.084  12.180 -0.3020 -0.2308 -0.1433
22968W        W38862   2.724  10.771  13.643 -0.0347  0.1222 -0.1721
22969W        W38863   1.527  18.295  13.801  0.2553  0.0768 -0.1232
22970W        W38864   4.644   2.774   1.683 -0.0850  0.0558 -0.1821
22971W        W38865   3.365   1.123   3.690 -0.1175 -0.1134 -0.2631
22972W        W38866  19.089  12.799  10.210  0.4223  0.1718 -0.3062
22973W        W38867  13.037  10.490   2.957 -0.0437 -0.4054  0.1830
22974W        W38868   5.530  17.912   3.657 -0.3430  0.1726  0.0873
22975W        W38869  10.978   2.012   0.946  0.0466 -0.1193  0.3354
22976W        W38870  15.790  18.232   4.835 -0.2643 -0.0614  0.3280
22977W        W38871   5.669   1.861  14.240  0.0251  0.2104  0.0874
22978W        W38872  19.212   5.601   1.971 -0.1414  0.1444  0.0691
22979W        W38873  18.779  15.710   5.500 -0.1210 -0.0491  0.0308
22980W        W38874   6.106   0.004   0.573 -0.1794 -0.4500 -0.1832
22981W        W38875  18.440   3.913  12.871  0.0723  0.2079  0.0132
22982W        W38876  16.912  18.956   1.792 -0.1036  0.1775  0.0450
22983W        W38877  10.878  17.711  10.200  0.1388 -0.1293  0.1227
22984W        W38878  17.828  16.246   4.403 -0.1431 -0.3535  0.2346
22985W        W38879  17.395  14.475  11.958 -0.1029  0.2694 -0.0819
22986W        W38880  13.974  12.128   3.628 -0.1085 -0.0922  0.0148
22987W        W38881  16.134   7.777   3.872  0.2389  0.1773  0.0904
22988W        W38882   7.863  11.593   1.524  0.4025 -0.2019 -0.1703
22989W        W38883   6.714  12.667   1.576 -0.0798  0.1803  0.2588
22990W        W38884   4.785   0.645   4.242 -0.1287  0.2172  0.0384
22991W        W38885  14.464   1.106   3.549 -0.1718 -0.0371  0.3638
22992W        W38886  10.462   2.635   9.590  0.0233 -0.1972  0.1176
22993W        W38887  18.824  13.061   2.195 -0.1858 -0.2235  0.1426
22994W        W38888   0.335   3.838   2.553  0.2829 -0.1557  0.0905
22995W        W38889  12.871   2.992   0.961  0.0142  0.2098  0.3847
22996W        W38890  18.232   7.730  14.709 -0.2796  0.1896 -0.0213
22997W        W38891  14.881   5.623  14.904 -0.0107 -0.1782  0.1511
22998W        W38892   8.107  12.442  11.413  0.0391 -0.0458  0.0167
22999W        W38893   5.558   9.934   5.620  0.0031  0.0390 -0.0673
23000W        W38894  13.297   4.389   5.734  0.2158 -0.1065  0.1530
23001W        W38895  12.719   5.948   2.613 -0.0715  0.1012  0.1064
23002W        W38896   4.230   8.224   0.686  0.2534  0.1364 -0.2000
23003W        W38897  17.048   2.176   3.303 -0.3176  0.1174 -0.0785
23004W        W38898   7.278   5.448   3.722 -0.3838  0.1268  0.0355
23005W        W38899  15.307   9.644   1.629  0.5508 -0.3561 -0.0224
23006W        W38900   3.013   8.884  10.664  0.0059 -0.3435 -0.0600
23007W        W38901   6.863  13.902   4.130 -0.0726 -0.1161 -0.4482
23008W        W38902  14.250   1.786   3.828  0.1622  0.2366 -0.2728
23009W        W38903   4.444   5.199  14.520  0.1704  0.1017  0.0221
23010W        W38904   3.331  15.439   3.970  0.0333  0.0706  0.1685
23011W        W38905  13.813   3.005  13.411  0.0650  0.2801 -0.2779
23012W        W38906   4.782   8.241   0.834  0.1171 -0.1772 -0.2761
23013W        W38907  12.064  10.619  10.391  0.0152  0.1507  0.0455
23014W        W38908   8.300  10.590   1.843  0.2815  0.0977  0.3478
23015W        W38909  10.525   4.301   0.755 -0.1737  0.0580 -0.1969
23016W        W38910   4.701  12.442  14.905 -0.0258 -0.0220 -0.2035
23017W        W38911  14.461  17.058   9.002  0.2106  0.0918  0.3110
23018W        W38912   3.876   7.619  12.971  0.0790 -0.1848  0.1240
23019W        W38913  12.254  10.231   0.129 -0.0429 -0.2408  0.2352
23020W        W38914   1.006  12.431   2.670  0.2528  0.1104  0.1213
23021W        W38915   0.880  18.328  15.076 -0.1114  0.2638 -0.1951
23022W        W38916   9.372   1.446  11.284  0.0564  0.1102  0.0900
23023W        W38917  18.301  12.939   2.305  0.1188  0.0118  0.0759
23024W        W38918  12.596  13.168  12.136 -0.0080 -0.2510  0.3276
23025W        W38919   0.103  18.922   2.230 -0.2053  0.0399 -0.1860
23026W        W38920  15.263  14.839  13.965 -0.1849  0.0431  0.0584
23027W        W38921  12.963  13.495  14.180  0.0109 -0.4280  0.0173
23028W        W38922   4.433   1.277   3.732  0.0303  0.0784 -0.0466
23029W        W38923   7.847   4.750   2.410 -0.1042 -0.0486  0.0719
23030W        W38924   9.207   9.245  13.513  0.2368  0.1739 -0.0104
23031W        W38925   5.185  10.141  14.947 -0.1209  0.0096 -0.0975
23032W        W38926  15.160  12.092   2.104 -0.1342  0.1080  0.0696
23033W        W38927  16.989  10.625   3.039 -0.0409 -0.0536  0.0012
23034W        W38928  12.664  14.971  10.154  0.3595  0.0765 -0.0663
23035W        W38929  14.660   7.539   9.973 -0.5762  0.2721 -0.2191
23036W        W38930   2.563  17.403   5.258 -0.1532  0.0371 -0.5159
23037W        W38931  14.461  12.590  14.605  0.0626 -0.0291  0.0150
23038W        W38932   3.651   1.166   2.901  0.1493  0.1374  0.0940
23039W        W38933  13.126   8.249  14.400  0.0437 -0.3289 -0.1661
23040W        W38934  11.152   9.646   3.939  0.1266  0.3407  0.1385
23041W        W38935   8.739  18.476  12.917 -0.1645  0.0405 -0.1352
23042W        W38936   0.173   7.127  14.822  0.1688  0.2516 -0.0825
23043W        W38937   7.949  14.560   1.702 -0.0349 -0.0131  0.1256
23044W        W38938  10.144  15.511  15.046  0.3766  0.2714  0.1242
23045W        W38939   4.347   3.856   0.141 -0.1008 -0.1416 -0.0039
23046W        W38940  13.050   5.172  13.068 -0.2541 -0.1662  0.1441
23047W        W38941  15.291   5.848   0.833  0.0902 -0.3954 -0.1877
23048W        W38942  13.343  15.139  14.785 -0.0134 -0.0419 -0.3681
23049W        W38943   7.507   5.057   0.002 -0.1337 -0.0445  0.0771
23050W        W38944   3.867   9.386   5.250 -0.0740 -0.2183 -0.2789
23051W        W38945  14.820  11.871   0.580 -0.4622 -0.2541  0.2249
23052W        W38946  18.228   9.954   4.354  0.1285  0.4414 -0.1796
23053W        W38947   5.840   5.456  12.999 -0.1206 -0.4369  0.2011
23054W        W38948   9.306  19.045  10.707 -0.1586  0.2845  0.1041
23055W        W38949   5.466   8.859   0.513  0.2955  0.0981  0.0118
23056W        W38950   1.599   3.275  10.830  0.1017  0.3589 -0.2612
23057W        W38951   2.091   2.893   1.568  0.0283  0.3226  0.0795
23058W        W38952   7.734  17.807   4.589  0.3191 -0.1048 -0.3573
23059W        W38953   5.174   9.825  10.631 -0.0604 -0.0947 -0.0855
23060W        W38954   8.947  15.714   3.591  0.0374  0.0608 -0.1787
23061W        W38955   3.673  14.435  13.204 -0.3377 -0.0538 -0.0807
23062W        W38956  17.416  15.253  11.225 -0.1963 -0.4143 -0.0415
23063W        W38957  19.160  13.245  11.241 -0.0161  0.0727 -0.1727
23064W        W38958  12.539   5.009  12.390 -0.1890 -0.0120 -0.1541
23065W        W38959   2.465  18.884  12.526 -0.1007  0.0591  0.0799
23066W        W38960   1.166  11.295   3.650  0.2688  0.1674  0.1977
23067W        W38961  15.870  12.055  12.004 -0.0325  0.2160  0.2036
23068W        W38962   0.310   9.627  14.013 -0.3660 -0.2540  0.0257
23069W        W38963   7.825  16.831  12.428 -0.2453  0.2230  0.0721
23070W        W38964   8.419  13.165   0.262 -0.2070 -0.0484  0.1695
23071W        W38965  11.148  15.464   0.478  0.1910  0.0466 -0.0282
23072W        W38966  16.558  18.708   2.763 -0.1349 -0.1297  0.1312
23073W        W38967   1.751  11.464   3.048  0.3453 -0.1023 -0.1297
23074W        W38968   7.719  13.814  12.416 -0.2204  0.2284  0.3806
23075W        W38969  10.144   9.183   4.538  0.1831 -0.0323 -0.0885
23076W        W38970  12.011  14.753   3.804  0.2970  0.1164 -0.0647
23077W        W38971   1.820   1.943  10.402  0.0506 -0.2248 -0.0627
23078W        W38972   7.806   1.811  11.414  0.0118  0.1007  0.0202
23079W        W38973   4.145   8.912  11.034  0.1345  0.0275 -0.0166
23080W        W38974  11.813   0.160  14.704 -0.5221 -0.0726 -0.3020
23081W        W38975  16.798  17.357   1.614  0.1661 -0.1832 -0.1127
23082W        W38976   0.471   0.758  11.599  0.0281  0.0034 -0.2337
23083W        W38977   9.167   2.860   2.520 -0.1762  0.0627 -0.3282
23084W        W38978  14.999  18.322  13.932  0.0647  0.3068 -0.3105
23085W        W38979   9.546  10.847  12.465 -0.0289  0.2033  0.1054
23086W        W38980  13.556   4.435   1.897 -0.0783  0.0686 -0.2815
23087W        W38981  10.568  12.202  13.416 -0.2208  0.3479  0.3017
23088W        W38982   1.514   5.790   5.077  0.3107 -0.0459 -0.2407
23089W        W38983   2.909  13.344   2.358 -0.1300  0.0293 -0.2096
23090W        W38984   5.393   3.491  13.821 -0.2071  0.3034  0.2425
23091W        W38985   8.832   1.384   4.312 -0.3505  0.0158  0.0750
23092W        W38986   6.722   8.703   3.581  0.2353 -0.0140  0.0448
23093W        W38987   5.608   6.320  13.720  0.0981 -0.3661 -0.0530
23094W        W38988  13.150   1.812  13.497 -0.1978 -0.1732 -0.1105
23095W        W38989  11.082   0.848  14.144 -0.0545  0.0801 -0.2720
23096W        W38990  14.124   4.121  13.806 -0.2159 -0.1850 -0.0018
23097W        W38991  13.642   5.744  11.329 -0.2961 -0.1204 -0.2969
23098W        W38992   8.715   0.623  13.906  0.0168  0.1366  0.2376
23099W        W38993   0.050   5.255  10.150  0.2611  0.0790 -0.1662
23100W        W38994  17.128   1.079   2.215 -0.2088 -0.0213 -0.0630
23101W        W38995  13.533  16.788   3.256  0.0938  0.1083 -0.0375
23102W        W38996  14.682  13.866   4.727  0.2627 -0.1594  0.1303
23103W        W38997   6.476   4.749  13.186 -0.0170  0.0909  0.0895
23104W        W38998  17.198  12.702   4.500 -0.2435  0.0230 -0.1996
23105W        W38999   5.270   4.977   4.948 -0.3892 -0.3055  0.1975
23106W        W39000  14.105   9.687   0.963 -0.2165 -0.3590  0.2479
23107W        W39001   8.896   6.129  15.047 -0.0921  0.3740 -0.3165
23108W        W39002   2.795   7.055  14.265  0.1968 -0.0684  0.1346
23109W        W39003  17.399   5.091   2.006  0.0350  0.0213 -0.2302
23110W        W39004  17.042   7.063   3.468 -0.0130 -0.2809  0.0827
23111W        W39005  14.549   3.301   1.841 -0.0442 -0.0510 -0.1528
23112W        W39006  14.218   1.546   3.404  0.0133  0.3953  0.1519
23113W        W39007  15.905  15.551  10.476 -0.1690 -0.0071  0.0068
23114W        W39008  15.925   5.246  14.879 -0.0144 -0.0843 -0.0487
23115W        W39009   7.319  14.125   1.814 -0.0852  0.2332  0.1421
23116W        W39010  11.090   9.154  14.051  0.1149  0.0851  0.1181
23117W        W39011  13.991   6.415  12.791  0.1356  0.1324 -0.1789
23118W        W39012  17.946  17.249   3.701 -0.2611  0.2408  0.1463
23119W        W39013   3.470   3.558   4.322 -0.4166 -0.0148  0.2234
23120W        W39014  12.019  18.741   3.300  0.0497 -0.1638  0.1861
23121W        W39015  14.163   7.833   1.094  0.1585  0.1973 -0.1597
23122W        W39016  11.861   7.251   2.980  0.0684 -0.1136  0.2714
23123W        W39017   2.156  16.611  10.686 -0.0152  0.1350 -0.0804
23124W        W39018   0.878   5.150   1.920 -0.0807  0.4582 -0.1318
23125W        W39019   9.774   6.087   0.214 -0.0716 -0.0584  0.0110
23126W        W39020   7.729  10.578  11.494  0.0455 -0.0580  0.3078
23127W        W39021  13.150   8.299   2.510 -0.0183 -0.1005  0.1070
23128W        W39022   1.377   7.203   2.041  0.0207  0.5239 -0.0118
23129W        W39023   4.684  18.810   5.668  0.1703 -0.1725 -0.3244
23130W        W39024   4.650   7.337  11.038 -0.2658  0.0625  0.0694
23131W        W39025   8.163  12.648   0.800 -0.2575 -0.0756 -0.2220
23132W        W39026   9.281   3.255  12.566  0.0581 -0.1474  0.3248
23133W        W39027   5.304  14.200  14.493  0.1621  0.0836  0.0423
23134W        W39028   1.153  12.026   2.816  0.0476  0.0713  0.3098
23135W        W39029  15.495   1.048  13.161  0.0898 -0.3339  0.5299
23136W        W39030  14.166   5.633   5.701 -0.2767 -0.2579  0.0288
23137W        W39031  17.598  14.763  14.377 -0.0601 -0.1259 -0.0058
23138W        W39032   1.965  13.852   2.421  0.0434  0.1613 -0.0097
23139W        W39033  18.326  16.202   2.172 -0.1790  0.2509  0.1492
23140W        W39034  15.385   6.338  13.822 -0.0613 -0.1547  0.2612
23141W        W39035   2.337   7.922   2.562  0.0593  0.0112 -0.1870
23142W        W39036   5.722   5.102  14.687  0.0546  0.0062  0.1122
23143W        W39037   3.237  11.727  14.745  0.2688  0.2417  0.1031
23144W        W39038  15.472  14.341  12.779  0.0311  0.1970  0.1186
23145W        W39039   2.492   0.214   0.813 -0.0122  0.1858  0.0945
23146W        W39040  16.752  16.315  12.579  0.1109  0.1895 -0.1776
23147W        W39041  10.756  10.075   2.615 -0.0123  0.0154  0.4252
23148W        W39042  16.946   2.325  12.250 -0.0507  0.1290 -0.1885
23149W        W39043  10.481  12.518  11.898  0.2108  0.1350 -0.1467
23150W        W39044  16.982  12.037   2.998 -0.1490 -0.1074  0.1531
23151W        W39045   0.984  16.339   5.171  0.1883  0.2674  0.1867
23152W        W39046   4.914  12.257  12.661 -0.2047  0.0008  0.2075
23153W        W39047   9.419  13.133   2.430 -0.0043  0.2130 -0.3235
23154W        W39048  18.833  16.788  12.027  0.3221 -0.0796 -0.1893
23155W        W39049  12.846  18.481  13.194 -0.3373  0.2331 -0.1789
23156W        W39050   5.107  13.335  13.356  0.3056 -0.0278 -0.0364
23157W        W39051   1.335  12.067   4.285  0.0361 -0.3686 -0.2945
23158W        W39052   2.145   5.780   0.422  0.0065  0.2707 -0.3569
23159W        W39053  11.991  17.130  12.686  0.1141 -0.0684  0.1098
23160W        W39054  14.167  10.009  12.006  0.1358  0.0196  0.0120
23161W        W39055  13.658   0.443  11.621 -0.1281  0.1059  0.1213
23162W        W39056   9.167  17.028   1.778  0.2384  0.0258 -0.2003
23163W        W39057   9.993   8.627  13.135  0.1951  0.2929  0.1211
23164W        W39058  19.060  16.145   4.051 -0.0344  0.1407 -0.2282
23165W        W39059  18.114  17.080  13.849  0.2876 -0.1523  0.1446
23166W        W39060   6.888  18.202   4.130 -0.0168 -0.0617  0.1680
23167W        W39061  17.128  13.464   1.134  0.1721 -0.2752  0.1662
23168W        W39062  14.433   2.113   5.216 -0.1027  0.2718 -0.1800
23169W        W39063  12.083   1.670  14.446 -0.0417  0.3173  0.1532
23170W        W39064  10.478  16.255  14.932  0.1611 -0.0172  0.2162
23171W        W39065   4.811   3.208  12.346  0.2254 -0.1193  0.0689
23172W        W39066  15.919   0.888  13.029  0.1888  0.2115  0.0006
23173W        W39067   2.807   4.253   3.980 -0.2942 -0.2885  0.0182
23174W        W39068   7.990   4.630  12.850 -0.0739  0.1441 -0.1966
23175W        W39069  13.959   9.202  13.863  0.0506 -0.1283  0.0204
23176W        W39070  12.464  18.290  12.918 -0.0748 -0.4561 -0.0193
23177W        W39071  15.669   3.820   1.614  0.0902 -0.0266  0.0929
23178W        W39072   9.969   2.174   4.554 -0.3334 -0.0409  0.3935
23179W        W39073   1.268   4.003   0.273 -0.4727 -0.0432 -0.0378
23180W        W39074   0.258  17.195  11.067 -0.1809 -0.1495  0.2648
23181W        W39075   9.603  15.516   4.100 -0.2821 -0.0487 -0.1275
23182W        W39076   6.264   0.257   3.051  0.2385 -0.1313 -0.3501
23183W        W39077  11.115  14.587   4.196 -0.2012  0.1391  0.0688
23184W        W39078   9.028   7.879  12.269  0.0699  0.0849  0.0884
23185W        W39079   4.526  10.992   0.798  0.4967 -0.2636  0.0651
23186W        W39080  10.428   1.512  12.200 -0.0236  0.1241  0.1506
23187W        W39081  10.802   3.177   4.866 -0.1121  0.1942 -0.0721
23188W        W39082   2.244   9.481   0.799  0.3060 -0.4047 -0.0782
23189W        W39083  13.788   2.461   0.929 -0.0955 -0.1952  0.2535
23190W        W39084   4.831  10.892   1.696  0.0971  0.0258  0.1098
23191W        W39085  17.624  12.901   4.725  0.1746 -0.0353  0.1220
23192W        W39086   1.209   5.454  10.041 -0.0040  0.3297 -0.1537
23193W        W39087   9.897  10.909   1.772  0.0737  0.3301  0.2195
23194W        W39088  15.916  13.799   3.486  0.0246 -0.1202 -0.0598
23195W        W39089  14.841   5.998   1.132 -0.2451 -0.0106  0.0678
23196W        W39090   0.315   5.367  11.452 -0.1397 -0.0812 -0.0168
23197W        W39091  15.726  13.925  14.992  0.2508  0.1837  0.3183
23198W        W39092  18.657  14.995  12.523 -0.2051  0.0576  0.1663
23199W        W39093   1.993   0.357   0.760 -0.3220  0.1981  0.0927
23200W        W39094  15.604  14.983   1.877  0.3274 -0.0359 -0.3204
23201W        W39095   7.786  12.029  11.649 -0.1314 -0.3276  0.0116
23202W        W39096   3.425   9.471   0.376 -0.1404  0.0883  0.0446
23203W        W39097   6.962   7.540   3.979  0.0676  0.2819  0.0500
23204W        W39098  12.314   2.500   0.638 -0.4115  0.1543 -0.0293
23205W        W39099  12.747   0.251  13.809  0.0261 -0.1506 -0.2358
23206W        W39100   3.261  18.397   1.462  0.1183  0.1340  0.2507
23207W        W39101  14.251   9.684   2.703  0.0013  0.2758 -0.1535
23208W        W39102   8.739  14.302  11.902 -0.2992 -0.1196 -0.0525
23209W        W39103   4.675   3.950  11.705  0.0006  0.0566 -0.2407
23210W        W39104   3.611   1.894   1.788  0.0741  0.0107  0.1276
23211W        W39105   7.375   4.053   1.010  0.0024 -0.0112 -0.0121
23212W        W39106  10.278  17.269  13.931 -0.1304  0.0061  0.0815
23213W        W39107   2.725   4.632   4.793  0.0824  0.1404  0.0796
23214W        W39108  11.178   0.428   4.675 -0.1645 -0.0221 -0.2754
23215W        W39109   9.721  10.793   4.152  0.1773  0.0466 -0.1258
23216W        W39110  16.773  19.223   5.161 -0.1409  0.3165 -0.0569
23217W        W39111   3.150  10.666   3.509  0.0350 -0.0197  0.4416
23218W        W39112   1.403   2.412   1.970  0.1067 -0.0746  0.0827
23219W        W39113   4.913  10.866  10.781  0.0279  0.0104 -0.2162
23220W        W39114   2.764   1.562  11.497  0.3474  0.1287  0.1571
23221W        W39115   2.463  14.949   2.351 -0.0302  0.2413 -0.1014
23222W        W39116   8.083   2.789  14.496 -0.0585  0.2807 -0.3263
23223W        W39117   8.178   3.116  14.152  0.0271 -0.0702  0.1791
23224W        W39118  16.592   1.256  10.882 -0.1136  0.0255 -0.0519
23225W        W39119  15.123   1.621  14.986 -0.2374 -0.0720 -0.0484
23226W        W39120   5.181   3.788   0.325  0.2062  0.3608 -0.0897
23227W        W39121   8.834  13.171   2.817 -0.4128 -0.1740  0.2603
23228W        W39122  15.183  18.384   3.094  0.1374  0.1749  0.0262
23229W        W39123   0.250   4.521  12.452  0.0924  0.0028 -0.1106
23230W        W39124  14.470  11.939  14.142 -0.1378 -0.1455  0.0333
23231W        W39125  15.137   3.986  14.467 -0.1053  0.0102  0.1614
23232W        W39126   9.787   6.842  13.194  0.4871 -0.2320 -0.3346
23233W        W39127   6.067  16.973  14.025  0.1270 -0.2270  0.4382
23234W        W39128  18.901   8.048   0.850 -0.1888  0.1931 -0.0060
23235W        W39129  15.250   1.146   2.263  0.0173 -0.2358  0.1118
23236W        W39130   9.698  10.501  11.738  0.3859  0.0012  0.4832
23237W        W39131   5.275  11.957  13.284 -0.0561 -0.3065  0.3069
23238W        W39132   6.104  18.438  14.423 -0.0386  0.0932 -0.1164
23239W        W39133   2.744   6.330  12.724  0.1776  0.1823 -0.1235
23240W        W39134   3.441   9.824   1.829  0.1961 -0.0114  0.0003
23241W        W39135  14.326  12.101   0.638  0.1437  0.0648 -0.1923
23242W        W39136  10.382   0.417  13.611  0.0916 -0.1354 -0.0265
23243W        W39137  16.185  15.223  14.088  0.0495 -0.2477  0.0044
23244W        W39138  12.007  13.506  10.146  0.1040 -0.3259  0.1000
23245W        W39139  17.333   3.161  14.681 -0.0365  0.0765 -0.2776
23246W        W39140  16.144  18.384  14.874  0.1160  0.3226  0.1432
23247W        W39141   7.971  14.074   3.964 -0.2189  0.0203 -0.1921
23248W        W39142  13.044  10.434   2.407 -0.1570  0.0747  0.1632
23249W        W39143  15.365  15.934  12.524 -0.0871 -0.0665  0.3258
23250W        W39144  19.130   2.884   0.189  0.0691 -0.0376 -0.2832
23251W        W39145   1.736  16.591   0.555  0.2525  0.1263 -0.0204
23252W        W39146  10.275  11.412  11.673 -0.0737  0.1203  0.0470
23253W        W39147  16.258  11.652   2.144 -0.3649 -0.1189  0.1453
23254W        W39148  11.107  19.171  14.043 -0.0653 -0.3061 -0.0127
23255W        W39149  15.815  14.611   3.459 -0.2573 -0.0421 -0.1723
23256W        W39150  15.067  14.978  14.488 -0.0839  0.0054 -0.2020
23257W        W39151   9.314   1.261   1.278 -0.0419 -0.3528  0.0754
23258W        W39152   9.941  16.045  12.487  0.0003 -0.0247 -0.2675
23259W        W39153  16.521   5.758   1.201  0.0869  0.0192 -0.2207
23260W        W39154  14.315  18.467   4.839 -0.0868 -0.0144 -0.1021
23261W        W39155   7.948  12.036   2.932 -0.3233  0.1001 -0.0123
23262W        W39156  17.425  15.125  11.709  0.1212  0.3850  0.0693
23263W        W39157   3.532   8.979   3.035  0.2477  0.1097  0.0692
23264W        W39158  13.758  11.368  14.618 -0.0508  0.2839  0.0615
23265W        W39159   0.061  14.828   9.957 -0.2522  0.1549 -0.0976
23266W        W39160   6.664   5.166   2.627 -0.3586  0.2032  0.0381
23267W        W39161  15.842   4.070   4.126  0.0605 -0.2240  0.1673
23268W        W39162  12.598   3.411  11.124 -0.0853 -0.2273  0.0231
23269W        W39163   4.787  15.876   4.720  0.0437  0.1311  0.0428
23270W        W39164   0.522   6.097   3.574  0.1289  0.1372  0.4234
23271W        W39165  11.477   1.404   2.926  0.0949  0.0828 -0.3003
23272W        W39166  15.848  10.690   1.800  0.3301  0.0036 -0.1058
23273W        W39167  13.251   6.603   4.750  0.0595 -0.1517 -0.1980
23274W        W39168  10.050   4.261  11.039  0.0676  0.2024  0.0753
23275W        W39169   9.455  15.599   4.615  0.0959 -0.0313 -0.1728
23276W        W39170  16.966  18.955  13.107  0.0490 -0.1030 -0.1235
23277W        W39171   4.295   5.096   5.954 -0.0742  0.3296  0.0031
23278W        W39172   3.948  17.307   2.975  0.0879 -0.0253  0.1973
23279W        W39173   9.950   3.214  11.167  0.0269  0.0708  0.0978
23280W        W39174   7.929   0.378   4.414  0.1473  0.0648 -0.1828
23281W        W39175  18.730   4.320   5.024  0.2563  0.2591  0.1957
23282W        W39176   0.290  12.921   4.319 -0.0058  0.1657 -0.1715
23283W        W39177  16.147   8.946   2.420  0.2665  0.1217  0.1755
23284W        W39178  15.854  16.410   4.548  0.1373  0.1033  0.2655
23285W        W39179   1.265  16.733  12.066 -0.0876 -0.4646  0.1285
23286W        W39180  13.108   9.175  13.222  0.0519 -0.1068 -0.0036
23287W        W39181  14.252  10.614  12.631  0.3177 -0.4751  0.1852
23288W        W39182   4.525  10.166   4.480 -0.1469 -0.2154  0.0615
23289W        W39183   0.580   5.455  10.992 -0.3310 -0.0357  0.2423
23290W        W39184  12.185   1.092  10.727  0.2841 -0.0332  0.0274
23291W        W39185  10.974   8.070   0.985 -0.4349  0.1739  0.1685
23292W        W39186  18.562  15.511   4.681 -0.0972 -0.0482  0.0660
23293W        W39187  17.422  14.102   0.640 -0.4242 -0.0111  0.1712
23294W        W39188   9.427   3.943   3.039  0.1521  0.1104  0.4558
23295W        W39189   1.085  10.388  13.835  0.1044  0.0827  0.0426
23296W        W39190   0.292  12.054  12.283 -0.0040 -0.1114 -0.0149
23297W        W39191   8.993   3.624   0.631  0.2940  0.3206  0.0659
23298W        W39192  17.581  15.083   0.090 -0.2829 -0.3907 -0.1656
23299W        W39193  16.272  12.283   0.429 -0.2204  0.0520 -0.3252
23300W        W39194   9.033  17.242   4.741  0.1271 -0.0454  0.0634
23301W        W39195  14.192   0.895  10.551 -0.2313  0.1834 -0.2272
23302W        W39196   3.206  14.624   0.069 -0.0480 -0.0226 -0.0488
23303W        W39197  16.907   6.004   4.012  0.0443  0.2872  0.2652
23304W        W39198   1.179   4.649   4.434 -0.0332  0.0487 -0.2239
23305W        W39199  11.747  14.284   3.700 -0.0495  0.1792 -0.1718
23306W        W39200  17.478   8.343  13.622 -0.2311  0.1007 -0.0158
23307W        W39201   7.876   8.099   1.286  0.1615 -0.1168 -0.2432
23308W        W39202   9.507   7.152   3.769 -0.1376  0.0779  0.2079
23309W        W39203   8.124  16.848  12.976 -0.0486  0.2550  0.1383
23310W        W39204   6.635   2.148  13.729  0.0635 -0.2049 -0.0720
23311W        W39205  11.885  18.735  10.208 -0.2182  0.1702  0.0118
23312W        W39206   5.477   3.998   3.178  0.1155 -0.1053 -0.1261
23313W        W39207  17.958   3.254   0.027  0.1746 -0.1612  0.0057
23314W        W39208  18.125  18.954   3.667  0.0571  0.0284  0.2358
23315W        W39209   2.933  17.257   4.403 -0.2105  0.2986  0.0402
23316W        W39210   1.354   3.686   0.657  0.0240 -0.0478 -0.1678
23317W        W39211  11.147  18.378   4.957 -0.1404 -0.2820 -0.1713
23318W        W39212   6.505  16.167   2.285  0.1813 -0.0961 -0.1278
23319W        W39213   9.015  14.010   3.295  0.0340 -0.3375 -0.2581
23320W        W39214   8.636   0.383   2.610 -0.1453 -0.3418 -0.1327
23321W        W39215   7.095   3.509   5.400  0.0016  0.0913  0.2729
23322W        W39216   1.957  12.847   2.885  0.4546 -0.0087  0.2622
23323W        W39217   4.819   6.471   2.212 -0.0015 -0.7550  0.0028
23324W        W39218   7.477  15.303  15.101 -0.4927  0.2633  0.3894
23325W        W39219  14.582  14.425   4.585  0.2305 -0.1780 -0.2149
23326W        W39220  10.380   8.830  14.960  0.1201 -0.0849 -0.1270
23327W        W39221  18.792  14.186   2.860 -0.1637 -0.2632  0.0309
23328W        W39222   5.277  13.236   3.417  0.1879  0.1625 -0.0738
23329W        W39223  11.625   8.448   2.844  0.0268 -0.3957  0.0716
23330W        W39224   5.369  17.925  11.457  0.0363  0.1774  0.1842
23331W        W39225  15.920  10.792  14.908 -0.0053  0.0802 -0.1495
23332W        W39226   5.734   1.955   5.062 -0.1312  0.1828  0.2054
23333W        W39227   3.496   2.277  11.349  0.3286 -0.2837  0.1321
23334W        W39228  18.831   5.371  13.077 -0.2854  0.0468 -0.0317
23335W        W39229  11.312  15.781   5.386  0.2512 -0.0111 -0.1431
23336W        W39230   2.732   5.269  11.730  0.0811  0.0525  0.1087
23337W        W39231  17.089   3.173   5.476  0.3039 -0.0339  0.1691
23338W        W39232  10.014  16.888  12.980  0.3643 -0.1354 -0.1824
23339W        W39233  16.813   0.043  10.525 -0.2881 -0.1291  0.0216
23340W        W39234  12.616  13.486  13.310 -0.3996  0.1117  0.0250
23341W        W39235   3.095   0.771   2.881 -0.1137  0.3785 -0.5723
23342W        W39236  12.598  11.640   1.024  0.1562 -0.0501 -0.0429
23343W        W39237  15.292   0.006  13.361  0.1970  0.2053  0.1012
23344W        W39238  13.879  11.965  13.015 -0.3764  0.1224  0.4099
23345W        W39239  13.348  13.876  13.834 -0.0048  0.1707 -0.0372
23346W        W39240   1.117  13.863  14.167  0.2349  0.0635 -0.0605
23347W        W39241   6.355   8.749   3.936 -0.1133  0.1345  0.0046
23348W        W39242   0.784   4.487  10.885  0.1554 -0.2902  0.2666
23349W        W39243  15.531   5.211   0.129 -0.1523  0.0741  0.0226
23350W        W39244   8.550   8.486  15.091 -0.0162 -0.3994  0.1194
23351W        W39245  15.370   3.961   3.200  0.1491  0.0857  0.2280
23352W        W39246   0.799  17.231   3.076  0.2964 -0.3661 -0.0727
23353W        W39247   3.687   2.632  12.252 -0.2214 -0.1113  0.0162
23354W        W39248   8.964  10.073   2.224  0.2327 -0.0629  0.0778
23355W        W39249  13.712  18.131  10.513  0.2922  0.0506  0.0924
23356W        W39250   9.343   3.439   4.436 -0.3533 -0.0580  0.0836
23357W        W39251   8.208  13.113   4.335  0.0716  0.1256  0.1633
23358W        W39252  14.170  15.280  10.537 -0.1628  0.1574  0.0638
23359W        W39253   0.405   2.685   1.187 -0.3732  0.2719 -0.1620
23360W        W39254   8.918   5.161  11.301 -0.1394 -0.4023 -0.2296
23361W        W39255   4.524   5.934   2.683  0.0470  0.0586  0.1440
23362W        W39256   4.353  11.092   2.236  0.1131  0.0244  0.3770
23363W        W39257  18.682  15.535  11.138 -0.0102  0.0502  0.0662
23364W        W39258   4.852  13.112  11.714 -0.4349  0.2676 -0.1064
23365W        W39259  12.628  17.081  12.145  0.0973  0.1895  0.0720
23366W        W39260  18.702   0.999   5.974 -0.1728  0.0213  0.1593
23367W        W39261   3.427   0.336   2.861  0.0021 -0.0112  0.0502
23368W        W39262   3.118   0.622   3.796 -0.2986  0.0855  0.0806
23369W        W39263   7.357  13.973   0.412  0.1712  0.0260 -0.1051
23370W        W39264  19.126   5.602  13.780  0.0792 -0.1070 -0.2268
23371W        W39265   5.432   7.523  12.998 -0.0872 -0.1620  0.0359
23372W        W39266  11.280   5.709   4.685  0.0911 -0.0530  0.0363
23373W        W39267   3.492  10.868   0.353 -0.1068  0.1176  0.2752
23374W        W39268   1.554   2.922   1.769  0.1470  0.6900 -0.3074
23375W        W39269  11.608  12.817   2.111  0.1211 -0.1241 -0.0771
23376W        W39270  14.903   1.436  12.046 -0.0278  0.0430  0.1129
23377W        W39271  14.249   1.756   0.850 -0.0452 -0.1687  0.2893
23378W        W39272  16.336   0.273  10.569  0.0991 -0.1887 -0.1524
23379W        W39273   4.906  13.648   3.573 -0.1649 -0.0027  0.2252
23380W        W39274   3.706  13.633  11.898  0.2702 -0.0997  0.2094
23381W        W39275  17.136   0.879   4.467 -0.0735 -0.0283  0.0888
23382W        W39276   2.763   0.569  11.648  0.0796  0.0278  0.3879
23383W        W39277   1.278   8.107  14.000  0.0451  0.4207 -0.0006
23384W        W39278  18.367   9.225  10.826  0.0041 -0.2851 -0.0694
23385W        W39279   0.569  15.473  13.965  0.0581  0.3433 -0.2057
23386W        W39280  14.058   5.287   4.234  0.1359  0.0944 -0.0607
23387W        W39281  14.554  17.523   3.290 -0.3136 -0.1876 -0.1586
23388W        W39282   5.246  11.599  12.379  0.1521 -0.2107  0.1129
23389W        W39283   6.191  14.044  10.092 -0.1360  0.0036 -0.0591
23390W        W39284  16.719  17.697  12.628  0.1480 -0.0381  0.0077
23391W        W39285  16.891  16.464   2.088  0.2640  0.0138  0.2234
23392W        W39286  17.247  12.108   3.859 -0.0985  0.0127  0.4696
23393W        W39287  14.028  18.568  13.938  0.2761 -0.0670 -0.1211
23394W        W39288  18.299   5.522   0.297 -0.1959  0.2633  0.0483
23395W        W39289   5.963  17.169   4.143  0.1658 -0.1000  0.3610
23396W        W39290  17.514  18.270  14.918  0.1363 -0.5021  0.0012
23397W        W39291   4.956  10.206  13.794 -0.0372 -0.1594  0.1807
23398W        W39292  18.664   0.424   2.671 -0.0952 -0.1155  0.1927
23399W        W39293   8.150  12.257   3.395  0.0597  0.2397  0.2611
23400W        W39294  17.572  10.576   2.173  0.1307  0.1876 -0.3058
23401W        W39295   1.354  15.640   0.415 -0.0511 -0.1808 -0.2411
23402W        W39296  10.340  10.267   2.434 -0.0632 -0.1598 -0.0296
23403W        W39297   1.303   7.874  12.229 -0.1694  0.1256 -0.0720
23404W        W39298  13.531   0.569   5.384  0.0019  0.0749  0.2169
23405W        W39299   1.614   7.864   1.545 -0.0789 -0.2187 -0.1114
23406W        W39300  12.738   2.373  13.474 -0.2367 -0.0734  0.1840
23407W        W39301  11.561   2.342   0.365 -0.2986  0.0816  0.0486
23408W        W39302  10.365   2.839  13.171 -0.1676  0.2288 -0.1474
23409W        W39303  17.815  19.208   0.377  0.0151 -0.1667  0.1263
23410W        W39304   1.888   9.384  13.152  0.1077 -0.1624 -0.2008
23411W        W39305  14.356   2.741  14.198  0.2670  0.2743  0.1540
23412W        W39306  18.603   6.708   3.182 -0.0949  0.0815 -0.1253
23413W        W39307   1.696   5.397  13.572 -0.4120 -0.3318  0.3882
23414W        W39308   3.422   0.425   2.234 -0.0255  0.1724 -0.3376
23415W        W39309  12.990   2.583  14.399  0.2080 -0.2352  0.2350
23416W        W39310  13.888   6.917   0.595  0.2007 -0.0768 -0.2115
23417W        W39311   3.371   5.361   5.072  0.1550  0.0991  0.1715
23418W        W39312   7.724  15.092  12.106 -0.4317 -0.0451 -0.1129
23419W        W39313  11.036  15.583  10.832 -0.0314 -0.0231  0.0004
23420W        W39314  11.134  19.220  13.476  0.0140 -0.2589  0.1219
23421W        W39315  13.786   3.574   3.341  0.3560  0.0969  0.3753
23422W        W39316   7.198  14.410  10.420 -0.1798  0.1390  0.0076
23423W        W39317   1.260   8.846   3.821 -0.0446 -0.3989  0.0394
23424W        W39318   8.159  18.355  13.279 -0.3763  0.1191  0.0053
23425W        W39319   3.832   5.819   1.968  0.2673 -0.2029 -0.0768
23426W        W39320  18.617   4.264  14.458 -0.1342  0.0994 -0.3025
23427W        W39321   9.093   9.624   2.534  0.3226  0.1697  0.1604
23428W        W39322  17.969   0.924   4.634 -0.1295  0.0177 -0.1298
23429W        W39323  10.574  12.792  10.593 -0.1926  0.1058 -0.1598
23430W        W39324   4.279   7.762   0.331  0.2408 -0.0193 -0.0307
23431W        W39325  15.654  17.293   4.090  0.0244 -0.4473 -0.1695
23432W        W39326  12.641   6.177  12.979  0.0553  0.4436 -0.0525
23433W        W39327  10.898   9.366   3.147  0.0730  0.3245  0.2390
23434W        W39328   9.661   7.240  12.620 -0.1665  0.2408 -0.5925
23435W        W39329   4.413  10.813  11.006  0.0225 -0.0843  0.0804
23436W        W39330   5.046   0.102   0.368 -0.0715 -0.0918 -0.1253
23437W        W39331   8.983  12.046   0.934 -0.1274  0.0982  0.1557
23438W        W39332   8.794  13.932   4.458  0.1511  0.2501 -0.0345
23439W        W39333   7.864  18.366  13.676  0.0912 -0.1273 -0.0064
23440W        W39334   8.779   3.121   4.540  0.4014  0.2923 -0.1489
23441W        W39335  10.637  13.293   9.919 -0.0094 -0.1164 -0.0322
23442W        W39336  10.878  17.169   1.721  0.3140 -0.4227  0.0950
23443W        W39337   8.346  16.172  12.847  0.2666  0.3795  0.2637
23444W        W39338   2.622  14.197  13.813  0.0547  0.1644 -0.3250
23445W        W39339  12.871  16.922   5.240  0.0601 -0.1765  0.3424
23446W        W39340  17.498   0.169   4.079  0.0173  0.1032 -0.2355
23447W        W39341   6.474  17.294   4.224 -0.1301  0.0530 -0.0140
23448W        W39342   3.437   0.062  14.861 -0.0628 -0.0931 -0.2343
23449W        W39343  12.581  12.132   2.367 -0.4242 -0.0425 -0.0486
23450W        W39344  15.763   8.100  15.040  0.1963  0.2029  0.0767
23451W        W39345   1.163  12.350  11.929  0.0195 -0.2650  0.2294
23452W        W39346  15.454   2.270   3.355 -0.0439  0.0556  0.0444
23453W        W39347  13.639   6.325   3.175 -0.0118  0.2823 -0.0160
23454W        W39348   6.251  16.062  13.110 -0.0022  0.1877  0.0172
23455W        W39349   6.776   7.511   4.517 -0.2754  0.3313  0.1280
23456W        W39350  17.213   2.811   2.742 -0.0731 -0.1973  0.1147
23457W        W39351   5.940   8.972  11.949  0.1679  0.1026  0.2514
23458W        W39352   2.997   3.093   2.880 -0.0223  0.3239 -0.1161
23459W        W39353   2.425   2.534   3.748  0.0506  0.1914  0.0349
23460W        W39354  16.951   6.218   5.000  0.2018  0.1104  0.0013
23461W        W39355  17.569  17.392   0.317 -0.1889 -0.2882 -0.0020
23462W        W39356   0.403   4.070  12.682  0.4423 -0.2717  0.1861
23463W        W39357   6.388   6.081   3.619  0.1833 -0.1403  0.1665
23464W        W39358   1.836  16.194   2.626  0.2874 -0.1618  0.0166
23465W        W39359   5.105   9.548   4.454  0.0977  0.0726  0.3251
23466W        W39360   5.984  10.016  12.031 -0.2340  0.3220  0.4511
23467W        W39361   0.525   5.460   2.109  0.4375  0.2432 -0.2260
23468W        W39362   3.485   1.093   0.003 -0.2833  0.0054  0.0239
23469W        W39363   0.654   1.893   4.603 -0.1793  0.1157 -0.3226
23470W        W39364  12.266  11.553  12.274  0.2003 -0.0018  0.3085
23471W        W39365   6.620  11.393  10.323  0.0204  0.2728 -0.2951
23472W        W39366   3.046  11.396   2.493  0.0082  0.3233  0.1237
23473W        W39367  18.499  17.183  14.125  0.2167  0.1974  0.0180
23474W        W39368   5.477  16.149  14.188 -0.2688  0.2109  0.1191
23475W        W39369   1.810   5.330   3.440 -0.1053 -0.2272 -0.0158
23476W        W39370   1.185   8.576  14.216 -0.0810  0.2810  0.0625
23477W        W39371   5.158   4.109   5.625 -0.0091  0.2883 -0.1072
23478W        W39372  13.732   3.815   3.738  0.1512  0.1021 -0.0377
23479W        W39373   4.139  13.167  12.637 -0.0902 -0.4053  0.0012
23480W        W39374   4.195   7.726  14.943  0.4117 -0.2712  0.1479
23481W        W39375  15.398  16.770   1.408  0.1767  0.2441  0.0770
23482W        W39376  17.923   0.087  11.601 -0.2316 -0.0609  0.0774
23483W        W39377  15.260   7.181   3.906 -0.0813  0.3311 -0.0938
23484W        W39378  11.709   6.117  12.503 -0.1175  0.0651 -0.1248
23485W        W39379  16.110  15.129   1.223 -0.0325  0.1717  0.1166
23486W        W39380   0.205   1.085  14.952  0.0874 -0.1420  0.5241
23487W        W39381   4.381   2.220  11.507  0.1431 -0.0903  0.1608
23488W        W39382   4.025  10.617  10.722  0.1734  0.3409  0.0730
23489W        W39383   5.349  12.203   4.054  0.1240  0.0175  0.1247
23490W        W39384  11.220  14.626   1.922  0.3392 -0.0198 -0.1485
23491W        W39385   7.783   0.481   1.488 -0.2419  0.1548  0.3977
23492W        W39386  12.017   9.371   1.309 -0.0066 -0.1690  0.0179
23493W        W39387   8.882  13.254  12.614  0.2188  0.0421  0.0987
23494W        W39388   7.493   7.665   3.330 -0.3830 -0.0400  0.5103
23495W        W39389   4.833   5.864   4.850  0.4678 -0.0487  0.1564
23496W        W39390  18.111  10.022  13.191  0.0313 -0.0075  0.1823
23497W        W39391   2.189   1.515   2.502 -0.0136  0.0691  0.0370
23498W        W39392   9.301  10.572  12.953 -0.0983  0.0628 -0.2493
23499W        W39393  17.125   7.121  12.637  0.1664 -0.1032  0.4006
23500W        W39394  10.039   2.066  11.920  0.2413 -0.2168 -0.1235
23501W        W39395   9.489   7.887  13.366  0.2163  0.1732  0.1958
23502W        W39396   6.121  18.941   1.076  0.1933  0.1629  0.0404
23503W        W39397   9.979   8.225  14.625  0.0671 -0.2174  0.2454
23504W        W39398   6.659  14.864  13.622  0.1399  0.3194 -0.1594
23505W        W39399  14.596  17.169   4.513  0.0083  0.3713 -0.0659
23506W        W39400   2.770   3.034  13.372 -0.0519  0.1077 -0.1617
23507W        W39401  19.165   2.774   5.905  0.0698 -0.1212  0.1292
23508W        W39402   0.251  12.507   4.084 -0.2698 -0.2595  0.1319
23509W        W39403   6.804  11.415  14.334  0.2094  0.1200  0.3531
23510W        W39404  16.683   1.325   4.700  0.2790 -0.0223  0.2530
23511W        W39405   5.598   7.408  12.291 -0.1776  0.1279  0.3980
23512W        W39406   6.022  10.264   2.034 -0.0121  0.1711 -0.4161
23513W        W39407   6.625   3.787   1.722  0.0095  0.0380 -0.1084
23514W        W39408   7.823  11.231   3.426 -0.0472  0.0794  0.1530
23515W        W39409  10.329   4.406   4.914  0.0776  0.1676 -0.1156
23516W        W39410   8.674   1.870   5.072  0.0184 -0.2357  0.2514
23517W        W39411  15.770   9.287   3.763 -0.2200  0.3907  0.3197
23518W        W39412  15.426  13.402  10.791 -0.0147 -0.1721  0.2017
23519W        W39413  12.471   8.586   0.654  0.0925  0.0881  0.1666
23520W        W39414  16.793   5.360   1.081 -0.1027  0.2319  0.0369
23521W        W39415  15.395  16.331  11.816  0.0484  0.4972  0.1585
23522W        W39416   1.253   1.828   3.642  0.2410 -0.1670 -0.0685
23523W        W39417   0.978   9.834  10.926  0.1795  0.2049  0.1404
23524W        W39418  13.359   7.461   5.077  0.1085 -0.1481 -0.0881
23525W        W39419   1.396  11.150   2.803 -0.0391 -0.0185 -0.4040
23526W        W39420  14.049   0.122   4.076 -0.2244 -0.0504  0.2210
23527W        W39421  12.461  11.866  12.597 -0.3173 -0.1448 -0.1696
23528W        W39422   8.340   8.631  10.636 -0.1227  0.2002 -0.1049
23529W        W39423   3.316  15.558  12.783 -0.2694  0.1466  0.4653
23530W        W39424   3.064  13.801  15.088  0.2377 -0.2272 -0.0691
23531W        W39425  12.058   4.669   3.006 -0.1150 -0.3909 -0.0503
23532W        W39426   4.552  17.897   3.503  0.1510  0.1606  0.3955
23533W        W39427  13.418   2.112   0.162 -0.1109  0.1248 -0.0754
23534W        W39428  15.689  18.852  14.207 -0.0599 -0.0075  0.4625
23535W        W39429  18.789  18.510  11.121  0.1202  0.0983  0.2211
23536W        W39430   8.628  17.496  14.110 -0.1552  0.0028  0.0608
23537W        W39431   0.855  13.455   4.693 -0.2929 -0.0320 -0.1720
23538W        W39432   2.733   1.549   0.934  0.0490 -0.2913 -0.0191
23539W        W39433   6.242   0.788   3.151 -0.1504 -0.0047 -0.1851
23540W        W39434   2.674   6.905  12.894 -0.1234 -0.0601 -0.1670
23541W        W39435  11.662  16.385  10.145 -0.3677 -0.0643  0.2137
23542W        W39436  17.573   5.149   4.835  0.0028  0.0119  0.3801
23543W        W39437  10.754  14.829   1.920  0.3103  0.3048 -0.1304
23544W        W39438  18.928  16.097  10.726 -0.1961 -0.0923 -0.0647
23545W        W39439  17.115  10.401   0.380 -0.1225  0.0527 -0.1007
23546W        W39440   4.666  18.140  12.979  0.2110 -0.1512 -0.1404
23547W        W39441  16.224  13.736   0.143  0.0883 -0.0774 -0.3233
23548W        W39442  10.036   7.307   4.158 -0.2346 -0.0301 -0.0615
23549W        W39443  12.325   1.571   3.594  0.2202 -0.1693 -0.0884
23550W        W39444   2.719   7.495   9.920 -0.0973  0.0415 -0.2119
23551W        W39445  14.703   9.903   2.760  0.2162  0.0344  0.0353
23552W        W39446  11.777   7.303   1.224  0.2408  0.1680  0.4788
23553W        W39447  18.517   5.120  13.415  0.2620  0.2009  0.1032
23554W        W39448   6.656  11.814   4.383 -0.0917 -0.1544 -0.1541
23555W        W39449  15.061  18.316   0.379 -0.1900  0.0604 -0.0440
23556W        W39450   5.958  14.550   3.005  0.0056  0.1725 -0.0551
23557W        W39451  16.898  14.032  12.509 -0.4101  0.1790  0.2494
23558W        W39452  15.864   1.549   1.650 -0.3177  0.0932  0.2340
23559W        W39453  13.177   2.068  14.345  0.1171  0.1834 -0.1011
23560W        W39454   8.474   1.640   4.697 -0.0878 -0.0122  0.0733
23561W        W39455   8.160   0.809   4.308 -0.0027 -0.0022 -0.0900
23562W        W39456   6.028   2.680  12.031  0.2117 -0.1661  0.0426
23563W        W39457  18.423  18.849  14.980 -0.0595  0.0228 -0.1089
23564W        W39458   8.905   5.602  13.350  0.3543  0.1126 -0.1177
23565W        W39459   6.211   4.002   5.336  0.0790 -0.3126  0.1080
23566W        W39460  15.560   5.591   2.056  0.1960  0.2568 -0.2638
23567W        W39461   5.454   2.988   0.519 -0.3898  0.3892 -0.1458
23568W        W39462  16.464   0.908  14.005  0.1387  0.2538  0.0766
23569W        W39463   9.338  15.138   2.047 -0.0635  0.0473  0.0751
23570W        W39464  17.917   9.491   0.868  0.1697 -0.1125 -0.4083
23571W        W39465   1.788   9.131   1.326 -0.3039  0.3378 -0.4268
23572W        W39466   7.230   3.438  15.066 -0.0908 -0.0769 -0.0097
23573W        W39467  14.273   3.921   0.979  0.3612 -0.0295 -0.2550
23574W        W39468   3.567   0.432   3.829  0.0394 -0.1557  0.0923
23575W        W39469   4.414  15.077  13.772 -0.2288  0.2638 -0.0615
23576W        W39470   5.415  17.522  13.507 -0.4395  0.1921 -0.0156
23577W        W39471  17.925  13.433  13.594  0.2769 -0.2830  0.1729
23578W        W39472  17.595   7.316  13.240 -0.0357  0.0032  0.2988
23579W        W39473   2.347  12.243  10.886  0.0004 -0.0707  0.2322
23580W        W39474   7.983  15.696  10.207  0.2752  0.1573 -0.1272
23581W        W39475   6.706   5.162  13.452  0.0633 -0.4121 -0.0900
23582W        W39476   9.035  10.470   4.835 -0.0475  0.0919 -0.2621
23583W        W39477   0.585   9.233   9.816  0.3321  0.1093  0.0033
23584W        W39478   0.054  13.665   9.811  0.0922  0.2014  0.4369
23585W        W39479   3.394   0.564   4.636  0.2271 -0.0014  0.1966
23586W        W39480  12.597  15.221   1.387 -0.1505  0.4208  0.0637
23587W        W39481  17.977  16.490  14.937  0.3952  0.1592 -0.1929
23588W        W39482   5.943   6.096   0.267  0.0348 -0.0018 -0.0773
23589W        W39483  18.085   1.126   3.169  0.0669 -0.3409 -0.0733
23590W        W39484   8.442  15.051   2.330 -0.1681  0.1721 -0.0499
23591W        W39485  11.416   6.507   4.265 -0.5274  0.0205 -0.0527
23592W        W39486   2.519   7.664  13.279 -0.0401  0.0353  0.2218
23593W        W39487   1.577   2.949  14.799  0.0995 -0.0694  0.0432
23594W        W39488   8.770  17.593  11.725 -0.1418  0.2024 -0.1406
23595W        W39489  13.008   6.701   9.454  0.1120 -0.1463  0.2910
23596W        W39490   6.977   9.259  10.968  0.3543  0.2305 -0.0946
23597W        W39491  16.495   7.802   3.421 -0.4429  0.0574  0.3274
23598W        W39492   1.731  16.036  10.645  0.3965 -0.1146  0.2673
23599W        W39493  18.559   9.513  13.917 -0.0753 -0.0196  0.0312
23600W        W39494   6.745  16.514  10.745 -0.1118 -0.4010  0.0612
23601W        W39495   6.197   2.818   0.737 -0.1528 -0.0304 -0.2498
23602W        W39496   6.750   7.771  12.871  0.0443 -0.0799  0.3821
23603W        W39497  18.530   0.613   0.622 -0.0289  0.2291  0.1427
23604W        W39498  15.035  11.288   5.547  0.1863  0.0157 -0.0650
23605W        W39499   2.506  10.180   1.656  0.2116 -0.3544 -0.1978
23606W        W39500   5.296  10.118   0.928  0.1308  0.2270 -0.1897
23607W        W39501   7.687   7.733  11.632  0.0681 -0.0864  0.1174
23608W        W39502  14.560  12.826  13.303 -0.2128 -0.0003 -0.0971
23609W        W39503   4.205   1.662   4.047  0.1553  0.2707  0.0952
23610W        W39504  17.911   2.415  11.063  0.0861 -0.0978  0.0341
23611W        W39505   8.785   5.394  13.734 -0.1057  0.1831  0.0870
23612W        W39506  13.859   5.181   1.640 -0.1300  0.0332  0.4205
23613W        W39507   0.757   5.076  11.406  0.2128 -0.0840 -0.0488
23614W        W39508   8.861  17.770  12.208 -0.2516  0.0215 -0.2051
23615W        W39509  12.957  15.560  11.259 -0.2136 -0.1207  0.1693
23616W        W39510   3.478   0.871  12.827  0.2547 -0.0252  0.0106
23617W        W39511  10.863  15.721   2.720  0.0468  0.0283  0.1422
23618W        W39512  15.749   7.418  13.780 -0.1864 -0.1218 -0.1115
23619W        W39513  14.484  16.635  13.943 -0.1047 -0.1119 -0.1808
23620W        W39514  14.437   9.271  12.355  0.0262  0.1421  0.2203
23621W        W39515   3.818   2.946   0.684 -0.2754 -0.2129  0.3700
23622W        W39516  12.004  11.004  10.929 -0.1037 -0.2523 -0.1571
23623W        W39517  15.709   7.012  14.519  0.1081 -0.1544 -0.0499
23624W        W39518  15.962  18.809   3.586 -0.1641 -0.2275 -0.1002
23625W        W39519  12.973   6.932   0.172 -0.0660 -0.0130 -0.1543
23626W        W39520  13.353   8.033   4.072  0.2420  0.2584 -0.1512
23627W        W39521  19.191   9.240   3.708 -0.2406 -0.3256 -0.0897
23628W        W39522   5.520  11.783  10.498 -0.2739  0.0366  0.3028
23629W        W39523   7.792  14.625   2.513 -0.0242  0.2476  0.0191
23630W        W39524   3.227  18.944   1.426 -0.1623 -0.3506 -0.3081
23631W        W39525   0.548   7.619  10.627 -0.0247 -0.2359  0.0092
23632W        W39526  13.184   6.718   1.769 -0.1175  0.0080  0.1482
23633W        W39527   0.921  16.396  14.223 -0.0109 -0.0877 -0.1456
23634W        W39528   3.340  11.551  12.043 -0.2688  0.0124  0.1994
23635W        W39529   5.916  19.093   2.934  0.1910 -0.2081  0.1777
23636W        W39530   1.243   6.364   5.562 -0.2071  0.2973 -0.1718
23637W        W39531  17.533   3.063   1.245  0.2243 -0.4604 -0.0896
23638W        W39532   6.130  11.889  12.009 -0.0574  0.4338  0.1786
23639W        W39533  15.863   3.450   5.566 -0.0480 -0.0799  0.2007
23640W        W39534  14.602  15.301  13.934  0.0993 -0.2955  0.3586
23641W        W39535  17.942  14.677   0.246  0.0662  0.0858  0.1668
23642W        W39536   4.312  17.812  11.125 -0.2329 -0.0541 -0.0757
23643W        W39537  17.540   6.747   4.282  0.0044  0.4685 -0.0013
23644W        W39538  10.527  19.216  11.299 -0.2479  0.2104  0.0468
23645W        W39539   6.035   2.739   3.321 -0.0543  0.1821  0.1637
23646W        W39540   6.271   0.786   0.717 -0.1871  0.2213  0.2701
23647W        W39541   8.992   6.927  11.904 -0.2702  0.0524  0.0729
23648W        W39542  12.848  16.140   3.065 -0.4761  0.2494  0.0710
23649W        W39543  15.067   8.042  13.716 -0.0864 -0.0306  0.1605
23650W        W39544  10.956  13.242   3.854 -0.0801 -0.1854  0.3389
23651W        W39545   1.640   6.143   0.120 -0.0017 -0.1287 -0.1955
23652W        W39546   4.629   1.888   4.774 -0.2236 -0.3532  0.0563
23653W        W39547  11.978  14.779  14.673  0.1637  0.0416 -0.0166
23654W        W39548   5.358   5.722  11.850 -0.1830  0.0135 -0.0557
23655W        W39549   7.741   3.239   4.924  0.0079  0.0613  0.0245
23656W        W39550   0.991   1.106   4.523  0.0649 -0.0140  0.1937
23657W        W39551   0.802  16.171   5.636  0.0586 -0.1282 -0.4099
23658W        W39552  11.003  11.739  14.957  0.0024 -0.0697 -0.0272
23659W        W39553   8.164  10.850  11.482 -0.0310  0.0073 -0.2933
23660W        W39554  14.935  10.115  12.606  0.1399  0.0473  0.3395
23661W        W39555   4.841   0.524  10.862 -0.1180 -0.0199  0.0730
23662W        W39556  10.925  15.746  13.575 -0.2419 -0.2936 -0.0142
23663W        W39557   2.889  14.247   0.151  0.1621  0.1075  0.3065
23664W        W39558   6.889  15.009  12.621  0.2280  0.0572  0.1718
23665W        W39559  10.447  16.322   0.611 -0.3424 -0.0504 -0.0423
23666W        W39560  13.756  16.170   3.928 -0.1315 -0.0276 -0.0499
23667W        W39561   9.941  16.902   0.100  0.4438 -0.0186 -0.1668
23668W        W39562   2.351  11.323  12.067  0.2688  0.3938  0.1334
23669W        W39563   7.805  11.913  14.271 -0.0166  0.1454 -0.0849
23670W        W39564  13.759   9.627  13.490  0.2008  0.4432  0.0759
23671W        W39565   1.321  17.656  12.146  0.4539  0.0202 -0.1492
23672W        W39566   7.738   3.968  14.328  0.1508 -0.3076 -0.0764
23673W        W39567   2.280   5.004  12.096 -0.0426  0.4429  0.3660
23674W        W39568  17.830  10.077  10.605  0.0217 -0.3319 -0.1983
23675W        W39569   7.043   4.624  12.611  0.1840 -0.2129  0.0132
23676W        W39570  14.659  10.990   2.662 -0.1438 -0.1021  0.0038
23677W        W39571   8.049  16.405  14.287 -0.1245 -0.1019 -0.3855
23678W        W39572  13.400  18.071  12.571  0.2297 -0.2361 -0.1012
23679W        W39573   8.393   3.197   4.224 -0.5025  0.2428  0.1112
23680W        W39574   5.831   6.018   2.781  0.2711 -0.1092  0.1261
23681W        W39575  13.951   8.781  11.109  0.1059 -0.0089 -0.4135
23682W        W39576  11.365  17.514  10.844 -0.0640  0.4277 -0.1051
23683W        W39577   4.421   3.763   1.956 -0.1482  0.0893 -0.0866
23684W        W39578   0.406  12.248  13.273  0.1175 -0.2537 -0.1431
23685W        W39579   6.555   5.508   3.554  0.0755 -0.2635 -0.1484
23686W        W39580   8.375  13.384   1.234 -0.0060  0.1429  0.0929
23687W        W39581   9.399   9.108   1.385 -0.1803  0.1518 -0.2479
23688W        W39582  16.144   0.386   3.281 -0.1011  0.2015  0.0270
23689W        W39583  15.770   9.984   4.917 -0.1543  0.2739 -0.4483
23690W        W39584  10.090   9.966   4.256 -0.2310  0.1257 -0.4528
23691W        W39585  10.627   8.622   1.668 -0.1217 -0.1490 -0.0877
23692W        W39586  11.544  18.525  14.972 -0.0691 -0.0549 -0.1929
23693W        W39587   1.440   6.622  11.218 -0.1364 -0.2398 -0.0747
23694W        W39588  17.814   3.396  14.594 -0.2610  0.1033 -0.0236
23695W        W39589  16.095  16.448   0.267 -0.0736  0.2857  0.0484
23696W        W39590   5.032   4.470   2.297 -0.5099 -0.1406  0.1434
23697W        W39591  13.683   7.012  11.251  0.0781 -0.0386 -0.1843
23698W        W39592   3.076   4.974   0.633 -0.1439 -0.1929  0.1159
23699W        W39593   2.554  10.675   4.541 -0.0001 -0.3279  0.2224
23700W        W39594   5.638  13.666   1.613  0.3019  0.0365  0.2117
23701W        W39595   0.624  13.351   4.219  0.3573  0.0193  0.0347
23702W        W39596   0.967   3.759   4.797  0.0290  0.2032  0.0748
23703W        W39597  18.717  17.010  11.228  0.0775  0.1327  0.1257
23704W        W39598   3.681  11.549   2.489 -0.1760  0.0393  0.3340
23705W        W39599   4.282   1.816  10.315 -0.2525 -0.4232 -0.2646
23706W        W39600   7.051   8.356   3.700  0.2548  0.1306  0.1080
23707W        W39601  10.331  13.009   0.958 -0.0533  0.2827  0.1568
23708W        W39602  17.365  13.210   2.780 -0.0085  0.0039 -0.0893
23709W        W39603  17.431   6.439   3.855 -0.0869 -0.0835 -0.0630
23710W        W39604  11.705  13.741   2.402 -0.1838  0.0417  0.0606
23711W        W39605  14.558  10.197   1.465 -0.0196 -0.0770 -0.4335
23712W        W39606   9.315  10.046   0.199 -0.0288 -0.1972 -0.0477
23713W        W39607  10.619  11.687  13.670  0.1762  0.0901 -0.1308
23714W        W39608  12.086  12.120   4.282 -0.2217  0.0787 -0.2303
23715W        W39609  13.713  16.114   2.080  0.0149  0.1768 -0.3950
23716W        W39610   6.896  16.107  11.309  0.0693 -0.0841 -0.0944
23717W        W39611   7.973  10.206  14.325 -0.0867  0.2883 -0.4204
23718W        W39612   2.425  14.983  14.598 -0.3589 -0.1316 -0.0500
23719W        W39613  12.471   6.407  14.068 -0.2626  0.0222  0.1043
23720W        W39614   2.439  15.103   1.826 -0.1612 -0.1811  0.1479
23721W        W39615  17.844  13.402   4.868  0.1508  0.2270 -0.2128
23722W        W39616   4.808  17.633  14.816 -0.1309 -0.0489  0.5204
23723W        W39617   7.008   3.959  11.264  0.0052 -0.0252  0.3808
23724W        W39618   0.823  18.606   4.783 -0.0664 -0.4062 -0.1861
23725W        W39619   4.871  14.386   0.811 -0.1834  0.0772 -0.0769
23726W        W39620   3.678  15.843   5.023  0.1277  0.3572  0.0136
23727W        W39621  11.417  15.430  11.497  0.4521  0.2518  0.1638
23728W        W39622   4.862   3.227   2.366 -0.0392 -0.0492  0.0845
23729W        W39623  17.129  14.499   4.299 -0.1475 -0.2053 -0.1320
23730W        W39624  16.284  11.123  14.555  0.1663 -0.0589  0.3201
23731W        W39625  14.355   2.211  14.473  0.2689 -0.2550  0.0157
23732W        W39626   7.376  13.417   0.330  0.2786 -0.0817 -0.1066
23733W        W39627   7.684  17.710  11.988 -0.1318 -0.0290  0.0285
23734W        W39628   7.735   7.348  11.198 -0.1999  0.3116  0.4836
23735W        W39629  17.403  14.711   0.950 -0.1491  0.0972  0.3161
23736W        W39630   5.908   3.086  11.596 -0.0138  0.4431 -0.2617
23737W        W39631  17.220  10.525   5.480 -0.3936  0.0708 -0.0400
23738W        W39632   1.036  13.912  14.790 -0.1319  0.0112 -0.1869
23739W        W39633   8.880  13.175  11.447 -0.1766 -0.0160  0.0871
23740W        W39634  16.907   8.540   3.164  0.4489  0.2597  0.4230
23741W        W39635   7.087  16.015  13.820 -0.0541 -0.2252  0.0031
23742W        W39636  19.163   4.817  13.863 -0.0989  0.0812 -0.0451
23743W        W39637   3.096   4.625   1.968 -0.2686 -0.2060 -0.1760
23744W        W39638  15.631  19.218   3.977  0.0866 -0.2506 -0.2504
23745W        W39639  18.278  18.511   9.643  0.2160  0.2180 -0.1385
23746W        W39640   5.072  18.982  14.755 -0.0980 -0.1412  0.4948
23747W        W39641   5.579  12.808   2.305  0.4069 -0.0444 -0.4614
23748W        W39642  17.091   2.584  13.486  0.2810  0.0258 -0.0072
23749W        W39643   1.322  19.097  14.506  0.5949 -0.1015 -0.1239
23750W        W39644   2.780  10.131  12.645 -0.2326 -0.0622  0.1115
23751W        W39645  11.487   7.378  13.574 -0.0352 -0.0569  0.0901
23752W        W39646   0.942  13.609   3.462  0.1021 -0.2224  0.3235
23753W        W39647   3.663  15.784   3.698 -0.2364  0.0328 -0.0033
23754W        W39648   7.572  16.613  10.501 -0.1622 -0.1011 -0.1555
23755W        W39649   4.345   8.411  14.781 -0.1958 -0.4419 -0.0823
23756W        W39650   2.931   8.290  12.156 -0.0808  0.3636  0.0068
23757W        W39651   9.392   0.435   3.431 -0.0965 -0.1057  0.1128
23758W        W39652  10.090   1.577  14.753 -0.1716 -0.3575  0.0481
23759W        W39653   6.887  13.283   1.770 -0.0494 -0.1519  0.1009
23760W        W39654  16.044  11.577  13.872 -0.1121  0.0803 -0.0571
23761W        W39655  13.616  10.267   4.813 -0.3919  0.0804 -0.1221
23762W        W39656  10.517  15.340   1.417  0.1798  0.0071 -0.1993
23763W        W39657   4.683  11.932   1.448  0.0791 -0.2604  0.0343
23764W        W39658  13.148  19.073   2.736 -0.0687  0.1527  0.1526
23765W        W39659  18.629   1.507   0.298 -0.2324  0.2003  0.3150
23766W        W39660  11.536   4.554  11.279 -0.1416  0.3866 -0.0296
23767W        W39661   5.224  11.742   3.247 -0.0950 -0.0267 -0.0354
23768W        W39662  11.255  10.533   3.835 -0.0169 -0.2392  0.2736
23769W        W39663  14.494  13.611  11.191  0.2428  0.1270 -0.0358
23770W        W39664  18.084  12.085  13.581 -0.1118 -0.0708 -0.4291
23771W        W39665  16.198   6.593   0.833 -0.1059 -0.0141  0.1592
23772W        W39666   0.321   1.181   0.486  0.2567 -0.0114  0.1526
23773W        W39667  15.455  11.195   4.895 -0.0306  0.0969  0.3702
23774W        W39668   5.078   2.138   0.855  0.0166 -0.0116 -0.2112
23775W        W39669  11.393   1.181   3.451  0.0030  0.0938 -0.1029
23776W        W39670  14.319  11.443  14.025  0.3783  0.1101  0.1453
23777W        W39671   7.595  11.472  14.532  0.1635 -0.2192 -0.0764
23778W        W39672   3.199   7.474   2.776 -0.1778  0.2599  0.2168
23779W        W39673   2.841   7.364   3.533  0.0821 -0.1691  0.3825
23780W        W39674   7.594  11.710   3.140 -0.1162 -0.4591 -0.0721
23781W        W39675  10.629   9.897   3.942 -0.5514  0.1370  0.0467
23782W        W39676   5.037   8.180  12.421 -0.0168 -0.1749 -0.2461
23783W        W39677   8.308  11.876  14.355 -0.0162 -0.1376  0.4851
23784W        W39678   0.138   0.891  10.427  0.1186  0.5366 -0.0554
23785W        W39679  18.778  14.358   1.790 -0.0611  0.0041  0.1342
23786W        W39680  16.579   4.639  11.378  0.1771  0.2583  0.3089
23787W        W39681   3.318  13.162   2.733  0.0333 -0.1432 -0.0196
23788W        W39682  11.013   7.933   5.714  0.1555  0.1004 -0.1787
23789W        W39683   2.100   6.463   0.725 -0.0724 -0.1227 -0.0740
23790W        W39684   7.150  13.018  10.943  0.0806  0.3220 -0.4893
23791W        W39685   4.011  13.474   1.635 -0.0960  0.2714 -0.1450
23792W        W39686   0.840   3.794  14.457  0.0090  0.1430  0.1420
23793W        W39687   6.491  18.714  10.943  0.0376  0.4410  0.0494
23794W        W39688   1.953  17.987  10.670  0.3287 -0.2357  0.1529
23795W        W39689   8.001   2.253   0.498  0.0516  0.1991 -0.0633
23796W        W39690   8.262   3.994  14.403 -0.2744 -0.3175  0.0799
23797W        W39691   9.128  11.491   5.380 -0.0127  0.0195  0.3435
23798W        W39692  14.385  12.221   2.513  0.0436  0.1170 -0.0312
23799W        W39693   9.293   7.916   3.585  0.0103  0.7096 -0.1520
23800W        W39694  13.597  15.605  12.072  0.2466 -0.0197 -0.1529
23801W        W39695  10.073   1.798   0.070 -0.3996 -0.1746 -0.2243
23802W        W39696   8.971   3.961  14.862 -0.2403 -0.1170  0.5148
23803W        W39697  12.036   1.305  14.034  0.0378 -0.3327  0.0333
23804W        W39698   3.110  10.910   2.812 -0.3004  0.0848  0.1412
23805W        W39699   0.530   8.081  10.398  0.0524 -0.1179  0.1513
23806W        W39700  15.991  16.033  10.563  0.0807  0.0070 -0.1657
23807W        W39701   7.381   7.338   1.157 -0.1216  0.1021 -0.0141
23808W        W39702   2.074  15.260   2.630  0.0480  0.0795  0.1105
23809W        W39703   4.295   4.592  11.090 -0.5616 -0.0555  0.0307
23810W        W39704   2.957  18.596   5.590 -0.2339  0.1521 -0.0730
23811W        W39705   7.996   6.921  13.430 -0.1608  0.0128  0.0485
23812W        W39706   8.314  13.826  14.387 -0.2277  0.1741 -0.4687
23813W        W39707   4.275  11.930  13.757  0.0360 -0.3345  0.7045
23814W        W39708   5.043  14.320  13.832 -0.3765  0.1890 -0.1248
23815W        W39709  18.151  13.563   0.571 -0.0634 -0.0201  0.1987
23816W        W39710  19.030  12.349  12.470 -0.1204  0.3774  0.1777
23817W        W39711   4.810  17.262  12.330  0.1303  0.0032 -0.0309
23818W        W39712   3.207   4.038   5.342 -0.0065  0.0238 -0.2944
23819W        W39713   3.394  13.930  10.221  0.0636  0.0710  0.0596
23820W        W39714  13.404  16.686  14.244 -0.0921  0.1430  0.2970
23821W        W39715   0.782   8.829   4.479 -0.0847 -0.4313  0.1523
23822W        W39716  15.433   9.778  13.324  0.1214 -0.1261  0.1300
23823W        W39717   4.014  16.992   1.173  0.3125 -0.2667  0.5596
23824W        W39718   3.695  10.950   0.969 -0.0728  0.1387  0.1180
23825W        W39719   2.371   4.049   2.235  0.0697  0.2515 -0.3789
23826W        W39720   6.882  13.296  13.992 -0.0375  0.5942 -0.2614
23827W        W39721  15.722  18.889   1.419  0.2289  0.1099  0.2357
23828W        W39722   5.213   2.393   2.388  0.0021  0.6680  0.0398
23829W        W39723  18.940  16.567   0.730 -0.1207 -0.0635  0.0635
23830W        W39724  13.135   0.770   4.308 -0.2375  0.1494 -0.1319
23831W        W39725   7.572  18.495   0.921 -0.2179 -0.2010  0.4864
23832W        W39726  18.707  13.856   1.831  0.1011  0.7463 -0.1395
23833W        W39727   6.591  12.920   2.012 -0.1417  0.1064 -0.0240
23834W        W39728  10.863   0.811  12.326 -0.3655 -0.1915  0.3377
23835W        W39729   6.468  11.719   0.298 -0.0522  0.0686  0.0356
23836W        W39730   5.462  10.738   1.299  0.0373  0.0324  0.2346
23837W        W39731  13.553   3.330  13.171  0.1659  0.0600  0.2896
23838W        W39732  10.799  11.174   5.621  0.0714  0.2497  0.1237
23839W        W39733   3.875   2.910  12.845 -0.2927 -0.2580 -0.0100
23840W        W39734   6.378   5.780   1.444  0.0100 -0.1953 -0.0292
23841W        W39735   9.538  12.524  12.288 -0.4399 -0.1072 -0.4996
23842W        W39736   8.908  11.967  12.779 -0.2713  0.0870  0.0781
23843W        W39737   5.310   2.449   3.425  0.4363 -0.0923 -0.1166
23844W        W39738   2.229  17.949  15.086  0.2171 -0.4531 -0.2003
23845W        W39739   3.931   4.723  12.433 -0.0857  0.0425  0.2717
23846W        W39740  17.106  12.332  12.478  0.0373 -0.1587  0.0330
23847W        W39741   3.872   0.239   2.067 -0.0151  0.1104 -0.0144
23848W        W39742  11.616   9.333  11.238  0.0624 -0.0756  0.1907
23849W        W39743   3.399  18.305   9.697 -0.4555  0.3082 -0.0706
23850W        W39744   6.908   8.257  12.677  0.1493 -0.0713  0.0541
23851W        W39745   5.474  18.553  10.911  0.2437 -0.0796  0.0130
23852W        W39746  17.680   4.863   5.271 -0.1894  0.1530 -0.2574
23853W        W39747   6.243   9.682  14.959 -0.0099  0.0814  0.1541
23854W        W39748  17.066   9.589   5.466 -0.0584  0.0435  0.0804
23855W        W39749  11.162  15.971  11.183  0.0314  0.0058 -0.0184
23856W        W39750   0.737  12.090  12.615 -0.1438  0.1705  0.2181
23857W        W39751   1.981  16.373   0.974  0.1343 -0.3669  0.1857
23858W        W39752   5.629  16.148   1.912  0.2880  0.0188  0.1683
23859W        W39753   9.854   0.347   2.532  0.0198  0.1390  0.0365
23860W        W39754  12.366   2.938   3.469  0.0847 -0.2466 -0.4172
23861W        W39755   3.732  16.676  11.923  0.2891  0.1705  0.3689
23862W        W39756  15.070  18.721   9.679  0.0408 -0.0734  0.0636
23863W        W39757   6.799  16.189  14.758  0.0652  0.1049  0.0489
23864W        W39758  17.458  17.314  14.528 -0.0126  0.1966 -0.0756
23865W        W39759   4.028  10.158  10.921  0.1927  0.2565 -0.0574
23866W        W39760   2.508  18.869   4.741  0.2384 -0.1663 -0.3223
23867W        W39761   5.946   1.608  11.867 -0.2319  0.1608 -0.0464
23868W        W39762   4.901  12.093   0.288  0.1615 -0.1614 -0.0450
23869W        W39763  14.450   4.366  12.379  0.0750  0.2264  0.3769
23870W        W39764  17.372   1.148  11.061  0.1423 -0.0063 -0.2106
23871W        W39765  13.463   2.550   5.224  0.1256 -0.3916  0.1377
23872W        W39766  13.875  16.674  10.747  0.1625  0.1498  0.0252
23873W        W39767  17.242   5.764   4.848 -0.2330  0.2208  0.2167
23874W        W39768   8.735  12.779   0.293  0.5750  0.1445 -0.2222
23875W        W39769  12.677   3.405  13.192 -0.2302 -0.0016  0.4838
23876W        W39770  14.350  13.465  12.379 -0.0021  0.0678 -0.1011
23877W        W39771  10.917  19.159  10.007  0.0769  0.1607  0.2062
23878W        W39772   1.496  11.798  12.778  0.0740 -0.1243 -0.2227
23879W        W39773  13.812   8.258   4.316 -0.1764  0.1248  0.0449
23880W        W39774   4.139  13.156   0.341  0.1163 -0.2047  0.1803
23881W        W39775   4.037  15.363   2.320 -0.0841  0.1685  0.1482
23882W        W39776   0.745   4.797   2.718 -0.0573  0.1039  0.0307
23883W        W39777  11.046   9.374   1.378  0.0128  0.1621 -0.0319
23884W        W39778   1.845   6.931   4.709  0.0832 -0.1617  0.1192
23885W        W39779   9.389   4.394   5.388 -0.2376  0.0726 -0.2483
23886W        W39780  14.785   3.200   9.921 -0.1956 -0.0831  0.0361
23887W        W39781   7.282   2.221   2.850 -0.1205 -0.2322 -0.0629
23888W        W39782  12.464   7.271  12.265  0.4413  0.1842 -0.1064
23889W        W39783   0.314  18.544  13.536 -0.0248  0.0161  0.0671
23890W        W39784  13.577  12.959   1.931 -0.3775  0.1700  0.1255
23891W        W39785  14.042   6.315   4.966  0.2831 -0.0366 -0.1143
23892W        W39786   9.620  15.586   1.839  0.3669  0.1948 -0.5512
23893W        W39787  19.196   6.433   2.365  0.0598  0.1360  0.0040
23894W        W39788  11.203   3.757   1.197 -0.1120 -0.0742 -0.2950
23895W        W39789  14.183  12.224   3.092  0.4162  0.3521  0.0538
23896W        W39790  13.021   0.323  13.311  0.0158  0.0010 -0.1944
23897W        W39791  12.240  10.090  10.969  0.0380 -0.0585 -0.2004
23898W        W39792   9.936  16.416   0.760  0.0939 -0.1123  0.4659
23899W        W39793   1.602  16.086  10.139 -0.1824  0.0201  0.2907
23900W        W39794  15.811  17.278  12.680  0.1423  0.0838 -0.0490
23901W        W39795  16.727   6.594  11.125  0.3438  0.2589 -0.2063
23902W        W39796   7.847  18.431   5.424 -0.0428  0.0208  0.4207
23903W        W39797   9.125  16.517  12.822  0.0059 -0.0307  0.0197
23904W        W39798  14.290  11.612   2.423 -0.1338  0.0168  0.0034
23905W        W39799   0.074  17.914   2.782 -0.1120  0.0875  0.2051
23906W        W39800  18.546  10.673   2.372 -0.1233  0.1340 -0.1212
23907W        W39801  14.216   8.914  12.867  0.3197 -0.0066 -0.0134
23908W        W39802   6.495   6.755  13.228 -0.2018  0.1328  0.0520
23909W        W39803   0.524  18.875   2.422  0.2520  0.1076  0.3536
23910W        W39804  18.222   0.130   2.698  0.1086 -0.1307 -0.2130
23911W        W39805   9.983  10.694  12.158  0.0235 -0.3183 -0.3505
23912W        W39806  10.339   2.406  13.371 -0.0193 -0.2087 -0.3112
23913W        W39807   4.113  14.567   1.636 -0.0965 -0.0633 -0.5326
23914W        W39808   3.902   8.368  13.018 -0.0645  0.0275 -0.0005
23915W        W39809  10.499  13.395  13.761 -0.1176  0.1552 -0.2442
23916W        W39810  13.962  11.391   4.823 -0.1497 -0.0219  0.0545
23917W        W39811   6.392  18.968   2.992  0.3266 -0.2306 -0.1388
23918W        W39812  17.082  13.188   4.495  0.1692 -0.2916  0.1707
23919W        W39813   0.828  13.839  12.110 -0.1607 -0.0205  0.3025
23920W        W39814   9.811  18.287   3.555 -0.1135 -0.0551 -0.1900
23921W        W39815  11.497   4.907  14.327 -0.1823  0.3256  0.1318
23922W        W39816  11.950  16.908  14.674 -0.1896 -0.0172 -0.0791
23923W        W39817   8.956   6.161   4.192  0.3217 -0.4767  0.1698
23924W        W39818  11.084   2.074  11.075  0.1546  0.0991 -0.0698
23925W        W39819   6.653  17.471  11.824  0.0770 -0.1965  0.1590
23926W        W39820  12.017  11.651   2.966 -0.0510  0.0637 -0.2625
23927W        W39821   8.399   6.606  10.424  0.0000  0.1814  0.0271
23928W        W39822   6.140   6.935  12.834  0.1208  0.4937 -0.2493
23929W        W39823  10.336  14.643  12.191  0.2248 -0.2364  0.1367
23930W        W39824   8.533   8.136   1.754 -0.0121 -0.2996 -0.1752
23931W        W39825  11.735  11.058  10.502  0.1678  0.3685  0.2425
23932W        W39826   9.769  17.786  13.545 -0.0493  0.0122  0.0430
23933W        W39827   8.416  11.936  14.944 -0.0573 -0.1297  0.0710
23934W        W39828   2.425  17.444   1.978  0.2497 -0.2715 -0.2167
23935W        W39829  18.852   7.110  12.982  0.3766  0.0898 -0.4514
23936W        W39830  13.593   1.972   2.571 -0.0669  0.1199 -0.1356
23937W        W39831  11.984   2.103  12.205  0.2452  0.1548 -0.0791
23938W        W39832   2.449  17.306  13.808  0.0718 -0.2239 -0.1932
23939W        W39833   7.387  10.034   0.266 -0.1636 -0.2150  0.2367
23940W        W39834   1.492  14.921  12.325  0.2909  0.1084 -0.0466
23941W        W39835  14.321  13.923  13.797 -0.2352 -0.2539 -0.0138
23942W        W39836   7.229  12.684  12.268 -0.0029  0.0556 -0.0702
23943W        W39837  11.159   6.873  11.230  0.2320  0.1917  0.0887
23944W        W39838   3.160  15.506  13.700 -0.2696  0.2057 -0.1597
23945W        W39839   7.380   5.040   5.185  0.1851  0.0704  0.2710
23946W        W39840   5.032   7.135   0.301 -0.1030 -0.0173 -0.2255
23947W        W39841   6.026   5.215   3.431  0.0337  0.1398 -0.3418
23948W        W39842  10.203   7.300   0.404 -0.1414  0.3356  0.0384
23949W        W39843   6.846   1.608   0.052  0.1505  0.0630 -0.0152
23950W        W39844  15.824   0.390  12.025 -0.1692  0.0422 -0.0807
23951W        W39845  13.850  11.879   2.220 -0.1194  0.3392 -0.0039
23952W        W39846   3.684  17.850  11.508 -0.0199 -0.2635 -0.2123
23953W        W39847  18.509   0.667  12.272  0.1184  0.0407 -0.0381
23954W        W39848   8.109  12.194  13.137  0.1709  0.3109  0.0960
23955W        W39849   9.727  16.425  13.338 -0.3117 -0.0730  0.2485
23956W        W39850  15.222   1.487  12.624  0.1420 -0.3461  0.1478
23957W        W39851   9.594  17.305   5.290 -0.0168 -0.2041 -0.0663
23958W        W39852   4.575   5.143   1.800 -0.1861  0.0408  0.2697
23959W        W39853  18.906  14.964   3.395 -0.0762  0.1017 -0.3429
23960W        W39854  17.533   5.065   1.153  0.3781  0.1112  0.2309
23961W        W39855   5.471  10.303   3.367  0.1218  0.0099 -0.1811
23962W        W39856   7.043  15.546   9.859  0.1241 -0.1392  0.1421
23963W        W39857  11.285  11.187   0.073  0.1046 -0.1011  0.0035
23964W        W39858   2.417   8.514  12.994  0.2962 -0.0072  0.4447
23965W        W39859  16.822   9.398  13.735 -0.0567 -0.1926 -0.0374
23966W        W39860   1.758  14.863  12.929  0.1532  0.2043 -0.0984
23967W        W39861  17.840   4.908   3.242  0.3242 -0.0129  0.0120
23968W        W39862  16.282  15.075   4.108 -0.2894  0.1465 -0.0929
23969W        W39863   4.572  17.181  13.215  0.1343 -0.0248  0.1855
23970W        W39864  16.506  11.830   2.677 -0.3456 -0.0217  0.0015
23971W        W39865   5.981  17.788   0.570  0.0411  0.0237 -0.0281
23972W        W39866  11.582   3.559   0.903  0.1541 -0.0525 -0.3725
23973W        W39867  10.359   2.430  10.046  0.0994 -0.0589  0.0670
23974W        W39868   9.898  11.184  14.981 -0.3391  0.1230  0.0695
23975W        W39869  10.037  18.705   1.580 -0.2322 -0.2284  0.2277
23976W        W39870   0.917  19.050   1.311  0.1538 -0.2801 -0.0296
23977W        W39871   4.337  10.949   3.049  0.1993 -0.0110  0.0428
23978W        W39872   0.975   7.338  14.478  0.0325 -0.0285 -0.0959
23979W        W39873   9.149   2.672  11.457  0.0053 -0.0139 -0.1767
23980W        W39874  10.834   2.127  13.285 -0.0874 -0.3834 -0.0715
23981W        W39875  11.254   9.156  10.750 -0.2399 -0.1060 -0.0255
23982W        W39876  15.372   1.005  14.906  0.3574 -0.0725  0.0922
23983W        W39877   7.599  16.546  11.482  0.0266  0.2056 -0.0391
23984W        W39878  18.729  15.637  10.664 -0.4901  0.0494 -0.1327
23985W        W39879   0.659   6.149   0.000  0.0923 -0.0324 -0.3379
23986W        W39880  19.178  15.351   4.078 -0.0085 -0.1390 -0.3426
23987W        W39881  11.770  10.323   3.456  0.2448  0.0857 -0.0581
23988W        W39882  12.491   8.984   2.638  0.0715 -0.4526 -0.0578
23989W        W39883   1.427  18.246  11.375 -0.2301  0.2573  0.0653
23990W        W39884   3.494   0.707   0.389 -0.1416  0.0478 -0.2395
23991W        W39885   4.928   1.987   1.314  0.2517 -0.4534  0.1142
23992W        W39886  13.322   8.186   0.612 -0.0239  0.0571  0.0297
23993W        W39887   5.861  12.064  13.094  0.1815  0.0763  0.0720
23994W        W39888  11.235  12.434   0.133 -0.0659  0.0564 -0.0253
23995W        W39889  17.109  14.147   3.870  0.2389  0.2895 -0.1199
23996W        W39890  12.610   4.896   3.795  0.0106  0.0284 -0.1080
23997W        W39891  14.341   0.909   5.410  0.3264  0.0419  0.0692
23998W        W39892   6.517  14.037   1.472 -0.1209 -0.3222  0.0832
23999W        W39893   1.500  11.612   4.040 -0.0318 -0.3715 -0.1700
24000W        W39894   5.587   7.604  10.852  0.3617 -0.2281 -0.0292
24001W        W39895  12.545   6.431   4.034 -0.0315 -0.4993 -0.0665
24002W        W39896   3.937  16.982   5.223 -0.3248  0.2571  0.2877
24003W        W39897   1.561   6.369  10.704  0.0147  0.5283 -0.1317
24004W        W39898   3.302   7.799   4.051  0.1380 -0.2494  0.3877
24005W        W39899   3.914   6.312   2.013 -0.2534 -0.3670 -0.0669
24006W        W39900  13.828   7.299  12.321  0.1370  0.0719 -0.0335
24007W        W39901   8.801   5.947   9.901 -0.1326 -0.3497 -0.2489
24008W        W39902   3.177  10.166   1.989  0.0323  0.2691 -0.0318
24009W        W39903  13.898  10.470  14.113  0.1433 -0.1534 -0.1512
24010W        W39904   9.609   1.956  12.104  0.3649  0.0439  0.1355
24011W        W39905  12.909   1.339   0.460  0.1724 -0.0598 -0.1336
24012W        W39906  11.971  15.825  13.506 -0.0133  0.2244  0.0120
24013W        W39907   7.397  17.604   0.861 -0.2273 -0.5020 -0.1345
24014W        W39908  10.515   8.034   2.232 -0.0667 -0.0936  0.1747
24015W        W39909  17.974  15.159  14.806 -0.2749 -0.1365  0.2980
24016W        W39910   0.971  18.548   3.309  0.0165 -0.0233  0.1471
24017W        W39911  17.498   0.354  14.564  0.0640  0.1464  0.0052
24018W        W39912  18.601   9.341   5.052 -0.0121 -0.0968 -0.1915
24019W        W39913  12.469   0.276   5.167 -0.0973  0.0421  0.1996
24020W        W39914  14.100   5.438   3.472  0.2554  0.1018  0.0121
24021W        W39915   2.930   7.437   0.480  0.1044  0.0735  0.0814
24022W        W39916  14.249   5.042   1.075 -0.0884 -0.0148  0.0606
24023W        W39917  15.700   3.080  13.824 -0.0310  0.0897 -0.0429
24024W        W39918  16.875   0.390  13.150 -0.2711  0.1201 -0.0797
24025W        W39919   4.884   6.779   4.365 -0.2341 -0.2119  0.1192
24026W        W39920  10.826  19.112  14.515  0.0955 -0.2742 -0.1851
24027W        W39921  16.187   5.747  11.776  0.0287  0.0045  0.0893
24028W        W39922   7.633   4.733  13.186  0.0115 -0.2462 -0.1478
24029W        W39923   0.455   4.749   3.640  0.0917  0.0331  0.1331
24030W        W39924   8.101   8.788   4.113 -0.0323  0.0155 -0.2575
24031W        W39925  16.700  15.623  12.163 -0.0447  0.0793 -0.3258
24032W        W39926  14.282   2.557   0.183  0.1158  0.0031  0.0882
24033W        W39927  12.830   2.268   0.522  0.2883 -0.2102 -0.2726
24034W        W39928   5.661  18.127  10.733  0.1684 -0.1043 -0.2535
24035W        W39929   1.862   6.445  14.889  0.1093 -0.1112  0.1594
24036W        W39930   9.582  11.333  12.671 -0.0186  0.3992 -0.0817
24037W        W39931  17.294  10.538   1.677  0.2211 -0.1540 -0.0538
24038W        W39932   9.637  18.562  10.513 -0.1130 -0.0121 -0.0202
24039W        W39933  17.580  14.638   5.280  0.0741 -0.0014 -0.1099
24040W        W39934  17.807  19.177  12.228  0.2508  0.0670 -0.1086
24041W        W39935   8.563  18.497   1.484 -0.2408  0.1874  0.0443
24042W        W39936   7.536   6.058   5.492 -0.3300 -0.3397 -0.3243
24043W        W39937  15.085   5.950  13.856  0.2209  0.0419 -0.1677
24044W        W39938   0.205   1.742  13.459  0.0622 -0.1250  0.1949
24045W        W39939   4.386   2.920  12.119 -0.1877  0.0293 -0.3088
24046W        W39940   6.818   1.622  12.347  0.0658 -0.1331 -0.1156
24047W        W39941   8.340   3.474   4.737 -0.1082  0.2304  0.1666
24048W        W39942   4.164  19.108   3.338 -0.0464  0.1473 -0.0593
24049W        W39943  15.650  15.291  10.088  0.0414  0.1204  0.0554
24050W        W39944  13.743   1.843   4.638 -0.1741  0.1357 -0.3012
24051W        W39945   3.843   9.156   1.175  0.1473 -0.0282  0.0709
24052W        W39946  10.234   7.504  14.288  0.1915 -0.0899 -0.5272
24053W        W39947  10.905  15.580  11.697  0.1486 -0.1546  0.2788
24054W        W39948   8.267  14.461  13.313 -0.1033 -0.1614 -0.2760
24055W        W39949  13.892  15.026   4.115 -0.2723 -0.0254 -0.2682
24056W        W39950  15.843   6.635  14.225 -0.1482 -0.0810 -0.0612
24057W        W39951   8.399   6.098   0.127  0.2862 -0.1696 -0.1249
24058W        W39952   7.001   5.678   3.354  0.4850 -0.3020  0.1148
24059W        W39953   1.671  11.471  13.223 -0.1775 -0.0977 -0.2794
24060W        W39954  13.955   6.077  13.670  0.4425 -0.1982 -0.0562
24061W        W39955  10.746   6.619  11.287 -0.0944  0.0725  0.1852
24062W        W39956  15.562  16.795   4.308 -0.0658 -0.1046  0.2734
24063W        W39957  15.443  15.562   1.087 -0.3081  0.3930 -0.0315
24064W        W39958   0.286  15.335   4.474  0.5802  0.0249 -0.2987
24065W        W39959  11.771   6.141  10.595  0.0953 -0.2234  0.0287
24066W        W39960   5.321  14.348  11.309 -0.0640  0.0160  0.0560
24067W        W39961   6.553   9.123  12.842 -0.2743  0.0719  0.0347
24068W        W39962   2.468  12.862   3.126 -0.0510 -0.0193  0.0989
24069W        W39963  12.191  16.797   9.309  0.2918 -0.1090 -0.3328
24070W        W39964  14.056  16.122   2.535 -0.1596  0.3342  0.1705
24071W        W39965   7.055  10.952   0.819  0.3595  0.2069 -0.0272
24072W        W39966  10.860   3.989  10.839 -0.0435  0.3720  0.0142
24073W        W39967   5.923   3.061   1.515 -0.0839  0.0027  0.4037
24074W        W39968  11.473  10.411   4.390 -0.2823  0.3049 -0.1812
24075W        W39969  16.034   0.389   1.057 -0.1360 -0.3429 -0.2953
24076W        W39970   0.556  13.276   2.789 -0.2035 -0.1496  0.2127
24077W        W39971   3.601   5.925   4.875  0.1139 -0.0612  0.1314
24078W        W39972  16.352   9.620  13.915  0.0049  0.1253  0.0346
24079W        W39973  10.909  12.611  10.249  0.0313  0.0818  0.3384
24080W        W39974   4.893  11.328  10.493 -0.1921 -0.1053 -0.3111
24081W        W39975  18.458  12.174  10.027  0.3147  0.3849  0.2378
24082W        W39976  16.147   9.979   4.175 -0.2529  0.1498 -0.0005
24083W        W39977   7.172   5.662   4.857 -0.1113  0.1590  0.2684
24084W        W39978   7.156  12.885   1.860 -0.2457 -0.2211 -0.2994
24085W        W39979   7.566   7.715   5.417 -0.2192 -0.0195 -0.2728
24086W        W39980  15.172   0.259  13.769 -0.1190 -0.0689 -0.2818
24087W        W39981  13.608  16.021   3.467  0.1367 -0.1903 -0.4134
24088W        W39982  17.729  11.952  14.625 -0.0877 -0.0386 -0.2962
24089W        W39983  16.877  18.471   0.360  0.2806  0.1749 -0.1374
24090W        W39984  14.664   2.495   1.569 -0.0594 -0.1050 -0.1547
24091W        W39985  14.911  18.281   4.523 -0.0721  0.3482 -0.1841
24092W        W39986   2.579  16.841  13.685 -0.3730 -0.0126  0.0542
24093W        W39987   1.598  13.923   2.792 -0.0368 -0.0524 -0.0459
24094W        W39988  18.304   1.944  14.158 -0.0686 -0.0592  0.0034
24095W        W39989  17.255   4.831  13.856  0.0870  0.0934 -0.4338
24096W        W39990   1.385  14.039   2.154  0.0991  0.0222  0.3269
24097W        W39991  10.056   1.947  12.382  0.1358  0.1822 -0.2092
24098W        W39992   6.867   1.635  11.314 -0.3438  0.1356  0.1664
24099W        W39993  17.900   6.567  10.682  0.0106 -0.0361  0.2579
24100W        W39994  10.084   9.793  12.192 -0.2811  0.1723 -0.3374
24101W        W39995  18.918  16.824  10.209  0.0242  0.3017  0.2921
24102W        W39996  14.419   0.580   1.294  0.3543 -0.2166  0.1447
24103W        W39997  10.881  14.082   3.328  0.0735  0.1470  0.0931
24104W        W39998   2.213   9.091  14.219 -0.1855  0.0011  0.1217
24105W        W39999   3.321  14.697   4.307 -0.1071  0.0957  0.3058
24106W        W40000   5.142   2.958  14.640  0.2459  0.2076 -0.1249
24107W        W40001   6.527  16.142   1.766 -0.1249  0.0809  0.1810
24108W        W40002   3.875   5.135   3.316  0.0226  0.1193 -0.3477
24109W        W40003  14.953  13.848  11.131 -0.0203 -0.1615 -0.2417
24110W        W40004   8.324  17.922   9.796 -0.3455  0.3254 -0.0873
24111W        W40005   3.837  14.141   4.594  0.1010 -0.4159 -0.0771
24112W        W40006   0.666   7.973   3.950  0.2216 -0.0784 -0.2124
24113W        W40007   2.190  15.534   5.138  0.2177  0.3752 -0.1471
24114W        W40008   6.588  17.115   4.674  0.0505  0.0093 -0.2936
24115W        W40009   4.247   1.594   2.994 -0.2275 -0.0433 -0.0069
24116W        W40010   0.969   2.728  10.986  0.1502 -0.0739  0.0735
24117W        W40011  14.730   0.282   1.545 -0.2508  0.1825  0.2278
24118W        W40012   2.747   3.573   1.597 -0.5231  0.1510 -0.3398
24119W        W40013   0.554  12.817  10.146  0.3866  0.2385  0.2157
24120W        W40014   0.678   0.574   4.064 -0.1142  0.2061 -0.1507
24121W        W40015   7.794  15.705  11.106  0.1311  0.1673 -0.0206
24122W        W40016   5.074  17.198  11.004  0.3750  0.5819  0.2565
24123W        W40017   7.231   2.458  11.640  0.0563  0.1122 -0.0488
24124W        W40018   2.151   5.060  14.910  0.3115 -0.1387 -0.0719
24125W        W40019   9.725   1.548   1.496 -0.0483  0.1001  0.1506
24126W        W40020  13.403  16.920  12.918  0.2258  0.2017  0.2124
24127W        W40021   1.176   6.943   0.255 -0.2289  0.0464 -0.2556
24128W        W40022  19.172   2.779   2.545  0.2005 -0.0430  0.2236
24129W        W40023  17.700  18.445  13.086 -0.0242  0.2928  0.0932
24130W        W40024   5.906   0.745  14.823 -0.1719  0.2832 -0.2038
24131W        W40025   9.001  11.342   2.754 -0.3513 -0.0422  0.0452
24132W        W40026   1.279  15.718   3.331  0.2119  0.1611 -0.2930
24133W        W40027   9.103   0.606   2.653 -0.0108 -0.1822 -0.0222
24134W        W40028  11.270   9.850   1.192  0.1564 -0.0499 -0.1599
24135W        W40029  18.016  18.590  13.626  0.2532  0.0835  0.0093
24136W        W40030   8.515  12.711   2.314 -0.2425 -0.1729  0.2170
24137W        W40031   8.203  18.333  14.119 -0.1496 -0.2163  0.0707
24138W        W40032  14.193  17.012  14.204 -0.1702  0.0047  0.2683
24139W        W40033  10.810  14.484   5.099 -0.2467 -0.0308  0.3433
24140W        W40034   3.375  14.777   1.758  0.1995 -0.1690 -0.0559
24141W        W40035  16.031  12.864  11.276  0.1354 -0.1541 -0.0590
24142W        W40036   2.485  15.068  12.621 -0.1082  0.0461  0.0839
24143W        W40037   8.393  12.782   1.340 -0.1415  0.2352  0.1804
24144W        W40038   5.038   2.556   1.424  0.1258  0.0695  0.0557
24145W        W40039   3.080   2.125   4.462 -0.0246 -0.1677 -0.1262
24146W        W40040  12.614   7.032   0.858  0.0308  0.0474 -0.1037
24147W        W40041  15.262  19.159   0.564  0.0272  0.0357 -0.0425
24148W        W40042  18.661   7.952  12.516 -0.3512 -0.0277 -0.1740
24149W        W40043  16.260  14.007  14.779 -0.1820  0.0599 -0.2601
24150W        W40044   4.000  12.497   4.374  0.0326 -0.2377  0.0863
24151W        W40045  11.797  15.567   5.340 -0.2063 -0.2272  0.0507
24152W        W40046   0.812  18.526  13.728 -0.1192  0.1972  0.3407
24153W        W40047  14.733   6.468   4.930  0.0584 -0.0583  0.0031
24154W        W40048   2.419  15.054  11.299 -0.1878 -0.0018  0.1559
24155W        W40049  15.207   0.640  11.664  0.1305 -0.2294  0.1335
24156W        W40050   3.068   7.958   0.335 -0.0282 -0.1108 -0.1339
24157W        W40051  15.755  12.857  10.846  0.1279 -0.2747 -0.0030
24158W        W40052  15.461   9.275  11.885  0.0240 -0.4086 -0.1625
24159W        W40053   4.781  16.794   4.587 -0.2717  0.1536  0.3256
24160W        W40054   3.185   7.031   3.947  0.1180 -0.0464  0.3874
24161W        W40055   1.696  16.842  12.327  0.0509 -0.0476 -0.2620
24162W        W40056   1.629  12.887   1.647 -0.0224  0.3210 -0.0016
24163W        W40057   5.734   9.665  14.908  0.2768 -0.0633 -0.0490
24164W        W40058   9.849   9.158  12.246 -0.2051 -0.0626  0.3021
24165W        W40059   9.034   5.449   3.699  0.1235 -0.2852  0.0073
24166W        W40060   1.072  12.671   2.184 -0.0791  0.4372  0.0208
24167W        W40061  19.218  14.498   1.486  0.1444 -0.1672  0.1743
24168W        W40062   4.091  11.722   0.545 -0.0611 -0.0200  0.2555
24169W        W40063  15.188  17.647   4.986 -0.2652 -0.0827 -0.0521
24170W        W40064   4.194  11.737   2.873 -0.0429 -0.3409 -0.0955
24171W        W40065   1.584  15.729  13.776 -0.1436  0.4390  0.1337
24172W        W40066   2.568  12.547  15.009 -0.1426 -0.2408 -0.0138
24173W        W40067  13.390   1.501  14.965 -0.1087  0.1585  0.2212
24174W        W40068  12.345   6.372  14.870 -0.0356  0.3550  0.0623
24175W        W40069  11.523   9.588  10.801 -0.0358  0.0904  0.0519
24176W        W40070  15.626  16.328   1.445 -0.0366  0.1170  0.2391
24177W        W40071  18.277   2.439   4.396 -0.2398 -0.4054 -0.4035
24178W        W40072  11.658  17.337   2.619 -0.2357 -0.1654 -0.2586
24179W        W40073   5.150   4.803  11.762 -0.0254 -0.0725 -0.0040
24180W        W40074  13.607  18.706   0.154  0.0058  0.1853 -0.1024
24181W        W40075   6.318  10.219   5.019 -0.2338 -0.5023  0.1191
24182W        W40076  10.693  16.883   3.873  0.0172  0.3529  0.1129
24183W        W40077   2.508   5.060  11.225 -0.0150  0.1631  0.1805
24184W        W40078   4.316  19.074  10.479 -0.0914  0.1611  0.1347
24185W        W40079   0.838  13.882  10.319  0.1474 -0.1437  0.0753
24186W        W40080  14.750  16.196  14.149  0.1956  0.1727  0.2010
24187W        W40081  14.518  16.209  11.168 -0.0152 -0.3300  0.0528
24188W        W40082   2.175  15.713  12.005  0.0940 -0.1446  0.1649
24189W        W40083   3.502  17.439  11.047  0.1865 -0.0865  0.4080
24190W        W40084   0.923  10.299   2.369 -0.0478 -0.1024 -0.1596
24191W        W40085  12.185   2.378   1.659 -0.1169 -0.4100  0.0391
24192W        W40086  15.869  15.468   4.707  0.1382  0.1635 -0.0113
24193W        W40087   4.191   1.088   2.932 -0.1000  0.0494  0.0953
24194W        W40088  14.487   9.991   1.020  0.0777 -0.0911  0.1170
24195W        W40089   6.580   2.711  14.066 -0.1299 -0.0020 -0.1850
24196W        W40090   9.777   6.049   2.666 -0.1927  0.3028 -0.0347
24197W        W40091  14.901   3.642  12.746 -0.0903  0.0057  0.4930
24198W        W40092  14.160   0.204  14.670 -0.2551 -0.1625 -0.0566
24199W        W40093  10.247  17.861  10.931 -0.1311 -0.0892 -0.1163
24200W        W40094  17.965  11.823  10.625  0.0960  0.1025 -0.0903
24201W        W40095   7.646   0.503  11.072  0.2458 -0.2750  0.2866
24202W        W40096  12.713  18.246   0.273 -0.1720  0.0403 -0.0023
24203W        W40097  10.259   2.595   3.532  0.3126 -0.3029 -0.2443
24204W        W40098   3.320   6.804   2.934 -0.0579 -0.3665 -0.1680
24205W        W40099  12.960  18.970  13.323  0.2176  0.0053  0.1456
24206W        W40100  16.988  12.821   9.770  0.0409  0.1973 -0.0976
24207W        W40101   8.424  11.554  11.084  0.3019  0.2367 -0.0082
24208W        W40102   6.418   4.016  11.915 -0.0043 -0.2328  0.0246
24209W        W40103   9.790   6.246   3.746  0.2843  0.3446  0.1472
24210W        W40104   8.220   7.878   2.100  0.0020  0.2105 -0.1556
24211W        W40105   3.539   8.420   4.900  0.0633 -0.5225 -0.1208
24212W        W40106   6.680  14.681   9.603 -0.2347  0.1602 -0.4066
24213W        W40107  13.174   2.110   2.315 -0.0209 -0.0828 -0.0274
24214W        W40108  14.004   3.691  12.399 -0.0111 -0.0653  0.0249
24215W        W40109   4.363   9.240  14.230 -0.2100  0.1651  0.0423
24216W        W40110   9.468   3.597   3.921 -0.1759 -0.1378 -0.2012
24217W        W40111   3.224  15.954  11.677 -0.0158  0.0988  0.1556
24218W        W40112   7.287   5.730   1.621  0.1355  0.0149 -0.0518
24219W        W40113   8.376   0.642   2.329 -0.0430 -0.0149 -0.0427
24220W        W40114  15.471  15.875  13.116  0.2366 -0.2714 -0.1756
24221W        W40115   4.089   1.088  10.551  0.2304 -0.2570  0.4462
24222W        W40116  13.772   4.847   0.287  0.2306  0.1142 -0.3720
24223W        W40117  11.736  16.365   3.589  0.2928 -0.1676  0.0856
24224W        W40118  11.362  12.066  11.447 -0.0956  0.1283  0.1060
24225W        W40119   5.139  16.085   0.470  0.2302  0.2058  0.1764
24226W        W40120  13.976  12.677   1.861 -0.0012  0.2451 -0.0693
24227W        W40121  10.653   2.526   3.017 -0.2368  0.3445  0.1115
24228W        W40122   1.809   7.592   1.952 -0.1408  0.0496  0.1139
24229W        W40123  13.030   4.316  13.382  0.0798  0.0180 -0.0497
24230W        W40124  13.924  17.826  14.947 -0.2441 -0.2734 -0.2658
24231W        W40125  14.173   6.905   2.472  0.0570  0.1117 -0.0500
24232W        W40126  14.208  18.769   1.815  0.0058  0.2313  0.0530
24233W        W40127   8.005  14.875   0.717 -0.1879  0.0355 -0.0071
24234W        W40128   8.599   0.812  13.404 -0.1664 -0.2673  0.3087
24235W        W40129  12.088   8.908   5.203 -0.3304 -0.0362  0.1416
24236W        W40130   4.668   9.855  13.526  0.2644  0.2636 -0.1701
24237W        W40131   1.432   2.948  14.318  0.0996  0.1954 -0.3185
24238W        W40132   2.548   9.028  15.073  0.1000 -0.2888 -0.1770
24239W        W40133  16.864   3.038  14.238 -0.1076 -0.1391  0.4399
24240W        W40134  14.591   3.697   0.017  0.1256  0.2127  0.0817
24241W        W40135  14.346   6.027  12.784  0.0907 -0.1204  0.1069
24242W        W40136  13.338  17.465  13.767 -0.0330  0.3324 -0.2689
24243W        W40137  17.152  10.305   3.385  0.2730  0.1596  0.2537
24244W        W40138   8.376   9.825  14.591  0.0769 -0.0040  0.1378
24245W        W40139  14.499   1.091   2.070 -0.2949 -0.2207  0.1673
24246W        W40140   7.544   4.509   3.456 -0.1349  0.2012 -0.2168
24247W        W40141  14.339   9.199   3.470 -0.0326  0.0319  0.1647
24248W        W40142   1.071   0.999  14.416  0.3442 -0.1224 -0.0667
24249W        W40143   7.642  14.509   0.754 -0.1553  0.1039 -0.1405
24250W        W40144  16.882  11.000  13.384  0.0826  0.3917  0.1407
24251W        W40145   1.818  13.838   1.912  0.0631  0.3977 -0.0199
24252W        W40146   7.563  19.082  12.904 -0.0694  0.1990 -0.1543
24253W        W40147  16.677   2.232  14.741 -0.4788 -0.3045 -0.2790
24254W        W40148   2.451   2.715  14.521 -0.2936 -0.1389 -0.1220
24255W        W40149  15.235  17.093   0.595 -0.0254  0.1436  0.1397
24256W        W40150   8.873  10.414   4.408 -0.1554 -0.1601  0.0201
24257W        W40151  16.816  17.927   2.327  0.2341 -0.2735 -0.0017
24258W        W40152  10.665   7.120   0.058  0.3750 -0.2201 -0.3793
24259W        W40153   9.313  16.290  14.761  0.2217  0.1020 -0.0907
24260W        W40154   2.562   6.394  13.582  0.1550 -0.3135  0.0199
24261W        W40155   0.009   2.340  10.735 -0.1046  0.2971 -0.0690
24262W        W40156   9.798  15.259   3.762  0.0194  0.0702  0.1945
24263W        W40157   1.354   5.865   3.972 -0.1436 -0.1755  0.2820
24264W        W40158  17.439  10.809  11.103  0.0950  0.1030  0.0237
24265W        W40159   8.058  15.237   2.626 -0.0295  0.2602  0.1954
24266W        W40160  14.835   3.643   0.924 -0.0378  0.2976 -0.3989
24267W        W40161   4.499   3.266  13.222  0.0488  0.1933 -0.3143
24268W        W40162   1.983   7.044  13.683  0.1375 -0.1723  0.0831
24269W        W40163   3.493  15.946  12.487  0.1674 -0.1487  0.1238
24270W        W40164  10.739  12.379   9.450 -0.0088  0.2679  0.0536
24271W        W40165   6.763  14.495  12.925 -0.0784 -0.2027 -0.0682
24272W        W40166   6.399   8.758  13.802 -0.0270 -0.2287  0.2160
24273W        W40167  18.692  15.128  11.693 -0.1523 -0.0903  0.0486
24274W        W40168   1.007  19.125  13.716  0.2573 -0.1688 -0.0100
24275W        W40169  14.697   9.648  11.102 -0.0721  0.0148  0.2803
24276W        W40170  16.688   5.046   4.848 -0.2998 -0.1395 -0.1616
24277W        W40171   0.208   7.562   4.676  0.0409 -0.0664 -0.3018
24278W        W40172   5.915  18.660   3.191 -0.0342  0.0622  0.1278
24279W        W40173  16.019  10.096   3.679 -0.2455  0.1272  0.1417
24280W        W40174   5.412   2.885   2.358 -0.0109  0.1278  0.1685
24281W        W40175  13.065  11.924   0.138 -0.1463  0.1989 -0.7205
24282W        W40176   9.496   8.737  12.914  0.0048 -0.0027  0.2949
24283W        W40177  15.798   1.956   1.901  0.2403 -0.2129 -0.4421
24284W        W40178   1.463  14.858   5.797 -0.2083  0.4104 -0.1793
24285W        W40179   4.970  14.967  10.384 -0.4507 -0.1410 -0.3098
24286W        W40180   4.824   3.772  13.155  0.0362 -0.1463 -0.0105
24287W        W40181   1.940  16.562  11.982  0.1480 -0.4744  0.0752
24288W        W40182  15.914   2.438  12.138 -0.1778 -0.1385 -0.3746
24289W        W40183   7.895  16.774   3.985  0.0213  0.0551 -0.0041
24290W        W40184  10.394  17.812   1.532 -0.1169  0.0218 -0.2155
24291W        W40185   1.667   6.873   1.473  0.1735 -0.1339 -0.3450
24292W        W40186   8.970  18.297   3.080 -0.1472  0.3193 -0.1563
24293W        W40187  13.540  15.382  10.358  0.1717  0.0237 -0.0234
24294W        W40188   3.381  13.812  13.678  0.0723  0.0149 -0.2201
24295W        W40189  19.096  11.870  11.159  0.0810  0.1513  0.0627
24296W        W40190   9.256  15.254   1.051  0.1838 -0.3248 -0.0286
24297W        W40191   7.691  15.973   3.658 -0.0934  0.0411 -0.0371
24298W        W40192  18.373   8.413   3.844 -0.0875 -0.1127  0.0125
24299W        W40193   3.904   7.480  13.898 -0.1043 -0.1703  0.3242
24300W        W40194  12.458  12.552   2.627  0.1007 -0.0709  0.1967
24301W        W40195  11.231  10.290  11.615 -0.0316 -0.0460  0.3655
24302W        W40196  18.990  12.531  14.024 -0.1298  0.0463 -0.1925
24303W        W40197   6.441   1.921  12.547 -0.2036  0.0271  0.0433
24304W        W40198   8.687  15.359   0.326 -0.1167  0.0910  0.4295
24305W        W40199   1.371   5.524  12.846  0.1812 -0.1755 -0.2294
24306W        W40200  14.594   6.631   0.225  0.0216 -0.1656 -0.1501
24307W        W40201   0.501   9.450   2.713  0.3213  0.0489 -0.0840
24308W        W40202   3.513  12.678  14.932  0.1333 -0.0644  0.0838
24309W        W40203   5.370  14.928   3.492 -0.1268 -0.1887  0.0887
24310W        W40204   6.910  10.694  12.634  0.0710  0.1661  0.0975
24311W        W40205  13.779   3.213  10.683 -0.0038 -0.2998  0.0575
24312W        W40206   9.397  14.238   2.517 -0.0385 -0.0732 -0.0196
24313W        W40207  13.555   8.190   5.554  0.1199 -0.1200 -0.1857
24314W        W40208   1.935   0.371  12.515  0.2099  0.1674  0.0044
24315W        W40209  16.910   5.364   0.494  0.0463 -0.3197 -0.1655
24316W        W40210  14.362   4.047  10.518  0.1069 -0.0741  0.1544
24317W        W40211  10.772  15.914  12.541 -0.1274  0.1024 -0.0750
24318W        W40212  18.021   9.423   2.808  0.0310  0.0584 -0.3323
24319W        W40213  12.777   4.747  13.182  0.0983 -0.1730  0.5627
24320W        W40214   3.019  15.060  12.758 -0.0342  0.1041 -0.0463
24321W        W40215  13.506  16.187   2.524  0.4298 -0.0576 -0.0919
24322W        W40216   1.719   9.180   4.938  0.0707  0.1888  0.1194
24323W        W40217   9.327  12.909   4.079  0.1479  0.1892  0.1561
24324W        W40218  17.807  16.196   2.036 -0.2899  0.2912 -0.3145
24325W        W40219  16.621  19.113   3.972  0.0562  0.0999 -0.0602
24326W        W40220  11.981  18.147  12.870  0.1504  0.1064  0.0159
24327W        W40221  10.301   3.413   0.795  0.0344 -0.2630 -0.2632
24328W        W40222  16.483  10.939  13.016 -0.0795 -0.0586 -0.2829
24329W        W40223   7.700   3.192  11.173  0.2810 -0.0771  0.0816
24330W        W40224   4.086  15.174   0.149  0.2872 -0.0983 -0.3190
24331W        W40225   5.189   2.715   2.857  0.2231  0.1419  0.0903
24332W        W40226   2.695   6.259   4.422  0.1103  0.4226  0.1093
24333W        W40227   9.465   3.024  14.775  0.2387  0.1821 -0.4168
24334W        W40228  19.162  12.565  15.080  0.2449  0.0831 -0.1559
24335W        W40229  12.212  16.509  14.391  0.2971  0.2050 -0.1108
24336W        W40230   7.018   6.747   1.124  0.0096 -0.2808  0.3887
24337W        W40231  10.002   8.655  11.118 -0.1639  0.0943  0.0615
24338W        W40232   9.371  11.456   0.715  0.1842  0.2529  0.1163
24339W        W40233   8.342   3.229  11.848  0.0935 -0.1787  0.0033
24340W        W40234  12.887  13.385   2.459  0.1844 -0.2814  0.0954
24341W        W40235  18.172  15.967  12.737 -0.1798  0.0297  0.3459
24342W        W40236   2.498   6.642  14.250  0.1704 -0.1232  0.0157
24343W        W40237  18.500  18.644  14.521  0.1651 -0.0432 -0.2345
24344W        W40238  11.578  16.955   5.009  0.0734 -0.0772  0.0127
24345W        W40239  15.105  13.413  10.255  0.0079 -0.2737 -0.0975
24346W        W40240  13.500  17.037  10.359  0.1262  0.4717 -0.2153
24347W        W40241  12.042  16.307   9.439 -0.0064  0.2234 -0.0274
24348W        W40242   7.993  14.982  15.040 -0.1644  0.1852 -0.2156
24349W        W40243  15.991   9.272  12.743  0.1351 -0.2483 -0.0067
24350W        W40244   1.624   9.901  13.050  0.2515 -0.0094  0.0958
24351W        W40245  16.105   4.609   1.672  0.1431  0.1998  0.2836
24352W        W40246   5.222   5.912   5.127 -0.1294 -0.0764 -0.0696
24353W        W40247  18.305  14.892   4.160 -0.0561  0.0701  0.1281
24354W        W40248   2.689  17.359   3.600  0.1108 -0.2959 -0.2738
24355W        W40249  14.371  12.672   3.175 -0.0208  0.1038  0.0390
24356W        W40250   1.555   5.778   2.339  0.2181  0.2578  0.0480
24357W        W40251   3.424   3.013  14.208  0.0738  0.0530  0.2843
24358W        W40252  17.459  15.681  12.837 -0.0893  0.1650  0.0398
24359W        W40253  13.725   8.149   0.306 -0.5257  0.0448 -0.0071
24360W        W40254   8.763  13.614   3.044  0.0073  0.1149  0.4531
24361W        W40255  12.984   1.874   0.256 -0.0350 -0.0070  0.3558
24362W        W40256   2.411   7.169   3.721 -0.2424  0.0681  0.3365
24363W        W40257  18.003  12.741   1.161 -0.2057 -0.1808  0.0745
24364W        W40258  13.570   6.429  12.541  0.2356 -0.3858 -0.1156
24365W        W40259  13.260  11.327  14.701 -0.2535  0.2029  0.4729
24366W        W40260   9.412   0.504  14.770  0.1397 -0.3645 -0.3163
24367W        W40261  16.930   1.916  14.179  0.2707  0.3341 -0.2288
24368W        W40262   4.580  13.237  14.098  0.0487  0.3366  0.1407
24369W        W40263   4.071  14.384   2.697  0.0965 -0.4096  0.1625
24370W        W40264  11.920   1.743  10.647  0.3199  0.4525 -0.2018
24371W        W40265  12.179  18.953   4.000 -0.2726 -0.1088 -0.1949
24372W        W40266  11.579  11.552   3.832  0.1062  0.2905 -0.0633
24373W        W40267  11.102   7.529   5.036  0.1394  0.0197  0.3068
24374W        W40268  16.715  11.955  14.647  0.2924  0.1372  0.1576
24375W        W40269   9.717  15.213   1.249 -0.1220 -0.0111  0.0388
24376W        W40270   7.979   8.626  12.922 -0.1459  0.0751 -0.1141
24377W        W40271   6.285   8.016   2.246  0.0555  0.0258 -0.3313
24378W        W40272  13.066  11.545  14.276 -0.1142 -0.0138  0.2931
24379W        W40273   3.710   8.907  13.279  0.0614  0.4394  0.1120
24380W        W40274  10.834   1.620   4.682 -0.1430 -0.3315 -0.1547
24381W        W40275   9.746   6.889   4.126  0.1285  0.2159  0.2340
24382W        W40276   2.354   5.895   1.737 -0.2103  0.0305  0.0907
24383W        W40277   4.623   1.214  11.687 -0.0528  0.0356  0.2959
24384W        W40278  14.435  13.243  15.033 -0.2248 -0.2163 -0.3038
24385W        W40279  14.456  12.437   0.257  0.2055 -0.1420 -0.1850
24386W        W40280  13.054  15.652  10.306  0.1451 -0.1426 -0.0625
24387W        W40281   7.220   1.122  12.628 -0.2729 -0.0885  0.0876
24388W        W40282  12.793   7.304   4.801  0.1761 -0.0090  0.0177
24389W        W40283   9.647   3.141   2.612  0.0241 -0.0474 -0.0154
24390W        W40284  12.990  11.365   0.139 -0.4622 -0.2911 -0.1033
24391W        W40285   3.801  18.397   2.086  0.0829  0.0759 -0.1796
24392W        W40286  12.467   9.737   3.747  0.3891  0.1183  0.1684
24393W        W40287  16.731  15.661   1.157 -0.3180  0.2602 -0.0013
24394W        W40288  13.334   5.192  10.522  0.0899  0.2291  0.2003
24395W        W40289  14.944   0.357  12.007 -0.0447 -0.2193  0.1351
24396W        W40290  10.289   2.438   4.851  0.4515  0.0181 -0.2078
24397W        W40291   2.016   0.897   1.440 -0.0343  0.1237 -0.1361
24398W        W40292   9.252   9.581   4.516  0.1633 -0.0022 -0.1478
24399W        W40293   6.993  10.198  11.639 -0.1904 -0.1461 -0.0226
24400W        W40294  13.675   5.554  13.764 -0.4067  0.0274  0.3265
24401W        W40295  15.545   0.373   3.252 -0.1161  0.0087  0.1551
24402W        W40296  18.035  10.297   4.695 -0.1387  0.1954 -0.0070
24403W        W40297  14.873  17.235  13.223 -0.2252  0.2846  0.3105
24404W        W40298   9.067  12.513   3.894 -0.2982 -0.0288  0.3453
24405W        W40299  13.813   4.241   1.033  0.3278 -0.1481 -0.0444
24406W        W40300  15.742   1.197   0.223  0.2731  0.1333  0.0353
24407W        W40301   4.632   0.109   2.690 -0.0738  0.1741 -0.0926
24408W        W40302  15.504   2.438   2.450  0.3349 -0.0403  0.0394
24409W        W40303  14.575  18.228  12.543  0.0235 -0.6175  0.2597
24410W        W40304   1.221  16.061   0.273  0.0339  0.0881  0.0227
24411W        W40305   8.971   6.927  10.771 -0.0923  0.1841 -0.0844
24412W        W40306   7.380   0.734  15.103  0.0749 -0.3454  0.1889
24413W        W40307  11.926  12.531   9.332 -0.0154 -0.1793  0.0036
24414W        W40308   1.231   8.246   3.173 -0.3850  0.0518  0.3351
24415W        W40309  18.149   1.055   1.243 -0.1495  0.2183 -0.1559
24416W        W40310  12.248   9.407   0.333 -0.2250  0.1246  0.4826
24417W        W40311   3.042   0.085  14.413  0.2690  0.0320  0.1378
24418W        W40312   8.238  10.682   2.863  0.0187  0.4245 -0.2210
24419W        W40313  10.037  11.314   1.424 -0.2931  0.2543 -0.2290
24420W        W40314   1.581  10.882  12.691 -0.1389  0.3576  0.0151
24421W        W40315  13.750   7.825   3.079 -0.1102 -0.1135 -0.0625
24422W        W40316  12.871   8.994  11.476 -0.1455 -0.0726 -0.0424
24423W        W40317  12.244  17.388  13.080  0.0823 -0.2447  0.3109
24424W        W40318  16.872  13.815   2.970 -0.0734 -0.0479 -0.2906
24425W        W40319  17.424   5.566  14.180  0.1448 -0.0628 -0.0012
24426W        W40320   4.663   1.205  12.709 -0.3434 -0.0420 -0.1062
24427W        W40321   9.902   3.600  13.106  0.0404  0.1857  0.3888
24428W        W40322  14.108  11.725   3.174 -0.3189 -0.3508 -0.0484
24429W        W40323   4.693  15.263   3.375  0.1555 -0.1986 -0.0408
24430W        W40324  15.051  17.786   4.193 -0.4710 -0.0761 -0.1916
24431W        W40325   0.328  16.705   1.567  0.1554 -0.1904 -0.2880
24432W        W40326   5.990   9.482  12.022  0.2113 -0.0432 -0.4347
24433W        W40327   8.599   8.586   4.012  0.3929 -0.0170  0.0906
24434W        W40328   8.743  12.612   4.768 -0.3096  0.0817  0.3200
24435W        W40329   7.769  17.604  11.537 -0.0866  0.0312  0.1501
24436W        W40330   3.283   9.059   0.649  0.5310  0.2255 -0.0999
24437W        W40331   5.789   5.269   5.855 -0.4616  0.0190 -0.2269
24438W        W40332  10.873  10.952   0.238 -0.0605 -0.3148  0.2643
24439W        W40333   1.096   8.904   0.889  0.1792  0.2248  0.1595
24440W        W40334  16.519  18.267  12.256 -0.0068  0.4630  0.0978
24441W        W40335  18.108   0.427   0.287  0.0159  0.0594  0.0963
24442W        W40336  14.681  10.292   1.939 -0.1079  0.0098 -0.2301
24443W        W40337  14.324  17.552   4.674 -0.2152 -0.3047  0.0450
24444W        W40338   3.256  18.150   2.017  0.0496 -0.2922  0.0924
24445W        W40339  14.963   3.077   1.664 -0.0817  0.0332 -0.0624
24446W        W40340   9.196  12.553   4.489 -0.1855 -0.0174 -0.1343
24447W        W40341  14.452  10.863  14.442 -0.6206 -0.1464  0.1269
24448W        W40342   4.715   1.539   3.390 -0.1621  0.0060  0.0363
24449W        W40343   7.273   6.221   2.372 -0.0376 -0.2145 -0.3129
24450W        W40344  10.651   2.024  11.415  0.1253 -0.2859 -0.0898
24451W        W40345  10.534  15.459   4.634 -0.0808  0.0854  0.0671
24452W        W40346   2.531   8.575   4.678 -0.3907 -0.0138 -0.1414
24453W        W40347   9.509  14.898   3.489  0.2137  0.0118 -0.0237
24454W        W40348  14.050  17.876  11.236 -0.4106  0.2178 -0.0975
24455W        W40349  12.676   3.122   2.110 -0.2978  0.7152 -0.1132
24456W        W40350   2.877   2.611   2.914 -0.2631  0.1504  0.0679
24457W        W40351   6.837   5.769   1.245 -0.0843  0.4663  0.1169
24458W        W40352  14.008   5.174  10.502  0.1620 -0.0963  0.1630
24459W        W40353  18.150   3.962  10.938  0.1053  0.3254  0.1173
24460W        W40354  12.440   2.918  10.356 -0.3780  0.2251  0.1370
24461W        W40355   5.813   1.236  12.222 -0.0673  0.4500 -0.1125
24462W        W40356   1.067   4.532   0.714 -0.1342 -0.0122 -0.2717
24463W        W40357   2.424  14.755  12.177  0.2457  0.0947  0.0056
24464W        W40358  16.371   2.012   4.202 -0.0751 -0.0178 -0.3716
24465W        W40359   1.512  17.215   2.258  0.0888 -0.3706  0.3188
24466W        W40360  10.257   2.553  11.893  0.2919 -0.2295 -0.1453
24467W        W40361   8.646   6.844   2.036 -0.1479 -0.0521 -0.2252
24468W        W40362  11.102  17.859  14.587  0.0158 -0.2973  0.0793
24469W        W40363  16.276  15.327   5.355 -0.1511 -0.3083 -0.0330
24470W        W40364   6.517  18.500   1.786 -0.2942  0.0808  0.2939
24471W        W40365   5.513  19.092  12.694  0.4236 -0.0923 -0.0754
24472W        W40366  18.556  16.165  13.947 -0.1488 -0.1230  0.0730
24473W        W40367  11.758   7.645  13.898 -0.0245  0.1694  0.1485
24474W        W40368   8.631   8.478  11.171 -0.0024  0.1895  0.1470
24475W        W40369  16.447  11.761  11.178 -0.4376  0.0875  0.2491
24476W        W40370   6.821  11.448   9.890 -0.0250  0.1497  0.1739
24477W        W40371   2.430  18.850   0.899  0.0513 -0.1610 -0.1290
24478W        W40372   8.291   5.792  10.731 -0.0598 -0.1623  0.2157
24479W        W40373  17.376   2.345   2.850  0.0966  0.0948  0.0619
24480W        W40374   3.609  14.470   3.871 -0.0373 -0.1234 -0.0013
24481W        W40375   0.787   3.530  14.859  0.6054 -0.1082  0.1293
24482W        W40376  13.263  14.445   2.424  0.3920  0.0327  0.0500
24483W        W40377   5.760  16.215  10.190 -0.0449  0.2219  0.1831
24484W        W40378   0.383   0.013   1.135 -0.1318 -0.0977  0.0983
24485W        W40379   4.320  19.170  11.343 -0.1811  0.2507  0.1546
24486W        W40380   6.350   5.195   1.599  0.2700  0.3043 -0.2934
24487W        W40381  10.725   9.566  11.942 -0.1918  0.2612 -0.1387
24488W        W40382  10.041  17.480  12.844 -0.0212 -0.1766  0.4070
24489W        W40383  14.848  12.819  10.048 -0.0111  0.3263  0.1650
24490W        W40384  16.589   9.934   2.486 -0.1467 -0.2919  0.0555
24491W        W40385  12.448   5.057  11.211 -0.2596  0.3101  0.0557
24492W        W40386  18.868  16.044   3.548 -0.0035  0.1605 -0.0322
24493W        W40387  13.131   3.893   4.953  0.2334  0.3147  0.0878
24494W        W40388   6.780   0.255   1.688 -0.3860  0.2957 -0.0762
24495W        W40389   8.884  13.764  10.765 -0.1383  0.1933  0.1128
24496W        W40390  15.779   8.662   1.154  0.2461  0.0418  0.2117
24497W        W40391   0.500   2.423   4.097  0.0467  0.0944 -0.2129
24498W        W40392  13.492  10.098   0.388  0.1529 -0.0377  0.2080
24499W        W40393  10.964  14.218   9.053  0.0363  0.1733 -0.3255
24500W        W40394  16.512  14.687   2.692  0.0145  0.3669 -0.1994
24501W        W40395  13.360   4.291  10.431  0.1175  0.1621  0.1046
24502W        W40396   1.749  14.254   4.346 -0.2351  0.0022  0.3555
24503W        W40397  14.421   5.628  10.282  0.0360  0.0655  0.1432
24504W        W40398  13.002   2.861  10.308  0.1633  0.3248 -0.2835
24505W        W40399   9.420  10.963  14.914 -0.1260 -0.1524 -0.1285
24506W        W40400  10.000   1.809  13.812 -0.0543  0.1513 -0.1133
24507W        W40401  17.053   0.632   2.443 -0.2758  0.2443 -0.3226
24508W        W40402   4.615  19.074  12.810 -0.2174  0.3132  0.1236
24509W        W40403   6.757  15.083  11.107  0.1953 -0.2648 -0.0287
24510W        W40404   4.820  18.878   1.063 -0.1811 -0.2288 -0.4185
24511W        W40405  15.010   8.429  14.834 -0.3875  0.2698  0.2653
24512W        W40406   2.699   3.615  13.348  0.0582  0.0989 -0.2499
24513W        W40407   4.963  18.366  12.411  0.0547  0.1162  0.1693
24514W        W40408   8.690   3.238  12.622 -0.0560  0.0727 -0.2910
24515W        W40409  17.669   9.885  14.632  0.2621  0.1028  0.2382
24516W        W40410  17.927   6.548  10.160  0.0628  0.0837  0.1716
24517W        W40411   8.811   5.216   5.744  0.1785 -0.2017  0.0877
24518W        W40412  15.821  15.385   4.113  0.0599 -0.1538  0.1269
24519W        W40413   8.537   0.476  14.762 -0.0437  0.0190 -0.0586
24520W        W40414  14.117   6.540   2.140  0.0926 -0.0447  0.2132
24521W        W40415   4.614  14.076   1.910 -0.0287  0.2934  0.0366
24522W        W40416   5.686   0.234   0.393 -0.0916  0.3448 -0.0048
24523W        W40417   8.229   6.263  10.801 -0.0050 -0.3227  0.1169
24524W        W40418   1.400   7.585   2.440  0.0313 -0.0243  0.2120
24525W        W40419  15.084  11.010  13.880 -0.0142 -0.0627 -0.4967
24526W        W40420  15.156   8.405   1.796  0.0196 -0.1608  0.2196
24527W        W40421   5.676  12.445   1.990 -0.0286 -0.0148 -0.1234
24528W        W40422  13.849   8.343   5.134 -0.1528 -0.0037 -0.6815
24529W        W40423  11.476   6.687   0.317 -0.0451  0.0580  0.0345
24530W        W40424  12.531  15.283   3.002 -0.0683  0.1797 -0.0500
24531W        W40425  18.194   1.458   4.489  0.0879  0.0150  0.1478
24532W        W40426  18.370   0.604  10.882 -0.0591  0.2102  0.1859
24533W        W40427   0.748   0.037   4.209  0.1683 -0.1926  0.1514
24534W        W40428   6.067  11.009   1.600 -0.2064 -0.0768  0.2360
24535W        W40429   3.181   8.713  14.072  0.0423  0.2065  0.0242
24536W        W40430   6.952   1.841   4.532  0.0692 -0.1010  0.0854
24537W        W40431  14.036  15.570   0.840  0.3856 -0.0819  0.1383
24538W        W40432  18.940  10.842  10.706 -0.0342 -0.3582 -0.0262
24539W        W40433  10.320   5.032  12.214 -0.5176  0.0406 -0.2424
24540W        W40434   5.290  14.925  14.863 -0.1484 -0.2747 -0.2040
24541W        W40435  18.612  18.180  10.695 -0.2314  0.1561  0.0256
24542W        W40436   8.930   1.265  14.467  0.0364 -0.1309 -0.2925
24543W        W40437  13.033   9.597   1.564 -0.0604  0.0862  0.1730
24544W        W40438  17.399  16.408  14.683 -0.0381  0.2361  0.2879
24545W        W40439  18.256  13.216   4.715 -0.1182  0.1121 -0.0670
24546W        W40440   1.699  18.598   2.578 -0.1064 -0.0137  0.0516
24547W        W40441  11.459   1.722  10.934  0.1571  0.1849  0.0979
24548W        W40442   2.717  12.017  14.017 -0.0240  0.1208  0.0434
24549W        W40443   3.592   5.414   2.974  0.3003 -0.4398 -0.1326
24550W        W40444  17.651   3.005   5.585 -0.0935 -0.2434  0.0481
24551W        W40445   9.728  11.982   2.517 -0.1013 -0.2052 -0.0532
24552W        W40446   4.098  16.162   3.821 -0.0431  0.3282 -0.1573
24553W        W40447  18.713   6.984  13.564 -0.1538 -0.3643 -0.0571
24554W        W40448   6.702   8.600   0.012 -0.0961 -0.2218 -0.2785
24555W        W40449   0.658   0.801   0.823  0.1333 -0.1444 -0.2762
24556W        W40450   0.258  18.511  12.411 -0.1442 -0.1617  0.0672
24557W        W40451   7.865   1.785   0.352 -0.1851  0.1089 -0.4123
24558W        W40452  15.513  19.108   4.502 -0.0420  0.0666  0.2642
24559W        W40453  13.968  12.787  11.058  0.1962  0.0691 -0.0767
24560W        W40454  11.068  12.642  14.757 -0.1848  0.0034 -0.2404
24561W        W40455   1.562   0.714   0.365  0.2110  0.0154 -0.1378
24562W        W40456   6.928  17.011  12.549  0.0800  0.3430 -0.0765
24563W        W40457  15.401  16.698   2.752 -0.0094  0.0446  0.0937
24564W        W40458   3.593   9.846  14.726 -0.0276 -0.2634  0.1811
24565W        W40459  15.043  15.366  11.090  0.4230 -0.1808 -0.0970
24566W        W40460  13.650  13.960  13.386  0.4609  0.0459 -0.0441
24567W        W40461  10.341  10.991   0.884  0.2111  0.2234  0.0015
24568W        W40462   4.728  16.783  12.557 -0.0866  0.3354 -0.0715
24569W        W40463   3.964  11.053  10.197  0.0244  0.0041 -0.1950
24570W        W40464  14.913  14.471  13.980 -0.2426  0.0879  0.0558
24571W        W40465  12.562  13.868  11.535 -0.0319 -0.0227 -0.3931
24572W        W40466  18.222   1.713   0.573 -0.1441  0.0998 -0.1185
24573W        W40467  16.972  13.170  10.217  0.0306 -0.2276 -0.1119
24574W        W40468   1.822   1.005   0.021 -0.2162  0.3037 -0.2196
24575W        W40469   1.716   6.555   3.228  0.0768 -0.0862 -0.2093
24576W        W40470   6.521  17.416  12.748 -0.1345  0.1067  0.3002
24577W        W40471  10.055   2.674  12.485 -0.1086  0.0290 -0.0712
24578W        W40472  11.500   8.684  13.066  0.1268 -0.1059 -0.0212
24579W        W40473  18.423  15.958  12.160  0.2197  0.2583 -0.3051
24580W        W40474  10.113   5.532  12.125  0.2723 -0.0489  0.3162
24581W        W40475  15.730  10.671  12.631  0.1094  0.1138 -0.2809
24582W        W40476  13.027   9.759   2.521  0.0659  0.0153 -0.2743
24583W        W40477  14.966   5.266  14.461  0.0681  0.1286  0.1298
24584W        W40478  10.843   8.229  13.492 -0.1109  0.1811  0.1348
24585W        W40479   4.282  17.014  13.987 -0.1373  0.0126  0.0100
24586W        W40480   6.493   0.440  13.950 -0.1305 -0.2292 -0.0413
24587W        W40481  15.105   8.405   5.655 -0.3195  0.1130  0.0523
24588W        W40482   3.818  15.368   5.074  0.1437 -0.0817  0.3049
24589W        W40483   4.205   9.053   1.731  0.3079  0.1033  0.3336
24590W        W40484   9.869  18.034  14.944 -0.0483 -0.2513  0.0613
24591W        W40485  10.502   6.722   0.735  0.0734  0.1841 -0.1350
24592W        W40486   4.907   2.276   3.822 -0.1966  0.0005 -0.2521
24593W        W40487  15.125   6.581  11.148 -0.2981  0.1869 -0.0852
24594W        W40488   4.846  14.533  13.008  0.4217  0.3747  0.0230
24595W        W40489   8.168   0.931   0.376 -0.1415  0.1998  0.0579
24596W        W40490   9.612   7.684   4.556  0.1247  0.1454  0.0994
24597W        W40491  13.175   0.774   3.672  0.1239 -0.1873 -0.1913
24598W        W40492  17.674   2.186   0.014  0.0934  0.5624 -0.0890
24599W        W40493  13.874   3.626  14.724  0.1938  0.0454  0.1935
24600W        W40494  11.517  15.696  10.739  0.0715  0.1227 -0.1951
24601W        W40495   8.807   9.924  13.766  0.1249  0.0891  0.3855
24602W        W40496   3.989   7.314   0.471 -0.0802  0.0300 -0.1804
24603W        W40497  11.037  17.414   4.958 -0.0486 -0.0408 -0.3466
24604W        W40498  16.265   7.787  13.583  0.1112  0.1541  0.1454
24605W        W40499  13.603  18.711   2.014 -0.0649 -0.1252  0.2151
24606W        W40500   8.575  10.466  12.346 -0.0492 -0.1155 -0.2093
24607W        W40501  16.066   8.429   0.382 -0.1655  0.1927 -0.1210
24608W        W40502   0.248  15.970  13.244 -0.2453  0.4018  0.0232
24609W        W40503   9.158   4.402   4.090  0.1454  0.0074  0.1020
24610W        W40504   6.861  16.657   3.655 -0.4086 -0.0887 -0.5936
24611W        W40505   0.704  15.138  12.059  0.0808  0.2284 -0.0234
24612W        W40506   1.737  13.545   0.730 -0.0103  0.0797 -0.1537
24613W        W40507   2.865   2.413  13.352  0.2385  0.2789  0.3698
24614W        W40508  15.875  11.372  10.585 -0.1275 -0.1218 -0.0223
24615W        W40509   9.734  14.882   2.273  0.0863  0.0579 -0.1719
24616W        W40510   7.062   1.754   2.825 -0.1017 -0.1465  0.3150
24617W        W40511  10.912   7.894  13.106  0.3097  0.4464 -0.0205
24618W        W40512  12.906  13.129   3.855 -0.0641  0.0942 -0.3888
24619W        W40513  16.546  14.590   4.697 -0.1660  0.0251 -0.1149
24620W        W40514   8.306   7.801   3.591  0.1638 -0.1885  0.0181
24621W        W40515   0.667   8.323  12.672 -0.0497  0.0666 -0.1926
24622W        W40516  17.030  12.618   2.001 -0.2930  0.4328 -0.0539
24623W        W40517   9.943  14.829  14.684 -0.2148 -0.0700 -0.0044
24624W        W40518  14.948  13.175  13.845  0.2274 -0.3025  0.0516
24625W        W40519   8.608  15.840   4.050 -0.5316 -0.1605 -0.0092
24626W        W40520   5.957   9.338  12.487  0.0301  0.0676  0.0315
24627W        W40521   2.620  14.752  13.027 -0.0010 -0.1636 -0.1384
24628W        W40522  14.495  12.414  13.652 -0.3946  0.0420 -0.0498
24629W        W40523   7.684   0.816  11.454  0.2307  0.2859 -0.0712
24630W        W40524  18.088   9.780   3.210 -0.3236  0.0050  0.1800
24631W        W40525   7.818  16.721   2.888  0.0271  0.0294  0.2473
24632W        W40526   1.267   1.587   2.635  0.1639 -0.1383 -0.5261
24633W        W40527   2.306   3.414   1.537  0.1921 -0.2621  0.1126
24634W        W40528   7.228   7.622   1.855  0.2196 -0.1013 -0.0851
24635W        W40529  15.642   7.634   1.373 -0.0499 -0.2294 -0.1632
24636W        W40530  12.794  14.809   5.236 -0.0355 -0.2978  0.0511
24637W        W40531   8.220  17.657  14.497  0.0936  0.0807 -0.0100
24638W        W40532  14.682  16.872   4.101  0.0424  0.4436 -0.2308
24639W        W40533   6.245   1.714   3.987 -0.0388  0.1760  0.2918
24640W        W40534   6.915   4.411  13.023  0.4654  0.0625 -0.0801
24641W        W40535  11.572   1.320   2.010 -0.0111 -0.0095 -0.0494
24642W        W40536   3.342  11.376   0.624 -0.3014  0.0944 -0.0100
24643W        W40537   9.795   5.584   2.876 -0.1914  0.0918 -0.0601
24644W        W40538  13.253  16.047  12.080 -0.0091 -0.1716  0.1637
24645W        W40539   9.571   2.759  12.797 -0.0891 -0.1364 -0.1070
24646W        W40540  16.244  11.341  15.089 -0.0779 -0.3513 -0.0445
24647W        W40541  15.402   8.843   0.848 -0.0769  0.1357  0.1625
24648W        W40542  14.027  19.041  14.322 -0.1179  0.2966  0.0515
24649W        W40543  16.450   4.931  12.260  0.1377 -0.0462 -0.1837
24650W        W40544   2.377   9.869  14.896 -0.5776 -0.0937  0.2932
24651W        W40545  15.090   5.215   0.341  0.2155 -0.0120 -0.0168
24652W        W40546  11.218   2.277  13.968 -0.0412  0.0231  0.0508
24653W        W40547   3.112   1.495  11.906 -0.2519  0.3034  0.1860
24654W        W40548   1.661  12.639  14.763  0.2127  0.1813  0.3684
24655W        W40549   8.014  16.862   5.307  0.1193 -0.0203 -0.1939
24656W        W40550   4.775  15.987   1.156 -0.2632 -0.1573 -0.0883
24657W        W40551   6.499  18.743   0.827  0.0897 -0.1614 -0.0878
24658W        W40552   8.723  11.766  12.342 -0.0421  0.0591  0.2194
24659W        W40553  16.625  15.642  14.075 -0.0614  0.1573  0.0824
24660W        W40554   0.938   2.940  14.231  0.1850 -0.1346  0.1843
24661W        W40555   5.031   2.013   6.022  0.4080 -0.0274 -0.1773
24662W        W40556  17.671   1.048   1.020  0.0724  0.1523  0.0325
24663W        W40557   7.009  15.740  10.457  0.0019 -0.2740  0.0382
24664W        W40558  13.868   3.696   1.284 -0.2524 -0.0777 -0.0938
24665W        W40559   5.186  19.204  13.989 -0.2493 -0.0216 -0.1485
24666W        W40560  18.422   4.335   0.338  0.0754 -0.3392  0.1339
24667W        W40561  12.568  17.775   3.246 -0.0450  0.3067  0.1251
24668W        W40562  13.368   5.538  12.099 -0.0626  0.0998  0.4012
24669W        W40563   7.227  15.970  14.855  0.1894 -0.1720 -0.2699
24670W        W40564   2.748  12.497   4.165 -0.2642  0.1450 -0.0306
24671W        W40565   2.481   4.579   4.344  0.0742  0.1200  0.0801
24672W        W40566   2.442   3.504   3.427 -0.0973  0.1393 -0.1452
24673W        W40567  13.293  12.708   3.365 -0.0010 -0.2800 -0.2034
24674W        W40568  17.821  18.975   2.875  0.3413  0.0973 -0.2368
24675W        W40569  13.824  14.369   1.291 -0.2494 -0.1078  0.4343
24676W        W40570   4.481   2.015  12.192 -0.3404  0.0484  0.1910
24677W        W40571  18.811  18.611  10.611  0.1673 -0.1082  0.1642
24678W        W40572   2.972   9.622   0.598  0.0516  0.2720 -0.1754
24679W        W40573   7.822  14.002   0.964  0.2246  0.0147 -0.1675
24680W        W40574  18.619   2.727  14.069 -0.2655 -0.0130  0.0253
24681W        W40575  16.257  11.246  13.522 -0.2897 -0.3095  0.2411
24682W        W40576  16.257  13.503   3.673  0.2285  0.0615 -0.1064
24683W        W40577  10.778  15.334  10.517  0.3068  0.1737 -0.2756
24684W        W40578   4.718  16.274  12.473 -0.1789 -0.1570  0.2913
24685W        W40579  16.156   5.912  12.238  0.1947  0.1759 -0.3367
24686W        W40580  15.608   2.629   5.028  0.2505  0.0070 -0.1459
24687W        W40581   3.593   6.183   0.611 -0.0873  0.3210  0.3129
24688W        W40582  11.838   5.572   3.915 -0.2564  0.0095 -0.0065
24689W        W40583   4.776   7.204   4.585  0.1243  0.3371  0.3262
24690W        W40584  17.222  19.139  13.570 -0.0893 -0.1527 -0.2381
24691W        W40585  14.063  17.955   4.215  0.2529  0.0808 -0.1925
24692W        W40586   7.438  10.935  14.409  0.0750  0.1028 -0.0825
24693W        W40587   2.180  12.269  13.231  0.4987  0.2779  0.1749
24694W        W40588   0.231  18.398   2.549  0.1863 -0.1995  0.0780
24695W        W40589  11.371   4.784  10.519 -0.1010  0.1783 -0.1705
24696W        W40590  18.238  16.532  13.029 -0.0196  0.0789 -0.0016
24697W        W40591   8.919  18.201  13.998  0.0797  0.1342  0.0983
24698W        W40592   9.924  18.182   0.434  0.2817 -0.0391  0.0133
24699W        W40593   8.099   7.653  15.063  0.3580 -0.1991  0.1122
24700W        W40594  10.376   0.770   3.762  0.0416  0.1569  0.1737
24701W        W40595  18.969  10.626   2.697 -0.2586 -0.0824 -0.1879
24702W        W40596  13.113   2.702   3.196  0.3468  0.4165  0.1736
24703W        W40597   8.566  18.852  14.830  0.0998 -0.2006 -0.1998
24704W        W40598  17.298  11.697  14.628 -0.1061 -0.0448 -0.2178
24705W        W40599   2.622  10.890   0.706 -0.2826  0.0876 -0.3785
24706W        W40600   8.394   2.272   0.249  0.0597 -0.3118 -0.0473
24707W        W40601  10.303   4.021  14.781  0.2216  0.1200 -0.1393
24708W        W40602   2.221  19.181   0.473 -0.3240  0.0209 -0.1226
24709W        W40603  14.426   5.852   1.404  0.1513 -0.1662 -0.1704
24710W        W40604  14.714   5.377   2.227 -0.1868  0.0888  0.2569
24711W        W40605   1.322  14.856  11.236  0.0197  0.2039  0.3065
24712W        W40606  11.802  11.595   5.016 -0.1931 -0.3528  0.2420
24713W        W40607  11.800  10.645   0.843 -0.3237  0.0409 -0.2012
24714W        W40608  15.648   4.923  13.455 -0.0623 -0.1595 -0.1089
24715W        W40609  18.601   1.311  10.305  0.0903 -0.2734 -0.2768
24716W        W40610   5.215   4.814   4.347  0.1487 -0.2892 -0.1682
24717W        W40611   9.744  17.987   2.180  0.0718 -0.0642  0.2178
24718W        W40612  12.710  17.553  13.027 -0.3296 -0.1118  0.0641
24719W        W40613   6.649   1.300   6.177  0.1875 -0.1275 -0.0638
24720W        W40614  18.505   8.416   1.055 -0.1016  0.3396 -0.0463
24721W        W40615  14.607  17.012   2.632  0.1167  0.0836  0.0249
24722W        W40616   3.204   4.246  12.751  0.2752 -0.0495  0.0450
24723W        W40617   9.449   3.389   0.553 -0.2596  0.2829 -0.0769
24724W        W40618  18.419   1.839  13.186 -0.1252  0.1911 -0.1153
24725W        W40619  13.141   5.132  14.408 -0.1227 -0.1055 -0.1468
24726W        W40620   6.248   7.822  14.081 -0.0492 -0.2338 -0.1569
24727W        W40621  10.963  15.273  11.272 -0.0349  0.2960 -0.0002
24728W        W40622  16.102   3.767   4.490 -0.4111  0.1289  0.0026
24729W        W40623  15.657   4.110  11.042  0.1687  0.0442 -0.0304
24730W        W40624   9.705   6.142   4.981  0.0112 -0.2700  0.2139
24731W        W40625  16.320  17.390  11.828 -0.0442  0.2588 -0.0949
24732W        W40626  10.076   5.980  11.790 -0.1905 -0.0280  0.0288
24733W        W40627  13.759  18.286  11.095 -0.2727  0.0826  0.1864
24734W        W40628   0.205  13.321  12.563 -0.1711  0.3453  0.1151
24735W        W40629  16.319  10.679  12.646  0.1615  0.0328 -0.0090
24736W        W40630  14.394   4.518   5.223 -0.0807 -0.1715 -0.2136
24737W        W40631  11.862   7.770   3.169  0.1294  0.0452 -0.0219
24738W        W40632   4.881   4.156  11.158  0.0727  0.1867 -0.0942
24739W        W40633   7.109  14.775  10.894 -0.3344 -0.1709  0.1900
24740W        W40634   3.601  10.574   1.984 -0.3114  0.0886  0.1375
24741W        W40635   5.500  14.843   2.808 -0.2663 -0.1192  0.1214
24742W        W40636   9.007   4.973   2.354  0.0107  0.1446 -0.1093
24743W        W40637  15.100   2.135   0.836 -0.4106  0.1108  0.1622
24744W        W40638  16.397  14.997  10.659  0.2037  0.3098  0.1545
24745W        W40639   4.715   7.603  10.547 -0.0984  0.2560 -0.1872
24746W        W40640  12.331   6.854  12.512 -0.0290  0.1956 -0.1430
24747W        W40641  12.411   1.553   2.083 -0.2421 -0.0141 -0.0530
24748W        W40642   0.896  18.532   1.430  0.0435 -0.2837 -0.0808
24749W        W40643  16.419   4.345   1.341  0.1591  0.0968 -0.2501
24750W        W40644   8.418   5.206  11.425 -0.3585 -0.2355  0.2811
24751W        W40645  16.899  13.795   2.429  0.2746 -0.2233  0.3726
24752W        W40646  11.217   3.962   3.071 -0.1230 -0.2456 -0.2190
24753W        W40647  13.918   4.365   3.887  0.1660 -0.1677  0.0177
24754W        W40648   8.598   9.826   1.753 -0.0961  0.0809 -0.0226
24755W        W40649  10.279   9.194  12.582  0.3572  0.0544  0.0309
24756W        W40650  16.842  19.217   4.387  0.0346 -0.1666 -0.3140
24757W        W40651   7.741   1.009   0.771  0.0470 -0.1209 -0.0597
24758W        W40652   8.850   0.234  13.455 -0.0064 -0.2123  0.0598
24759W        W40653   3.511  19.191   2.437  0.0867  0.0418 -0.2200
24760W        W40654   6.750   3.071  13.286 -0.0210  0.0602  0.0804
24761W        W40655   8.509   6.890   4.194  0.1832  0.0591 -0.0368
24762W        W40656  10.397  15.126  12.426  0.1435  0.1760  0.0009
24763W        W40657   3.201  13.800  11.618 -0.2730 -0.0026  0.1954
24764W        W40658   7.445  17.357  12.395  0.3397 -0.1661  0.0127
24765W        W40659  13.388   9.701   1.194  0.2027  0.0409 -0.0654
24766W        W40660  18.738  11.070  12.480  0.1108  0.0222 -0.1775
24767W        W40661   7.201  17.346  11.941 -0.1393  0.1568  0.0090
24768W        W40662   6.706  12.309   1.031 -0.2635 -0.1999  0.1053
24769W        W40663  16.982   2.993  11.948 -0.0646 -0.0185  0.2951
24770W        W40664  10.367  16.794  10.331 -0.0759  0.1751 -0.2292
24771W        W40665   0.230   3.346   2.158  0.0481 -0.1225  0.3942
24772W        W40666  17.707   2.388  14.651  0.1235 -0.0698 -0.1102
24773W        W40667   6.704   0.490   0.676  0.1239 -0.1576  0.0376
24774W        W40668  15.379  14.162   0.206 -0.2745  0.0962  0.0821
24775W        W40669   3.821  14.975  13.252 -0.0595  0.0594 -0.2554
24776W        W40670   6.594  14.023  14.302  0.1069 -0.0566  0.1040
24777W        W40671  17.529   3.438   5.362 -0.3226 -0.0094 -0.0085
24778W        W40672   6.338  18.132   1.140 -0.3284 -0.1296  0.0402
24779W        W40673  17.644  14.307   4.527 -0.0262  0.3765 -0.1969
24780W        W40674   4.527  17.134   1.790 -0.1086 -0.0838  0.1718
24781W        W40675  15.743   9.721   3.513 -0.1837  0.0727 -0.0107
24782W        W40676   3.241   1.636   0.960 -0.2694  0.0916  0.0266
24783W        W40677  11.772   6.954  13.642 -0.2650  0.0807  0.0043
24784W        W40678   0.634  13.182  14.681  0.2534 -0.0598  0.2166
24785W        W40679  14.287   4.707  13.942 -0.0681  0.0240  0.1373
24786W        W40680   3.737  18.578  14.182 -0.1320  0.0294 -0.1692
24787W        W40681  12.138  15.105   1.392  0.0644  0.2531 -0.1330
24788W        W40682  11.457  17.506  10.273 -0.0039 -0.1356  0.1562
24789W        W40683   4.475   6.895  11.937 -0.1822  0.3341  0.0939
24790W        W40684   4.893  17.832   3.857 -0.1475  0.0194 -0.1033
24791W        W40685   4.228   1.650  14.891  0.0783  0.1815  0.1473
24792W        W40686   9.191   6.500   4.602  0.1647  0.0290 -0.3537
24793W        W40687  17.886   6.261   0.660 -0.5228  0.4032 -0.1793
24794W        W40688   1.178  11.491   9.550 -0.1198 -0.2392 -0.1337
24795W        W40689   2.963  13.612   4.669 -0.0306 -0.2127  0.2313
24796W        W40690  18.649   9.538  11.756 -0.0379 -0.3367 -0.2073
24797W        W40691   0.301  19.008  12.492  0.1318  0.0732  0.1685
24798W        W40692  10.830   9.241  14.950  0.0478  0.3661  0.3706
24799W        W40693   6.058   9.291  14.763 -0.0736  0.0981 -0.0936
24800W        W40694  12.722   2.382   1.995 -0.1276  0.0865  0.1357
24801W        W40695  11.712   5.461   1.354 -0.2120  0.0336  0.0807
24802W        W40696   7.471  12.758  10.714 -0.1244 -0.0553 -0.1819
24803W        W40697   4.462   1.806   1.470 -0.1282 -0.0133  0.1222
24804W        W40698  10.943   3.851  14.917  0.3990  0.0584  0.2748
24805W        W40699   3.881   5.281  13.181 -0.0461 -0.0709 -0.0328
24806W        W40700   4.813   9.553  10.859 -0.0308 -0.0233  0.0674
24807W        W40701  12.620  16.132  10.523 -0.1737  0.2122 -0.5085
24808W        W40702  14.968   6.001  11.773 -0.0503  0.0048  0.3090
24809W        W40703   9.900   8.330   5.451  0.1405  0.0129 -0.0480
24810W        W40704  14.133   2.127   4.543 -0.0706 -0.1262 -0.2957
24811W        W40705   6.423   1.090   4.690 -0.1835 -0.1343  0.1484
24812W        W40706  12.095  14.852   2.283  0.1201 -0.2286 -0.3394
24813W        W40707   1.448   0.498  12.516 -0.1353  0.1619 -0.2316
24814W        W40708   1.326   1.069  11.878 -0.2725 -0.2386 -0.5020
24815W        W40709   9.810   2.984  11.850 -0.1511  0.2113  0.2613
24816W        W40710  11.754   9.374  13.512 -0.1613  0.4024 -0.2081
24817W        W40711  10.245  18.460  12.481 -0.1068 -0.2222 -0.0541
24818W        W40712   5.578   1.593  13.216 -0.2334  0.4157 -0.0420
24819W        W40713  14.852   2.839   3.087 -0.2883 -0.3651 -0.1076
24820W        W40714   0.921  18.515   0.886 -0.1292 -0.0939  0.0122
24821W        W40715  11.451   4.261  13.461 -0.0044  0.1824  0.3548
24822W        W40716   3.230   2.575   4.085 -0.1047 -0.1365 -0.1706
24823W        W40717   7.860  10.326  11.074 -0.0792 -0.3251 -0.1134
24824W        W40718   7.676  15.046   3.589 -0.1727  0.2497  0.4668
24825W        W40719  11.645  17.420  12.471  0.2196  0.2218 -0.1856
24826W        W40720  15.536   1.757  11.705 -0.1793 -0.2447 -0.0904
24827W        W40721   0.379  13.801   1.439 -0.4074 -0.0804  0.2559
24828W        W40722   2.127   9.342   4.594  0.2721  0.1098  0.0066
24829W        W40723  18.479  15.173   3.107 -0.2919  0.0637  0.0040
24830W        W40724   0.824   4.052  10.017  0.3581 -0.0923 -0.2432
24831W        W40725   0.340   7.789   5.713 -0.5253 -0.1724  0.2142
24832W        W40726   2.387  18.101  10.883  0.2493  0.0522  0.1523
24833W        W40727   3.349   5.792  11.847  0.5821 -0.1771  0.1080
24834W        W40728   2.680  14.094  14.801 -0.0329  0.3177  0.2899
24835W        W40729   7.501   9.800   5.408 -0.2391  0.0612 -0.1031
24836W        W40730  18.268  13.418   3.091  0.0464 -0.0253 -0.1549
24837W        W40731   2.260   8.562  13.505 -0.0548 -0.1340 -0.0910
24838W        W40732  10.584  16.054  13.375  0.0031 -0.1065 -0.2216
24839W        W40733   2.684  13.732   1.397 -0.0251  0.0436  0.0385
24840W        W40734  15.228  13.488  11.321  0.2780  0.1220  0.0845
24841W        W40735   5.166  16.502  11.561 -0.2217  0.1160 -0.1121
24842W        W40736  10.449   6.386   5.414  0.1969 -0.2054 -0.1585
24843W        W40737  18.077  18.497  14.808  0.0596  0.1882 -0.0657
24844W        W40738  18.265   7.670   2.197 -0.2137 -0.0846 -0.1867
24845W        W40739  17.896  15.006  11.314  0.0396 -0.0038 -0.1477
24846W        W40740   9.009  13.749  12.645  0.1358  0.5863  0.2638
24847W        W40741   8.321   4.007   3.889 -0.1309  0.0151  0.0555
24848W        W40742  16.728  17.436   2.545 -0.0306  0.1043 -0.2209
24849W        W40743   9.274  13.193  10.413 -0.1305  0.1048  0.4005
24850W        W40744  14.760  18.391   3.433  0.2370  0.1527  0.0956
24851W        W40745   8.470  11.283   1.023  0.2058 -0.1806 -0.0089
24852W        W40746   4.797  15.861   4.235  0.4085  0.0220  0.0195
24853W        W40747   0.605   6.958  14.571  0.0980  0.0096 -0.0317
24854W        W40748  17.057  11.724  11.118  0.4635  0.2451 -0.1099
24855W        W40749  16.244   5.082   1.921 -0.1044  0.0671  0.3311
24856W        W40750   8.433   7.382  12.136 -0.0568 -0.1175  0.1714
24857W        W40751  11.538   3.943  11.451  0.0182  0.0216  0.1423
24858W        W40752   7.969  19.210   3.682  0.1141  0.0131 -0.2844
24859W        W40753  17.583  10.143   1.945  0.1360  0.1909 -0.4211
24860W        W40754   9.653   9.838   0.749  0.1052  0.4818  0.0925
24861W        W40755   1.222  18.472   4.514 -0.2153 -0.1186  0.0361
24862W        W40756   1.981  17.988  11.617  0.2008 -0.4231 -0.0649
24863W        W40757   8.672   2.863   2.473 -0.1072 -0.2126  0.1944
24864W        W40758  12.344   4.954  13.907 -0.1000  0.3588 -0.0471
24865W        W40759  13.225  15.870   2.777 -0.1138 -0.0917 -0.2933
24866W        W40760  17.414  13.055  10.585  0.2684 -0.3012 -0.4147
24867W        W40761  17.654   2.543  12.798  0.2450 -0.1365 -0.1425
24868W        W40762  14.124   9.312   1.303  0.0217  0.0560 -0.1077
24869W        W40763  16.037   8.016  13.057  0.0054  0.0613  0.0273
24870W        W40764  11.271  12.608  13.936 -0.1609 -0.0679  0.0600
24871W        W40765   4.569   2.722  11.148 -0.2236 -0.1859 -0.1132
24872W        W40766   0.710   3.137  11.032  0.2035 -0.2618  0.1458
24873W        W40767  14.922   0.749   3.655 -0.3352  0.1211  0.2108
24874W        W40768   0.232  12.916   3.718 -0.0959 -0.0644  0.3268
24875W        W40769  17.776  15.067  10.791 -0.2004  0.0658  0.0278
24876W        W40770  16.063   7.495  11.363  0.0447  0.1206 -0.0163
24877W        W40771  12.637   9.210  13.737 -0.0861  0.2578  0.0186
24878W        W40772  14.287   8.945  11.511  0.2019 -0.0095  0.1542
24879W        W40773   7.316  15.338   3.787  0.0656 -0.1101  0.1114
24880W        W40774   7.040   7.087   2.094 -0.0649  0.0629  0.2275
24881W        W40775   0.440   4.908   0.021 -0.3129 -0.4343 -0.0074
24882W        W40776  16.114  17.929   4.655 -0.0728 -0.0083 -0.0147
24883W        W40777  10.779   5.671   4.530 -0.2680 -0.2164 -0.0568
24884W        W40778   3.066   5.784   4.991 -0.2949 -0.1049 -0.0733
24885W        W40779   6.523  17.222  12.241 -0.1775 -0.1424 -0.2405
24886W        W40780   7.591   5.418  13.568 -0.1102 -0.1052  0.3176
24887W        W40781   2.176  15.856  11.547 -0.2555  0.1353  0.2143
24888W        W40782   0.947  13.009  14.206  0.0224  0.2474 -0.3185
24889W        W40783   2.458   6.288   3.659  0.0957  0.1984 -0.0993
24890W        W40784  13.887   0.087   4.568  0.0180 -0.0461  0.0766
24891W        W40785  13.247   8.392   3.701  0.1071 -0.0446  0.0149
24892W        W40786  14.868  11.511   2.786 -0.0941  0.1285 -0.2252
24893W        W40787   9.979   7.013   3.076 -0.0334  0.0124  0.0601
24894W        W40788  16.785  11.295  11.331 -0.1020  0.0631 -0.1517
24895W        W40789  17.557   5.616  11.062  0.0939  0.2163 -0.1404
24896W        W40790  14.802  11.712  11.533  0.1447 -0.1428 -0.0281
24897W        W40791  13.868  17.311   3.649  0.1018 -0.1544 -0.0725
24898W        W40792   9.429  15.524  14.341 -0.3320  0.3180  0.0958
24899W        W40793  11.761  14.784   2.633 -0.0827  0.2180  0.0016
24900W        W40794  14.155  16.919   3.469 -0.0581 -0.0568  0.2575
24901W        W40795  13.547   2.168  12.725  0.0544  0.1837 -0.0847
24902W        W40796  11.619  12.898  14.612  0.0803  0.1991  0.3607
24903W        W40797   2.381  14.376   2.587  0.1063 -0.2321 -0.1503
24904W        W40798   6.822   1.515  11.802  0.2235  0.0302 -0.1497
24905W        W40799  15.474  17.418  12.355 -0.2609 -0.0694 -0.0142
24906W        W40800  12.706  18.074  13.752 -0.0287 -0.0124  0.3378
24907W        W40801  14.161  17.277  14.646 -0.1753 -0.1379  0.2593
24908W        W40802  10.600   6.143  14.643  0.1149 -0.0674  0.2245
24909W        W40803  13.882   2.356   0.369 -0.4114  0.3414  0.0720
24910W        W40804   5.555   2.060  11.803 -0.0461 -0.1772 -0.1164
24911W        W40805   1.371  17.116  12.589  0.1108  0.1093 -0.1549
24912W        W40806  10.871  13.622  12.953  0.1581 -0.1836  0.2282
24913W        W40807  15.046  12.144  12.375 -0.0261  0.1008 -0.2289
24914W        W40808   6.262  18.046  13.280  0.1825  0.0155 -0.0130
24915W        W40809   4.104  12.879   4.733  0.1676 -0.2031 -0.1217
24916W        W40810   3.441  15.817  14.452 -0.2257  0.0893 -0.0862
24917W        W40811   3.246   2.286   5.327 -0.1905  0.1365  0.2046
24918W        W40812  16.232   2.824  13.042 -0.1142 -0.0142  0.2287
24919W        W40813  12.526  13.577   3.372 -0.0937 -0.0683  0.0129
24920W        W40814   3.067   3.066   3.881  0.2961 -0.3513 -0.2942
24921W        W40815   2.283  16.601  11.167 -0.1181 -0.2715  0.2013
24922W        W40816  12.625   5.389   3.691  0.3825 -0.0590  0.0264
24923W        W40817  10.022   0.555   4.518  0.0026 -0.0593 -0.0084
24924W        W40818   2.664  12.217  10.261 -0.0469  0.1619 -0.3943
24925W        W40819  18.918   2.367   6.071 -0.1247 -0.1320 -0.2323
24926W        W40820  17.768   2.877   3.352 -0.2272 -0.2719  0.1152
24927W        W40821   7.516  18.096   0.580  0.1227 -0.0638  0.1676
24928W        W40822   2.340   4.353   0.451 -0.3394 -0.1229  0.0421
24929W        W40823  15.530  15.383  10.857  0.0716 -0.1240  0.1179
24930W        W40824  10.361   9.205  11.882  0.1685  0.0803  0.2921
24931W        W40825  16.563   4.527   4.456 -0.3756  0.0232  0.3736
24932W        W40826  17.994  18.268   0.641  0.2734 -0.1835  0.1476
24933W        W40827   1.905   7.637   3.372  0.0865 -0.2393 -0.0580
24934W        W40828  11.402   0.404  13.372  0.1394  0.2056  0.3358
24935W        W40829  19.017  14.865  14.311 -0.4335  0.1169 -0.3641
24936W        W40830   6.730  18.780  14.736  0.1480 -0.2059 -0.1398
24937W        W40831   4.697   8.988   0.221 -0.3743  0.0711 -0.2395
24938W        W40832  12.805   0.482   3.025 -0.2246  0.1456  0.0996
24939W        W40833   3.918  16.265  14.635  0.0652 -0.0770  0.0004
24940W        W40834   2.798   7.405   4.053 -0.1075 -0.3333  0.2289
24941W        W40835  11.630  12.832   3.646  0.1547 -0.0611  0.0536
24942W        W40836   9.930   9.133  14.814 -0.1347  0.0927  0.2661
24943W        W40837   1.611   9.398   0.726  0.1905  0.1136  0.1529
24944W        W40838   7.404  16.117   5.037 -0.0356 -0.0972 -0.1142
24945W        W40839  16.958   4.326  11.283  0.0482  0.3995 -0.2758
24946W        W40840   8.261   2.203   4.466  0.0533 -0.1464  0.0501
24947W        W40841  10.905   3.091   4.282  0.3319  0.0729 -0.1100
24948W        W40842  13.416  11.260   2.478  0.2661 -0.0361  0.0467
24949W        W40843   1.607   8.017  11.696  0.2968 -0.0262 -0.2163
24950W        W40844   7.660  12.540  14.460 -0.2819  0.0466 -0.3097
24951W        W40845   1.096   0.038   0.866  0.0123  0.1981 -0.0139
24952W        W40846  16.509   2.092  11.420  0.0969  0.3734  0.1481
24953W        W40847  13.071   1.023   9.188  0.0949 -0.1086 -0.2147
24954W        W40848   7.148  13.201   4.427  0.2062 -0.0989 -0.4010
24955W        W40849  18.650  15.952  13.417 -0.0247  0.0886 -0.4547
24956W        W40850   1.738  12.019  13.244 -0.3713 -0.0398 -0.0919
24957W        W40851   1.479   3.215   5.491  0.3135  0.1765 -0.2039
24958W        W40852   3.555  12.470   4.102  0.0499 -0.1190 -0.0407
24959W        W40853  15.664   0.098   0.822  0.1284  0.0081 -0.1850
24960W        W40854   8.008   0.148   3.194 -0.1997  0.1090  0.1111
24961W        W40855   5.958   0.015  11.498  0.1238  0.1928  0.1456
24962W        W40856   5.748   5.694   3.172 -0.1063 -0.0957  0.0607
24963W        W40857  10.405   8.614   0.277 -0.3093  0.1868 -0.1959
24964W        W40858  13.584  12.104  13.424  0.1800  0.0082  0.2131
24965W        W40859   0.858  16.507   2.404 -0.0547  0.1172 -0.0417
24966W        W40860   5.735  15.417  10.734 -0.0220  0.3129 -0.1439
24967W        W40861  13.318   4.613   4.358 -0.1620 -0.3171  0.0066
24968W        W40862  12.709  10.070  10.031  0.1915  0.1028 -0.4008
24969W        W40863   8.162  10.954  14.957 -0.2727 -0.3183  0.1858
24970W        W40864   0.030  16.972  11.854 -0.1731  0.1487 -0.1191
24971W        W40865  17.279  19.054  10.893 -0.2530  0.3688 -0.0052
24972W        W40866   8.248  14.202  11.803  0.1970 -0.1886 -0.1328
24973W        W40867   2.291   0.561   1.144 -0.0009  0.1371 -0.0616
24974W        W40868   0.172  10.814  13.039 -0.2295  0.0182  0.0086
24975W        W40869   8.295   0.752   3.712 -0.0372  0.3767  0.0043
24976W        W40870   9.551  11.859  13.934 -0.0506  0.1156  0.0380
24977W        W40871  15.601  13.508  10.341  0.2667 -0.0321  0.0472
24978W        W40872   8.891   8.642   0.521 -0.2899 -0.1518  0.3674
24979W        W40873  14.783   2.281  13.221 -0.0947  0.0672  0.0041
24980W        W40874  11.091   4.120  13.167  0.2122 -0.0130  0.2646
24981W        W40875  17.079   8.478   0.246 -0.0829  0.2474 -0.0658
24982W        W40876  17.283   9.106  14.726 -0.0002 -0.0365 -0.0735
24983W        W40877  10.457  11.032   5.213 -0.0641 -0.2190 -0.1882
24984W        W40878   9.599  17.544   4.817  0.3120  0.0074 -0.0240
24985W        W40879   1.750   6.108  14.156 -0.3136  0.0533 -0.2499
24986W        W40880   5.141  15.613  13.266 -0.3295  0.1717  0.0020
24987W        W40881  13.693  18.005   5.455 -0.0662 -0.0684 -0.1904
24988W        W40882  18.142   7.415   1.256  0.2520 -0.3903  0.2020
24989W        W40883   0.686   2.680   2.856 -0.0330  0.0048 -0.1398
24990W        W40884  11.278  15.588   3.043  0.1586  0.1630 -0.2856
24991W        W40885  11.983   5.072   4.831  0.1041  0.2001  0.2126
24992W        W40886  11.350  11.569   4.599 -0.0261 -0.1626 -0.1755
24993W        W40887   3.437  12.625   2.705  0.4640  0.1129  0.0405
24994W        W40888   8.529  12.290  13.924 -0.2062 -0.2828  0.2102
24995W        W40889   0.091  10.261  10.535  0.1314  0.0211  0.0121
24996W        W40890   6.693   9.302   1.115 -0.2191  0.2812  0.0924
24997W        W40891   2.658   0.075   3.024  0.1229  0.1014 -0.0026
24998W        W40892  16.834   2.743  13.886  0.1379  0.0137 -0.0199
24999W        W40893   3.693   7.986  14.260  0.2504  0.1118 -0.1189
25000W        W40894   8.047   7.464  13.455 -0.0808 -0.5390  0.2593
25001W        W40895   8.270   1.128   2.872  0.2531 -0.5206 -0.1141
25002W        W40896   2.697  18.668  13.015  0.0307 -0.0557  0.1821
25003W        W40897  11.730  18.171   1.291 -0.2480  0.1341 -0.1938
25004W        W40898   0.057   2.313   2.707  0.0145  0.1281 -0.2214
25005W        W40899  18.472  18.556  12.231 -0.0461  0.3011 -0.4461
25006W        W40900   8.808   3.867  14.396  0.2577  0.1217 -0.2387
25007W        W40901   7.899   3.242   4.455  0.1874  0.0919 -0.0601
25008W        W40902   6.950   7.728  10.851 -0.0362  0.0937  0.2371
25009W        W40903  15.337  14.559   3.332  0.3496 -0.0412  0.2742
25010W        W40904   1.586  14.827   3.533 -0.0251 -0.2465  0.0660
25011W        W40905   4.963  10.348  10.571 -0.2383 -0.0656  0.1593
25012W        W40906  17.826  16.351   3.816  0.0101 -0.5028  0.2923
25013W        W40907   6.306  13.596   2.747  0.1335  0.0643 -0.3432
25014W        W40908   1.082  12.891   1.717 -0.0122  0.0510 -0.1110
25015W        W40909   7.228   4.872   3.667 -0.0130  0.3375 -0.0677
25016W        W40910   8.343  12.529   2.692 -0.3470 -0.1284 -0.2779
25017W        W40911   6.040  12.862   2.196  0.0840  0.0537  0.0670
25018W        W40912   7.348  10.557   1.800 -0.3286  0.0346  0.1448
25019W        W40913   7.467   3.128   3.297  0.0929  0.0059 -0.0350
25020W        W40914   8.706   9.293  13.244  0.1312 -0.1149  0.1249
25021W        W40915   4.850  15.460  12.922 -0.4996 -0.1307  0.2702
25022W        W40916  18.971  19.212   3.276  0.0497 -0.0262 -0.0264
25023W        W40917   3.053  10.109   0.501  0.0025 -0.2057 -0.0199
25024W        W40918   4.493  15.490  10.960 -0.4199 -0.1254  0.0990
25025W        W40919  16.674  18.639   4.794  0.1144  0.0979 -0.2264
25026W        W40920   2.596   9.003  12.805  0.0839 -0.0624  0.0599
25027W        W40921  11.093  14.276  11.286  0.1195  0.1001  0.0244
25028W        W40922  17.401   1.797  14.693 -0.1431 -0.1676  0.5749
25029W        W40923  16.272  14.653  10.320 -0.2235 -0.1483  0.4061
25030W        W40924  10.962   4.946   5.710  0.2222 -0.0845  0.2112
25031W        W40925  11.344  13.156   0.412  0.0691  0.1998 -0.1421
25032W        W40926  10.419  12.220  14.482  0.2315  0.3878  0.1181
25033W        W40927  13.529  13.842  10.307  0.0309 -0.4530 -0.1745
25034W        W40928   8.128  12.847   2.002 -0.0186 -0.4634 -0.2389
25035W        W40929  13.635  18.463  13.659  0.0267  0.0925 -0.2088
25036W        W40930   5.389  11.030  14.056 -0.1203 -0.3003  0.0270
25037W        W40931  16.981   6.087   2.897 -0.3574 -0.2122  0.2731
25038W        W40932   6.754  12.085   0.572 -0.1207  0.2937 -0.1028
25039W        W40933   0.362   1.270  11.746 -0.0739 -0.0848 -0.1741
25040W        W40934   6.864   6.539  14.003  0.0307  0.4903  0.0737
25041W        W40935   9.284  17.114   2.272  0.0922  0.0040 -0.0522
25042W        W40936  12.708  17.866  11.694  0.0396  0.0898 -0.3007
25043W        W40937  14.440  14.004   3.215  0.2157  0.2492 -0.1146
25044W        W40938   3.416  12.159  13.584  0.2800 -0.1088 -0.0918
25045W        W40939   9.498   6.644   0.482  0.0717 -0.1561 -0.2129
25046W        W40940  10.090  19.069   4.049  0.0538  0.0740  0.0756
25047W        W40941  17.580  15.439  14.680 -0.1579  0.3882  0.3168
25048W        W40942  18.712   8.428   6.178 -0.1036  0.1915 -0.2123
25049W        W40943   3.726  19.002   0.721 -0.1705  0.0816  0.0041
25050W        W40944  16.497  11.874   3.258  0.4948  0.2114  0.0212
25051W        W40945  16.751  13.744   0.459 -0.2209 -0.2545  0.1316
25052W        W40946  10.337   4.274  13.099 -0.1250  0.2695 -0.1947
25053W        W40947  10.042   6.919  11.944 -0.2793  0.3286 -0.2142
25054W        W40948  10.873  13.066   3.398  0.0684 -0.0871  0.3634
25055W        W40949   9.003  11.855  13.382  0.1111  0.2240 -0.0407
25056W        W40950  17.113  19.079  11.939  0.0770 -0.1650  0.2397
25057W        W40951   4.420   2.098  14.776  0.2112 -0.1153 -0.0616
25058W        W40952  19.009  17.726  10.535  0.2414 -0.1146 -0.1989
25059W        W40953   0.797   9.543  11.294  0.1329  0.3033 -0.0739
25060W        W40954  16.654   1.384  13.542  0.4095  0.1141 -0.0812
25061W        W40955   5.269   3.250  12.180 -0.0655 -0.3970  0.0894
25062W        W40956   9.862  16.016  13.765 -0.0814  0.2619 -0.0471
25063W        W40957   9.628  17.794   3.590  0.0228 -0.2674  0.0897
25064W        W40958   8.639   0.800  14.369  0.1019 -0.4308  0.3298
25065W        W40959  13.645  18.313   1.117 -0.2811  0.0790 -0.0745
25066W        W40960   6.226   3.097   5.233  0.0711 -0.2858  0.0350
25067W        W40961  13.973  17.652  11.725  0.3636 -0.2559  0.1875
25068W        W40962  10.392   9.559  14.754  0.0154  0.1133 -0.0001
25069W        W40963  11.335  18.053   4.303 -0.3276  0.2787 -0.1531
25070W        W40964   7.339   0.726  12.979  0.0904 -0.0634 -0.3026
25071W        W40965   1.547  10.114  14.245  0.0179 -0.0605 -0.1919
25072W        W40966  13.948  10.489   2.225  0.0787  0.1405 -0.3712
25073W        W40967  18.752   1.612   0.770  0.1537  0.2640  0.0733
25074W        W40968   5.982  13.536   0.878  0.0094  0.4189  0.1469
25075W        W40969   6.108  12.975  12.879  0.0287 -0.1398  0.2130
25076W        W40970  13.025   0.782   1.245  0.0767  0.3643  0.0981
25077W        W40971   3.160   0.341  11.322 -0.0037 -0.0156 -0.0925
25078W        W40972  18.023   0.084  13.103 -0.1206  0.1724 -0.1458
25079W        W40973  12.963   4.560  14.379  0.0824  0.0669 -0.2553
25080W        W40974  12.073   7.253  12.953 -0.0086 -0.0690  0.2152
25081W        W40975   3.787   6.330   4.590 -0.2382  0.0102 -0.1478
25082W        W40976  10.025   4.492   5.264 -0.0545  0.1817  0.0267
25083W        W40977   5.269   1.163   0.842  0.2025  0.0892 -0.1606
25084W        W40978  12.010   2.385   0.235 -0.0586 -0.0490  0.0728
25085W        W40979  14.801  11.459   1.033  0.0450  0.2122  0.1004
25086W        W40980  15.267  11.180   2.869  0.1016 -0.0294  0.0106
25087W        W40981  12.929  16.211   4.409  0.2701 -0.1466 -0.0660
25088W        W40982  10.811  17.676   3.096  0.1336 -0.2961  0.1941
25089W        W40983  10.200  12.089  12.894 -0.2376 -0.2820  0.1352
25090W        W40984   9.330   4.804   2.747  0.2568  0.2004  0.0286
25091W        W40985  13.563   2.196  10.410  0.3659  0.4620 -0.0278
25092W        W40986  11.165   0.374   0.093 -0.1806  0.2147 -0.1192
25093W        W40987   4.279   7.269   0.008 -0.2406  0.2422 -0.0945
25094W        W40988   9.279  18.548   1.088 -0.0514  0.1771  0.3561
25095W        W40989  15.846   6.533   3.080  0.1004  0.1647  0.2203
25096W        W40990   0.593  14.757   0.155  0.2070  0.1502  0.1300
25097W        W40991  13.876  11.935   1.267 -0.2578 -0.0854  0.1815
25098W        W40992  10.005  17.477   1.295  0.0028 -0.0008 -0.2948
25099W        W40993   6.460   8.361  14.185  0.3274 -0.0123  0.0462
25100W        W40994  10.655   6.919  12.061  0.0249 -0.3141  0.6235
25101W        W40995  14.835  17.645   4.637 -0.1571 -0.2198  0.0566
25102W        W40996  16.476  17.498   0.259 -0.4506  0.2397 -0.2457
25103W        W40997  17.307  18.218   1.285 -0.0165 -0.2531  0.1773
25104W        W40998   8.209  11.607   0.132  0.2791 -0.3700  0.1719
25105W        W40999  17.827  15.115   9.602 -0.0871  0.2523  0.0890
25106W        W41000  12.584  16.498   4.602  0.1979  0.0093 -0.3018
25107W        W41001  12.745   9.431  12.472 -0.1887  0.0100 -0.2147
25108W        W41002   1.733   5.194   0.976  0.2444  0.1278  0.3249
25109W        W41003   7.711  12.368   2.574 -0.0637 -0.0371 -0.4701
25110W        W41004   0.035  15.835  12.792 -0.1553 -0.1477 -0.0750
25111W        W41005   5.514  12.490  14.590  0.1716  0.0556 -0.0208
25112W        W41006   6.551  18.429   0.242 -0.1477  0.0663  0.2167
25113W        W41007   3.529   1.640   2.907  0.2775  0.0395  0.3408
25114W        W41008   4.493   4.608  13.230  0.2312  0.4445 -0.3125
25115W        W41009   2.353  13.549   4.066 -0.0046  0.1571  0.0977
25116W        W41010   9.194  17.430  13.945 -0.1882 -0.2300 -0.2477
25117W        W41011  13.957   5.561   2.694 -0.3357  0.0188 -0.0126
25118W        W41012  16.147  15.937  11.400  0.1952 -0.0230  0.5388
25119W        W41013   3.916   0.628   2.903  0.1750  0.0903  0.4718
25120W        W41014  15.923  12.208   1.577 -0.4376 -0.1023 -0.3354
25121W        W41015   1.544  13.392   0.125  0.4311 -0.0759 -0.1543
25122W        W41016  11.351   2.012  12.304 -0.1688  0.0014 -0.0207
25123W        W41017  15.327   3.173  10.721 -0.0886 -0.0666  0.3987
25124W        W41018  12.282   5.320  11.587 -0.1536 -0.2353  0.1403
25125W        W41019  13.011  13.773  10.228 -0.4413 -0.1016 -0.1633
25126W        W41020  11.718  14.586   2.113 -0.1958 -0.3079  0.0497
25127W        W41021   1.537   3.529  14.023  0.3027  0.0036  0.0549
25128W        W41022  10.080   3.014   1.146 -0.1042  0.1646 -0.3727
25129W        W41023   6.744  17.615   3.578  0.1339 -0.2041  0.1842
25130W        W41024   9.035  18.834   4.268 -0.0780  0.4140  0.1244
25131W        W41025   6.509   1.403   0.354  0.2328  0.2602  0.1154
25132W        W41026   5.675  15.555   1.341 -0.3606 -0.3423  0.0799
25133W        W41027   3.501   1.571   1.422  0.0908 -0.1733 -0.0754
25134W        W41028   5.977   9.242  11.523  0.1463  0.0129 -0.1288
25135W        W41029   4.141   4.479   2.166  0.2209  0.1782 -0.4378
25136W        W41030   6.257   9.979   3.771  0.1107  0.0212 -0.2358
25137W        W41031  12.035  14.441  11.243  0.1079  0.0116 -0.0530
25138W        W41032   9.793   0.998   1.394  0.0005 -0.1469  0.2295
25139W        W41033  16.406  16.168   2.064  0.1758 -0.0158 -0.4719
25140W        W41034   8.585  10.346  13.721 -0.0822 -0.0514 -0.0542
25141W        W41035   7.886   3.069  11.704  0.0355  0.2831 -0.0011
25142W        W41036   2.554   5.334  13.822  0.2571 -0.0101 -0.0336
25143W        W41037  10.887  10.326   0.509  0.0625 -0.5088 -0.2410
25144W        W41038   6.612   8.830   3.084 -0.0322 -0.0631  0.0713
25145W        W41039   4.819   7.390   1.087  0.1405 -0.1679  0.2211
25146W        W41040   0.050   3.347  13.243 -0.4101 -0.1459 -0.0483
25147W        W41041   4.939   8.177   4.505 -0.0210  0.0840  0.0902
25148W        W41042   3.516   0.173   1.426 -0.0067 -0.0261  0.0450
25149W        W41043  18.156  11.093   0.091  0.1084  0.0855 -0.0783
25150W        W41044  17.991   3.775   0.127 -0.0026 -0.3440 -0.1074
25151W        W41045  11.771   3.501  11.692 -0.1294  0.2200 -0.0527
25152W        W41046  12.139  12.251   0.564 -0.1171 -0.1267  0.0482
25153W        W41047  19.143  12.305  13.146  0.1778 -0.1342 -0.0882
25154W        W41048   0.264   9.295   1.935  0.1876  0.3918  0.1812
25155W        W41049   5.009  14.620  14.364 -0.0358 -0.1121 -0.0067
25156W        W41050  11.288   0.715  10.631  0.1178  0.3905  0.1295
25157W        W41051   4.734   5.603  14.803  0.0223 -0.0767 -0.1242
25158W        W41052   0.643   9.108  12.152 -0.1582  0.1343  0.4597
25159W        W41053  10.647  10.232  10.649  0.0247  0.1758  0.2041
25160W        W41054  18.396   1.444  12.584 -0.0086 -0.0211  0.1145
25161W        W41055   5.049   1.616   0.843  0.0274 -0.2183  0.0707
25162W        W41056  11.293   2.540   0.763  0.0404  0.0962  0.0634
25163W        W41057  17.240   0.670  14.271  0.2199  0.2628  0.0557
25164W        W41058  19.128  16.779   2.476  0.1030 -0.0272  0.0133
25165W        W41059  15.719   3.999   4.679 -0.2058 -0.1560 -0.1133
25166W        W41060   2.126   1.581  11.981 -0.2092  0.0065  0.1258
25167W        W41061  14.132  14.416   2.941  0.2706 -0.2507 -0.3095
25168W        W41062  15.971   0.146  15.070 -0.0546 -0.2712 -0.3084
25169W        W41063   7.094   8.695   1.311 -0.2068 -0.2609  0.2956
25170W        W41064   7.809  16.284   3.093 -0.0353  0.1222 -0.3897
25171W        W41065   5.008  15.342   0.599  0.1623 -0.1498 -0.0611
25172W        W41066  17.464   8.628   3.114  0.1355 -0.1777 -0.0096
25173W        W41067   8.896  14.922   0.883  0.0296  0.2708 -0.3481
25174W        W41068  12.296  16.892  10.107 -0.0265  0.0364  0.2023
25175W        W41069  10.474  10.876  11.466 -0.2050 -0.0876 -0.0632
25176W        W41070   6.083   7.280   3.941 -0.1541 -0.0768  0.0853
25177W        W41071   6.873   9.463  13.122  0.0943 -0.0389  0.0333
25178W        W41072  16.703   1.598   3.778  0.2229 -0.0155 -0.0795
25179W        W41073   4.182   5.324   4.619 -0.1374 -0.3326 -0.0807
25180W        W41074   7.114  17.463  14.415  0.0458  0.1573 -0.1238
25181W        W41075  10.226   4.019   3.157  0.1048 -0.0682  0.2763
25182W        W41076   0.840  12.312   3.083 -0.0081 -0.0101 -0.0158
25183W        W41077  14.920  15.887  12.858 -0.1234  0.0179  0.0345
25184W        W41078   1.895   3.199  12.297 -0.1429  0.0738 -0.1044
25185W        W41079  18.049   8.779  13.913 -0.1936 -0.1149  0.3154
25186W        W41080  15.215   5.547   2.445 -0.0564 -0.1087  0.1733
25187W        W41081  15.793  12.317  14.005  0.0070  0.0357  0.1175
25188W        W41082   0.285   7.619  14.071  0.0451 -0.1368 -0.0199
25189W        W41083  19.188   7.963   1.611 -0.0915  0.1503 -0.0640
25190W        W41084  10.483  12.432   4.142  0.3550  0.1394  0.0892
25191W        W41085  16.156   0.899   0.325  0.1229  0.3312 -0.0464
25192W        W41086  14.003   7.898  14.680 -0.2994 -0.0799 -0.0140
25193W        W41087  17.655  18.960  13.825  0.0847  0.4419 -0.3518
25194W        W41088  10.730  15.139   5.529  0.2968  0.2269 -0.1349
25195W        W41089  18.654   1.338   4.756  0.3555 -0.2595  0.4653
25196W        W41090  14.177   7.155   1.409 -0.2254  0.0410 -0.0302
25197W        W41091   0.084  18.035   2.276 -0.1850 -0.1796  0.1155
25198W        W41092  18.070   7.124  13.001  0.1423  0.0841  0.1930
25199W        W41093   9.092  12.571  14.429  0.0812 -0.0394 -0.2048
25200W        W41094   9.553   9.195   3.124 -0.1737  0.1870  0.0393
25201W        W41095  15.171   3.537   1.912  0.1040  0.0604  0.3684
25202W        W41096   3.942   1.005  11.000 -0.2032  0.0392 -0.3157
25203W        W41097  12.408  19.216   2.208  0.0953 -0.0046  0.5988
25204W        W41098   1.323  11.116  11.071 -0.0940  0.3183 -0.3348
25205W        W41099  18.235  15.338   2.733 -0.0742  0.0100 -0.1217
25206W        W41100  14.821  18.737  12.455 -0.0745  0.0827  0.0358
25207W        W41101  14.983   8.562  10.425  0.2662 -0.1078  0.0516
25208W        W41102  14.238  11.572   1.944  0.2660 -0.1630  0.0078
25209W        W41103  16.422  14.042  10.329 -0.1825 -0.2111 -0.2598
25210W        W41104   5.214  10.932   0.078  0.4496  0.2521  0.1592
25211W        W41105   3.789  14.274  11.132  0.4283  0.1634 -0.1809
25212W        W41106  14.146  12.015   4.054  0.1245 -0.0189 -0.0256
25213W        W41107   8.766   2.479   0.003  0.0085 -0.0260  0.1269
25214W        W41108   3.644   6.951   5.055 -0.0132 -0.0040  0.0445
25215W        W41109   3.040  15.119  14.969 -0.1744  0.0261 -0.0844
25216W        W41110  10.632  19.211  13.666 -0.0756  0.5057 -0.1101
25217W        W41111   9.041   6.575  12.332 -0.0161 -0.0884 -0.3283
25218W        W41112  15.974   3.535   3.983  0.0061 -0.0033  0.2980
25219W        W41113  13.017  18.724   4.546  0.0811 -0.0212  0.0319
25220W        W41114   0.242  16.568  13.165 -0.0728 -0.3961 -0.1788
25221W        W41115  13.880   2.453  11.220  0.1524 -0.0904  0.1704
25222W        W41116   6.931  18.361   3.250 -0.3318 -0.0994 -0.0946
25223W        W41117   5.205  10.234  12.050 -0.4573 -0.0743  0.2482
25224W        W41118  17.562   0.356   0.677 -0.0963  0.0245 -0.1601
25225W        W41119  14.265   3.037   0.568  0.0084  0.0459  0.0144
25226W        W41120   2.001  10.627  12.960  0.0579  0.2858 -0.0219
25227W        W41121  15.370  10.134  10.921  0.1305  0.0812  0.1361
25228W        W41122   7.006   6.457  11.769 -0.0156  0.0102  0.0844
25229W        W41123   2.773  18.286  12.005 -0.1486 -0.0015 -0.2679
25230W        W41124  18.417  15.112  12.982 -0.2027  0.1567  0.1394
25231W        W41125   8.598  12.464   3.476 -0.1912  0.1494 -0.1421
25232W        W41126   5.638  17.701  12.462 -0.2662  0.3104  0.1656
25233W        W41127   3.843   4.176   2.635  0.0116 -0.1058 -0.0695
25234W        W41128  10.466  11.561   1.508 -0.0291 -0.3174 -0.1678
25235W        W41129   3.522   2.349   4.440 -0.3332 -0.0839  0.2374
25236W        W41130   2.035   5.763   5.128 -0.2657  0.1041  0.0630
25237W        W41131  11.590  18.259  11.950 -0.2624  0.1918  0.0869
25238W        W41132  17.712   9.532   3.245 -0.0333 -0.0135 -0.1868
25239W        W41133   4.226  11.602   2.369 -0.2849 -0.0350  0.1552
25240W        W41134   1.832   1.334   4.502  0.1801 -0.2276 -0.1203
25241W        W41135   9.000   7.738  14.111  0.1606  0.1915 -0.2735
25242W        W41136  17.052  15.382   4.215  0.0293  0.3841 -0.1713
25243W        W41137   6.521  10.907   1.646 -0.0603  0.2861 -0.0314
25244W        W41138  17.637  14.780   2.697  0.0323  0.4062  0.0404
25245W        W41139   4.688  17.928   3.009 -0.0098  0.0442  0.0655
25246W        W41140   0.372  10.529  12.705  0.1488  0.0333  0.1773
25247W        W41141   4.844  11.710   2.812 -0.3096  0.2598  0.2338
25248W        W41142   5.844  16.927   2.516  0.1580  0.1385 -0.0149
25249W        W41143  15.463   3.475   3.874 -0.1941  0.0533  0.1278
25250W        W41144   8.354   6.613   9.458  0.0152 -0.1885 -0.2630
25251W        W41145  12.777   7.449   2.873 -0.0758  0.0179  0.0479
25252W        W41146  18.687   1.831  11.466 -0.1704  0.0322 -0.2322
25253W        W41147  13.507  14.597  11.748  0.1178 -0.0515  0.0235
25254W        W41148   9.778   3.650   0.829 -0.3216 -0.1430 -0.1713
25255W        W41149  17.610  16.191   2.663  0.3997 -0.1918  0.0966
25256W        W41150   2.679   0.194   0.314 -0.1507 -0.0094 -0.3639
25257W        W41151  11.717   6.227  14.064  0.1068  0.1360 -0.2491
25258W        W41152  16.477   1.022   0.749 -0.0717 -0.0027 -0.2197
25259W        W41153  18.918   2.337  11.710  0.0402 -0.2817 -0.0809
25260W        W41154   1.773   5.429  11.949  0.0441 -0.1570  0.0576
25261W        W41155   1.420  17.965   4.504  0.5920 -0.3092  0.0126
25262W        W41156  12.531   8.223   1.846  0.3227 -0.3667  0.0859
25263W        W41157  10.166   3.100  14.498  0.2790 -0.1892 -0.3345
25264W        W41158   3.689  11.532   3.047  0.0402  0.0512  0.1050
25265W        W41159   3.268   6.159   1.511  0.2111 -0.3829 -0.3795
25266W        W41160  14.545  17.933  10.620 -0.1692  0.0465  0.1509
25267W        W41161   2.946  15.738   2.584  0.0617 -0.2691 -0.2145
25268W        W41162  14.239  12.608   0.769  0.0712 -0.2753  0.0314
25269W        W41163  17.016  15.113   2.079 -0.1843 -0.0163  0.0980
25270W        W41164  17.690   9.850   2.373  0.2981 -0.1410 -0.1722
25271W        W41165   0.116  13.294   4.058  0.1593 -0.2052  0.0391
25272W        W41166  18.560  14.053   1.447 -0.0802  0.0506 -0.2937
25273W        W41167  10.562   4.800  14.249 -0.0160  0.1463  0.0789
25274W        W41168   5.281  16.244  12.075  0.4253  0.3631  0.1427
25275W        W41169   7.816   1.490   1.677  0.2827  0.0952  0.4211
25276W        W41170   3.779   0.864   2.096  0.1281 -0.4066  0.2326
25277W        W41171   2.376   2.962  14.091  0.0485 -0.0432  0.1588
25278W        W41172   2.540   2.190  14.575 -0.2101  0.1625 -0.1583
25279W        W41173  13.252  13.534  12.505 -0.0209 -0.3857 -0.2298
25280W        W41174  11.781   6.979   9.598  0.1384 -0.2942  0.3446
25281W        W41175   7.058   4.894   9.860  0.0352  0.2228  0.0289
25282W        W41176   6.628  10.317   1.546 -0.1263 -0.2264  0.0722
25283W        W41177  13.112  17.553   0.954 -0.0902  0.1031 -0.1284
25284W        W41178   8.162   2.282  11.644  0.2332 -0.1265  0.1214
25285W        W41179  14.382  16.749   4.473  0.1335  0.0502 -0.0809
25286W        W41180   0.925   6.766  13.900  0.2724 -0.1252  0.0553
25287W        W41181  16.701  11.548  11.740  0.1035 -0.2002  0.0800
25288W        W41182  12.482  15.762  11.605  0.1737  0.1338  0.0184
25289W        W41183  14.288  12.078   4.629  0.1105  0.1661  0.0037
25290W        W41184  15.917   3.687  12.700 -0.1761  0.3046  0.3679
25291W        W41185  18.282  15.713  13.630 -0.0763 -0.2554 -0.3102
25292W        W41186   2.126  15.248   3.722 -0.0792  0.3454  0.1280
25293W        W41187  17.465   1.639  13.091 -0.0447  0.0485  0.0585
25294W        W41188  12.003  11.658   5.513  0.0182 -0.3437  0.3491
25295W        W41189  12.064   3.123  11.917 -0.3471 -0.2740 -0.1058
25296W        W41190  11.305  13.536  11.835 -0.0910  0.2380 -0.0628
25297W        W41191   3.316  10.473  14.135 -0.1127  0.0950 -0.0884
25298W        W41192  18.173   7.513   1.748 -0.0021  0.0999  0.1352
25299W        W41193   8.932  16.891   2.878  0.1157  0.1171  0.3870
25300W        W41194   6.277   3.269   1.001 -0.2254  0.0029 -0.0956
25301W        W41195   5.137   0.696  12.160 -0.1476  0.0273 -0.1003
25302W        W41196   7.500  17.228   1.206  0.1775 -0.0571  0.5060
25303W        W41197   7.501  14.171  12.127  0.2185  0.3067 -0.3748
25304W        W41198  12.147  12.581   3.029  0.2011 -0.4115 -0.0063
25305W        W41199  10.290  17.053  12.549 -0.1849  0.0568 -0.0394
25306W        W41200   0.646  11.374   2.019 -0.2888  0.2563  0.2390
25307W        W41201  11.691   3.796   1.857 -0.4450  0.0821  0.1319
25308W        W41202   4.951  10.130   3.650 -0.2512  0.0082 -0.1610
25309W        W41203  11.331  13.284  13.162 -0.0774 -0.1985 -0.3869
25310W        W41204  14.986  12.365   1.098  0.1385 -0.0062 -0.3089
25311W        W41205   5.723  18.423   2.800 -0.0418 -0.1730  0.4972
25312W        W41206   0.457   2.145  12.051 -0.1665  0.0388  0.0724
25313W        W41207  14.441  12.008  10.217 -0.0756 -0.0354 -0.0070
25314W        W41208  17.935   1.721  14.961 -0.0329 -0.0066 -0.1213
25315W        W41209   5.229  16.067   4.750 -0.1965 -0.2843 -0.3918
25316W        W41210   3.642   2.371   3.939 -0.1210  0.0360 -0.0739
25317W        W41211   4.022  14.046  10.724 -0.0417 -0.3402 -0.2277
25318W        W41212   1.309   1.887   0.141  0.2370  0.0157  0.3082
25319W        W41213  11.128  13.234  11.286 -0.0226 -0.2604  0.0697
25320W        W41214   8.246   9.482   1.437  0.0958 -0.0043  0.1735
25321W        W41215  14.133   3.133   1.933 -0.1049 -0.3694  0.0465
25322W        W41216  16.970  15.552  14.466  0.2394 -0.0822 -0.0697
25323W        W41217  10.152   7.223   2.035 -0.2868 -0.1328  0.2501
25324W        W41218   6.417  16.517   3.505 -0.0169 -0.0902  0.3232
25325W        W41219  17.636   4.464  12.566  0.0085  0.4287 -0.0620
25326W        W41220  14.879  12.399   3.739 -0.0183 -0.0390 -0.3461
25327W        W41221   9.161  13.183  13.479  0.1174  0.0954 -0.1932
25328W        W41222  18.513  13.573   4.377  0.2764 -0.2130  0.1692
25329W        W41223  11.855  18.612   2.697  0.1512 -0.0854  0.0914
25330W        W41224   1.123   4.743   1.740  0.4769 -0.2022 -0.2075
25331W        W41225  17.092  18.824   5.193 -0.0772 -0.0695 -0.2345
25332W        W41226   9.980  14.734  10.178  0.1635 -0.1991 -0.0894
25333W        W41227   2.237   1.007   2.781  0.0682 -0.2620  0.2081
25334W        W41228   7.333   8.063   5.049  0.2512  0.2091  0.3192
25335W        W41229  10.731  14.321   3.995  0.1468 -0.2406  0.0583
25336W        W41230   4.075   3.359  12.062 -0.0169 -0.1790  0.3617
25337W        W41231   7.261   6.381   3.299 -0.0871  0.1808 -0.1694
25338W        W41232   3.167   1.506   0.069 -0.1309  0.1006 -0.0865
25339W        W41233  17.097  18.191  13.320  0.1776 -0.1604 -0.1267
25340W        W41234   5.663   9.675   3.083  0.2144 -0.0258  0.0646
25341W        W41235   5.027  16.985  11.485 -0.2835  0.3071 -0.1989
25342W        W41236  15.534   4.362   4.342  0.4090  0.2630 -0.3055
25343W        W41237   9.260   0.520  12.919  0.0414 -0.0882  0.2068
25344W        W41238   7.387   0.303   6.025  0.1229  0.0249 -0.3125
25345W        W41239  19.045   1.547  13.812  0.2213 -0.2998 -0.2977
25346W        W41240  14.602   0.876  13.676 -0.1689 -0.0308  0.0686
25347W        W41241  16.571   9.692   3.443  0.0683 -0.0859 -0.1404
25348W        W41242   9.969   7.820   4.115 -0.0530  0.1285 -0.3474
25349W        W41243  13.456   2.971   4.922 -0.2574 -0.3752  0.2829
25350W        W41244  18.746  14.253   0.738 -0.2695 -0.2973  0.1625
25351W        W41245  16.927  15.028  10.556 -0.1193  0.0910  0.1548
25352W        W41246   3.540   3.759  14.892  0.3162  0.1930  0.1376
25353W        W41247  17.286   6.047   9.651 -0.2146 -0.2237 -0.0837
25354W        W41248   6.363   2.728  12.977 -0.0752  0.1927  0.0184
25355W        W41249  11.839  16.674   2.345  0.0632 -0.2313  0.2042
25356W        W41250   7.188  17.601   3.891 -0.1343  0.0530 -0.1503
25357W        W41251  12.366  12.220  14.199 -0.1209  0.1664 -0.1139
25358W        W41252   1.617  14.646   2.934 -0.3159  0.0335 -0.2853
25359W        W41253   0.528   4.738  14.670 -0.1083 -0.2263 -0.0836
25360W        W41254   8.483   0.247   3.055  0.5256  0.3249  0.2072
25361W        W41255  17.887  10.836   3.255  0.0376  0.0293 -0.0334
25362W        W41256   4.674   8.608   1.367 -0.2995 -0.1244 -0.2051
25363W        W41257   9.536  10.310   4.892  0.0621 -0.3475 -0.1038
25364W        W41258   4.858   6.632  12.080 -0.3677 -0.2143 -0.1904
25365W        W41259  13.229   3.716  14.118  0.0967  0.2705  0.0606
25366W        W41260  14.833  12.480  10.883  0.0393  0.1157  0.0341
25367W        W41261   2.818   3.163   5.382 -0.0449  0.2632  0.0019
25368W        W41262  13.723  14.557   2.230  0.0394 -0.3209  0.1642
25369W        W41263   0.048  11.552  12.500  0.2609  0.2610 -0.0965
25370W        W41264   6.298   5.887  13.110  0.0126  0.0623  0.2146
25371W        W41265   3.931  12.558  13.533 -0.1864  0.0516  0.4037
25372W        W41266   9.361   2.733  11.900 -0.0339 -0.1339 -0.0638
25373W        W41267  10.375   2.399   2.092 -0.2583  0.3164  0.1895
25374W        W41268  14.873  18.617  13.017 -0.3185 -0.0343  0.0511
25375W        W41269  17.151   3.916   4.172 -0.2949  0.0307 -0.5605
25376W        W41270  15.956   7.744   3.370 -0.2115  0.0890  0.1934
25377W        W41271   4.051  16.063  11.629 -0.1557  0.1658 -0.1438
25378W        W41272   2.063  16.057  14.640 -0.1257 -0.2937  0.1247
25379W        W41273  18.881   5.059  12.123 -0.3208  0.0577  0.0930
25380W        W41274  11.561   5.006  11.054  0.0803  0.2448 -0.1104
25381W        W41275   0.943   2.222   4.244 -0.3332  0.0182  0.0471
25382W        W41276  17.591  12.764   0.133  0.2346  0.1674 -0.2310
25383W        W41277   9.362   2.629   1.870  0.2474 -0.4436 -0.1012
25384W        W41278  18.828   0.245  13.157 -0.0968 -0.1572  0.1732
25385W        W41279   5.129   0.947  14.549 -0.0616 -0.0873 -0.1973
25386W        W41280   1.224  11.015   0.225  0.0879 -0.1636 -0.0918
25387W        W41281  16.271   2.528  11.306  0.1574 -0.3545 -0.0079
25388W        W41282  17.971   1.186  14.899 -0.3879  0.1654  0.0123
25389W        W41283  14.171   9.152  13.414 -0.2590  0.1350  0.4251
25390W        W41284   9.884  13.250   3.152  0.0649 -0.1844 -0.0411
25391W        W41285   1.448   8.401   2.602 -0.1308  0.1147 -0.1075
25392W        W41286   2.805  12.190  10.755  0.1197 -0.0541 -0.0509
25393W        W41287   8.515   2.633   4.454 -0.3106  0.0132  0.1704
25394W        W41288   4.518  11.279   2.674 -0.0619 -0.0357 -0.0742
25395W        W41289   0.696  11.326  12.976  0.0388 -0.1142 -0.1012
25396W        W41290   8.692  18.940  11.524  0.0827 -0.1525 -0.1069
25397W        W41291   1.605  18.883  12.865  0.0473 -0.1157 -0.1094
25398W        W41292  14.794  14.864  13.624  0.1933 -0.1675 -0.3644
25399W        W41293  11.566   9.441   2.708 -0.0154  0.0634  0.0702
25400W        W41294   6.099   1.160  14.577  0.0605  0.0587  0.1051
25401W        W41295   9.818  16.835   4.407 -0.2108 -0.0725 -0.1095
25402W        W41296  14.426   9.064   3.976 -0.0691  0.0323 -0.0808
25403W        W41297   8.751  10.611  10.876 -0.2064  0.1972  0.0431
25404W        W41298  11.266  18.336   2.479  0.2548  0.1281 -0.1406
25405W        W41299   5.401   9.334   4.857 -0.0212  0.0913 -0.0096
25406W        W41300  11.057   6.626   0.876 -0.2227 -0.1553 -0.0638
25407W        W41301  11.814  12.816   0.459  0.0072  0.2137 -0.1673
25408W        W41302  12.074  14.121  13.910  0.1780 -0.0134  0.1128
25409W        W41303  12.643   0.107  14.504 -0.3614 -0.1306  0.0802
25410W        W41304   9.300   6.506  10.863  0.0534 -0.3094  0.1595
25411W        W41305   5.681  13.840  14.603 -0.0004 -0.0431  0.0289
25412W        W41306   6.322  13.114   4.241 -0.0379 -0.0493  0.2617
25413W        W41307   5.933  17.702  11.374 -0.0810  0.0122 -0.0057
25414W        W41308  10.454   4.493   2.893  0.1373  0.0750  0.0949
25415W        W41309  18.598   1.045   2.910 -0.4615 -0.0450 -0.1822
25416W        W41310  10.725  14.207   0.993 -0.4123  0.1372 -0.2546
25417W        W41311   5.019  16.149  14.030 -0.0260 -0.0103  0.0528
25418W        W41312   8.792   4.855   4.072  0.0078 -0.2694  0.3440
25419W        W41313  16.215   4.333   3.150  0.0143 -0.0797 -0.0578
25420W        W41314   4.059   8.585  11.481 -0.1709  0.1128 -0.2712
25421W        W41315   7.510  15.876   0.209 -0.3104  0.0532 -0.1106
25422W        W41316   7.594  17.466  10.292  0.0402  0.1131 -0.0980
25423W        W41317   4.178  11.478  10.446  0.0316  0.1428  0.2363
25424W        W41318   9.391  17.396  14.586 -0.0671 -0.1694  0.1470
25425W        W41319   8.964  12.841  10.709 -0.0963 -0.1583 -0.1303
25426W        W41320   3.873   8.481  12.510  0.0365  0.0661 -0.1577
25427W        W41321  13.091   7.882  12.019  0.3951 -0.1374 -0.3323
25428W        W41322   3.472  12.964   0.519  0.0760  0.2288 -0.0771
25429W        W41323   4.557   1.974   3.088  0.1055  0.1871 -0.4259
25430W        W41324   1.954  11.876  12.424  0.0254  0.2083  0.0757
25431W        W41325  15.851  14.964  13.285 -0.1331  0.2128  0.2472
25432W        W41326  13.730   8.873   4.452  0.0312  0.0002 -0.1352
25433W        W41327   1.232   7.594   4.674 -0.1157  0.2479 -0.4325
25434W        W41328   0.586   2.481   2.307  0.1815  0.0646 -0.2755
25435W        W41329  17.671  13.447   3.998 -0.0524 -0.0744 -0.3034
25436W        W41330   3.696  10.702   4.416 -0.3334  0.2641 -0.1312
25437W        W41331   5.460  14.294  12.026  0.2798 -0.0717 -0.0830
25438W        W41332   1.655   4.906  11.858 -0.0297 -0.3631 -0.1494
25439W        W41333  14.702  17.827   3.776  0.3083  0.1875 -0.1802
25440W        W41334   0.013  12.011   4.152  0.4199 -0.3521 -0.0940
25441W        W41335   3.270   8.210   0.886 -0.0470  0.0485 -0.1294
25442W        W41336  14.381  13.947  10.310 -0.1150  0.2339  0.1063
25443W        W41337   3.224   5.228  14.905  0.0253 -0.1171 -0.0603
25444W        W41338  12.750   2.462   2.543 -0.0653 -0.5629  0.2491
25445W        W41339   8.753   2.292   1.803  0.3206 -0.3871 -0.0429
25446W        W41340  14.609  11.042  12.442  0.2824  0.2814 -0.1297
25447W        W41341  16.213  13.971  14.145 -0.1299 -0.0688  0.0168
25448W        W41342  14.683   3.539   3.899 -0.0691 -0.0668  0.0357
25449W        W41343  16.580  18.554  10.972 -0.0654  0.1287 -0.2374
25450W        W41344  18.401   8.990   0.084  0.0258  0.0085 -0.2803
25451W        W41345  14.407  10.821  14.958 -0.1398 -0.2399 -0.1308
25452W        W41346   9.283   5.138  13.442  0.2733 -0.0541  0.0882
25453W        W41347  10.701   1.409  10.590 -0.1384  0.3476  0.3333
25454W        W41348  14.133   4.510   2.426 -0.0230 -0.3137 -0.1262
25455W        W41349   0.961   4.800  12.262  0.2149  0.1975 -0.2834
25456W        W41350   2.730  11.083  12.437  0.2234 -0.0834 -0.0769
25457W        W41351   6.085  10.980   4.070  0.0534  0.5093 -0.3403
25458W        W41352  11.603   2.436  11.528 -0.3961 -0.1756 -0.0128
25459W        W41353   6.435  18.478  11.690 -0.3238 -0.0142 -0.2122
25460W        W41354  13.269  13.019   1.568 -0.3372 -0.1308  0.0829
25461W        W41355  15.255  16.654   0.301 -0.1721  0.2139  0.0097
25462W        W41356  13.662  11.382  10.587 -0.0884 -0.0940 -0.2025
25463W        W41357  10.296   1.454  14.283  0.2567 -0.2481 -0.1343
25464W        W41358   8.191  18.616  14.555  0.0419  0.3533 -0.2674
25465W        W41359   1.103   2.064   2.413  0.1182  0.0356 -0.0493
25466W        W41360  12.269   1.249   4.186 -0.4210 -0.0128  0.0893
25467W        W41361  11.684  11.995  11.961 -0.2950  0.0990 -0.1691
25468W        W41362  19.196   8.442   1.728 -0.2736  0.0781 -0.3096
25469W        W41363  19.130  14.478  10.744  0.0284  0.2036  0.0622
25470W        W41364   0.823   1.090   1.241  0.1341  0.2313  0.1118
25471W        W41365   5.585  13.456  11.961  0.0019 -0.0527 -0.0772
25472W        W41366  16.869  18.961  11.250  0.1142  0.1178  0.0724
25473W        W41367   6.490   5.640  14.688 -0.0989  0.1101  0.0739
25474W        W41368   9.778   9.545   4.425  0.2598  0.1583 -0.1624
25475W        W41369   0.169  14.956  10.906  0.3218 -0.2859  0.1543
25476W        W41370  10.497   4.819   2.090  0.0353 -0.0491  0.3921
25477W        W41371   0.327   3.346   4.420 -0.0752 -0.0103  0.0616
25478W        W41372  14.541  15.320   2.900 -0.1529 -0.1180 -0.1050
25479W        W41373  13.821   2.443  13.100  0.2159  0.1601  0.0320
25480W        W41374  14.214   7.591   1.750 -0.0508  0.0753 -0.2605
25481W        W41375   7.339   7.908  15.023 -0.0043  0.0219 -0.0146
25482W        W41376  11.363  17.703   3.003 -0.4863  0.1533 -0.2467
25483W        W41377  17.969   4.555   0.395 -0.1076 -0.0258  0.0081
25484W        W41378   3.145   7.743   3.589  0.4967  0.0421  0.2317
25485W        W41379  16.596  17.903   5.402  0.1926  0.0363 -0.0018
25486W        W41380   5.643   1.457   2.981  0.1179 -0.2086  0.2388
25487W        W41381   4.938  17.404   0.984 -0.3655 -0.0256 -0.0039
25488W        W41382   6.823   6.804  14.417 -0.1137 -0.0256 -0.1608
25489W        W41383  11.100   0.776   0.984  0.1954 -0.0772 -0.0584
25490W        W41384  13.379  14.939  13.063 -0.2927  0.0675 -0.0298
25491W        W41385   6.753   9.385   4.959 -0.0386  0.0676 -0.0162
25492W        W41386   3.339  14.203   0.372  0.0783  0.0624 -0.2158
25493W        W41387  18.363  11.842   4.138  0.0513  0.0046 -0.2767
25494W        W41388  16.635  10.762   3.399 -0.1871 -0.3431 -0.4865
25495W        W41389  11.318   4.616  12.764 -0.1526 -0.0332  0.0402
25496W        W41390  10.580  14.351   4.453 -0.0410 -0.0510 -0.1970
25497W        W41391  13.388   6.929   5.097  0.0517  0.0131  0.0806
25498W        W41392   3.645  10.860  13.417  0.0526 -0.2324 -0.4002
25499W        W41393   4.858  15.641   1.559 -0.0157  0.0866  0.3986
25500W        W41394   0.680  16.747   0.001  0.0299 -0.1480  0.2306
25501W        W41395  16.742   9.639   0.992  0.0857  0.0138 -0.1531
25502W        W41396  10.244  12.743  11.449 -0.0810  0.0110  0.1519
25503W        W41397  10.293   6.884  11.065 -0.0608  0.0337  0.0118
25504W        W41398   3.287  12.749   3.162  0.0910 -0.3905  0.3269
25505W        W41399   7.429   3.073   1.476  0.1150  0.0636  0.0592
25506W        W41400  13.342   6.199   1.047 -0.1231 -0.2730  0.0471
25507W        W41401  18.981   3.173  13.708  0.1868 -0.0686 -0.0083
25508W        W41402  15.328   3.557  13.842 -0.0914 -0.1723  0.1126
25509W        W41403  14.014  14.480  14.026  0.2323 -0.1381 -0.4096
25510W        W41404   6.756  17.849   1.856 -0.1230  0.0185 -0.1480
25511W        W41405   0.699  11.757  10.545  0.2406  0.2802  0.1507
25512W        W41406   3.255   0.884   2.110 -0.2905  0.2333  0.0074
25513W        W41407  15.206   0.326  11.112 -0.1343  0.0364 -0.0814
25514W        W41408   6.869  10.043   0.512 -0.0094 -0.2829  0.2328
25515W        W41409  18.162  16.993  11.833 -0.1274  0.1058 -0.0706
25516W        W41410  13.439   0.578  11.142  0.0740  0.3978  0.1808
25517W        W41411   5.275  15.037  14.261  0.2879 -0.0709  0.1996
25518W        W41412  17.179   4.816  11.228 -0.0940  0.0543 -0.1938
25519W        W41413  16.843   5.763   0.789 -0.0939 -0.0710 -0.1423
25520W        W41414  15.534  11.303  13.760  0.0383 -0.1640  0.1067
25521W        W41415   3.121  17.317   2.570  0.0455 -0.1683  0.1977
25522W        W41416  12.967  11.568   5.744 -0.0516  0.1473  0.2787
25523W        W41417   4.889   0.228  13.678  0.0492  0.1086 -0.1003
25524W        W41418  13.966   9.874  10.984 -0.1318  0.0795 -0.0251
25525W        W41419   0.203  12.547   5.093  0.0720 -0.4937  0.2710
25526W        W41420  13.526  12.638   2.883 -0.3083  0.1853  0.0495
25527W        W41421   4.433  15.836   9.983 -0.1413 -0.1438  0.0650
25528W        W41422   6.547   1.071   2.224  0.2789  0.1692  0.1075
25529W        W41423  18.131   2.914  14.189 -0.1271 -0.0839 -0.2901
25530W        W41424  17.243   5.601   1.796 -0.1325 -0.1053 -0.0200
25531W        W41425  16.688  19.070  12.256  0.4445  0.3338 -0.2069
25532W        W41426   6.731  10.544   0.756 -0.0914  0.2876  0.1484
25533W        W41427  10.338  15.876  13.897 -0.2282  0.1566  0.0564
25534W        W41428  18.693  11.590   0.570 -0.3162  0.1640  0.0783
25535W        W41429   5.720  11.971  13.623 -0.1365 -0.2646  0.4361
25536W        W41430  13.855   1.463  12.634  0.0175  0.1616  0.0784
25537W        W41431  13.282  14.507  12.782 -0.1214 -0.0491 -0.0914
25538W        W41432   8.379  12.928  10.495 -0.1146  0.1851  0.1748
25539W        W41433   2.535  11.803   0.398 -0.1229 -0.0887  0.2735
25540W        W41434   2.590   1.222   0.477  0.0520  0.0675 -0.0762
25541W        W41435  17.909  19.141   9.930 -0.3322 -0.4073 -0.0386
25542W        W41436   3.090   1.368   0.569  0.0303  0.1893  0.0560
25543W        W41437   6.553   0.771   1.206 -0.1458 -0.1378 -0.1854
25544W        W41438  12.464   4.371  11.367 -0.1571 -0.0383  0.0413
25545W        W41439   0.590   6.062  12.298 -0.3293 -0.2331 -0.3790
25546W        W41440   7.209   2.509   0.222  0.0829 -0.3255  0.0986
25547W        W41441   7.011   2.055   0.161 -0.1331 -0.3471  0.2128
25548W        W41442   4.830   2.399   2.948  0.1697  0.3028 -0.0636
25549W        W41443  14.809  11.823   2.353  0.1209  0.3579 -0.3016
25550W        W41444   2.027  11.477  14.317  0.1795  0.0466 -0.0588
25551W        W41445  13.241  10.123   1.080  0.1267  0.2964  0.0026
25552W        W41446   5.902   4.460   5.195 -0.3937  0.0716  0.0337
25553W        W41447   1.950  10.868   1.535 -0.0438 -0.1305 -0.1599
25554W        W41448   8.578   7.002   2.910 -0.4309 -0.1481  0.2638
25555W        W41449   4.654  14.041   0.571 -0.3848  0.2092  0.1232
25556W        W41450   4.407   3.392   3.542  0.2812  0.3698 -0.2280
25557W        W41451   6.515  17.356   1.745  0.0262  0.1643 -0.0346
25558W        W41452   5.947   3.025  12.823  0.3689  0.2844  0.2159
25559W        W41453   5.277   1.090  13.588 -0.0732  0.3249  0.0037
25560W        W41454   0.852   0.953   3.748  0.0418  0.1197 -0.0967
25561W        W41455   4.547  12.457  12.342  0.0144 -0.2116  0.1383
25562W        W41456  12.710   8.341  10.196  0.0602 -0.3871 -0.1438
25563W        W41457  14.851   6.388   5.891 -0.0264 -0.1226  0.1522
25564W        W41458   5.180  17.504   4.077 -0.1794 -0.2804 -0.0623
25565W        W41459   7.790   5.304   0.288 -0.3560  0.0843 -0.1686
25566W        W41460  17.464  11.220  12.714  0.0461 -0.3344  0.1580
25567W        W41461   3.911  13.001   1.392 -0.2861  0.4282 -0.1156
25568W        W41462   2.749   1.343   4.430  0.1667 -0.1723  0.0277
25569W        W41463   6.193  17.083   5.088 -0.2243 -0.1218 -0.4266
25570W        W41464  17.083   9.392   0.579 -0.1094  0.1209  0.2943
25571W        W41465  10.269   2.076   0.513  0.2495 -0.2196  0.0882
25572W        W41466   0.355  11.703   2.313  0.0525  0.0855  0.0334
25573W        W41467  12.980  15.132  13.329  0.4099 -0.1833  0.1082
25574W        W41468   4.867   1.207   5.430  0.1093 -0.1953 -0.0317
25575W        W41469   8.147  12.731  10.896 -0.0053  0.0404  0.0733
25576W        W41470   9.919  16.439   4.810  0.3283 -0.1148 -0.3337
25577W        W41471   5.990   7.521  14.365  0.0349  0.0730 -0.2142
25578W        W41472  17.380  10.113  12.512  0.0711  0.2143 -0.0976
25579W        W41473  13.120   4.863  13.959  0.0223  0.2201 -0.2755
25580W        W41474   6.735   6.081   0.074 -0.0939  0.3256  0.1027
25581W        W41475   3.371   2.326  10.853 -0.3695 -0.2066  0.1924
25582W        W41476  17.361   2.157  14.245 -0.0431  0.4363 -0.1584
25583W        W41477   2.708  16.532   1.506  0.0417 -0.2412 -0.0452
25584W        W41478  17.297  14.331  14.106 -0.3231  0.0860  0.1801
25585W        W41479   0.789   9.294  13.251 -0.2937  0.1320  0.0267
25586W        W41480   2.456   7.515  14.946 -0.0396 -0.2701 -0.2929
25587W        W41481  17.811   1.409   5.432  0.1546 -0.2571 -0.2830
25588W        W41482  17.255  13.932   1.526  0.0894  0.5080  0.1597
25589W        W41483   2.029  13.247  13.413 -0.2739 -0.2055 -0.0478
25590W        W41484  16.549   8.580   2.201  0.2180  0.0658  0.2352
25591W        W41485   5.808  11.888  14.144  0.4184 -0.1100 -0.3022
25592W        W41486   5.364   9.643   0.135 -0.0752 -0.2207 -0.1485
25593W        W41487   7.361  12.271  10.724  0.3023  0.0509 -0.0396
25594W        W41488  16.590   0.065   0.803 -0.1166 -0.2266 -0.0284
25595W        W41489   7.781  15.340  10.724 -0.3562  0.0630  0.3059
25596W        W41490   3.767   8.570   3.748 -0.1944 -0.0346  0.2298
25597W        W41491  17.761  15.260  14.183  0.3237  0.0017  0.0450
25598W        W41492  15.472   9.297  13.585  0.0801  0.4183  0.3231
25599W        W41493  17.561  17.668   1.529 -0.0176  0.3449  0.2876
25600W        W41494   3.749   0.350   0.092  0.2194 -0.0627 -0.0361
25601W        W41495  14.532   6.137  13.876  0.3962 -0.2306  0.1254
25602W        W41496   4.307  11.327   0.342 -0.0038 -0.0688 -0.0913
25603W        W41497   5.389   8.065   1.947 -0.0967  0.1507 -0.1673
25604W        W41498  11.229  10.499  13.391 -0.1609  0.1019  0.2273
25605W        W41499   7.294   7.921  12.955  0.4631  0.0069  0.0449
25606W        W41500  17.756  17.487  13.093  0.0315  0.0146  0.0528
25607W        W41501   6.712   3.539   1.063 -0.1550 -0.1654 -0.1951
25608W        W41502   4.548  15.366  14.896  0.2275 -0.2279 -0.6000
25609W        W41503   6.842   2.156  12.813 -0.1057  0.2247 -0.0487
25610W        W41504   9.598   0.734   2.647  0.0763 -0.2892 -0.1606
25611W        W41505   2.358   4.834   1.550  0.0770 -0.4709 -0.0192
25612W        W41506  11.488  19.225  11.519  0.0858  0.2528  0.1541
25613W        W41507   2.056  16.948   0.394 -0.0164 -0.0513  0.0021
25614W        W41508   6.006  13.849   0.511 -0.1983 -0.0793 -0.4539
25615W        W41509   7.512  17.017  10.127  0.0371  0.2181  0.1454
25616W        W41510  14.339  18.184   3.842 -0.0847 -0.0128  0.1742
25617W        W41511  15.729  12.682   1.231 -0.1661 -0.2004  0.2321
25618W        W41512   7.578   0.298   0.210  0.2793  0.4388 -0.2259
25619W        W41513   3.785   8.518  11.102  0.0196  0.7603  0.0835
25620W        W41514  11.084   4.057  11.296 -0.2027 -0.1978  0.0314
25621W        W41515   6.313  13.912   4.681 -0.1494 -0.1132 -0.2130
25622W        W41516   4.151   0.367   0.870  0.1905 -0.1464  0.0711
25623W        W41517  11.537   6.646   4.713  0.0898 -0.2579  0.0575
25624W        W41518   6.743  16.853   4.137  0.0935  0.0476  0.1280
25625W        W41519  18.826  16.392   0.268 -0.0413 -0.2391  0.0689
25626W        W41520  10.388  11.681  12.595  0.1426  0.0601  0.5052
25627W        W41521  13.290   8.787  11.795 -0.2101 -0.0739  0.1119
25628W        W41522  16.263   9.545  11.412  0.0951  0.0218  0.0668
25629W        W41523   4.239   8.565   3.050 -0.0093 -0.0633 -0.1428
25630W        W41524  13.644   4.593   2.460  0.1226 -0.1969 -0.1162
25631W        W41525   5.384   9.894  13.003 -0.2863  0.3598  0.1049
25632W        W41526   4.289   6.348   1.607  0.0024 -0.2410 -0.1399
25633W        W41527   4.504  13.768  13.525 -0.1128  0.3237  0.0558
25634W        W41528  15.239   9.715   3.683  0.1681 -0.0546 -0.1462
25635W        W41529   3.057  12.882   1.456 -0.1126 -0.0666 -0.0358
25636W        W41530   3.656  10.053  12.762 -0.0101  0.1364  0.0854
25637W        W41531   1.880  18.163  12.855 -0.1982  0.1832  0.0752
25638W        W41532  12.699   8.745   5.180 -0.0373  0.2551 -0.1605
25639W        W41533   0.277   7.739  11.382 -0.3205  0.4542  0.0217
25640W        W41534  11.457   0.559   4.292 -0.1307  0.1457 -0.2528
25641W        W41535   0.852   4.429  11.907  0.1093 -0.2513  0.1155
25642W        W41536   2.428  17.347  10.695  0.1129  0.1050 -0.1843
25643W        W41537   2.921  11.478  10.805 -0.0877 -0.2384  0.3272
25644W        W41538  16.188   2.239   3.711  0.3510  0.2909 -0.3683
25645W        W41539   2.296  10.002   0.270  0.1655  0.1398 -0.1322
25646W        W41540  10.304   0.496  13.101  0.5182  0.1474  0.1680
25647W        W41541  18.002   5.768   4.022 -0.2262 -0.1635  0.0381
25648W        W41542  10.896   0.009   1.659  0.3293 -0.0388 -0.0665
25649W        W41543   0.334  15.448  13.481 -0.0538 -0.2170  0.4782
25650W        W41544   9.934   0.789   2.250  0.0504 -0.1560  0.0288
25651W        W41545  14.980   6.418   1.931  0.0986  0.2014 -0.0401
25652W        W41546  12.949  16.814   3.519 -0.3738  0.0299 -0.4166
25653W        W41547   4.136  11.387   3.237 -0.0621 -0.0997 -0.0066
25654W        W41548   7.302   3.237   1.916 -0.0267 -0.1813 -0.2383
25655W        W41549  15.443   7.012   2.475 -0.2421 -0.0446  0.0344
25656W        W41550   3.400  15.945  11.178  0.1402 -0.0464 -0.4727
25657W        W41551  16.072  18.292   2.430 -0.0931  0.3645  0.0584
25658W        W41552  14.587   3.306  10.382 -0.0927 -0.0412 -0.3140
25659W        W41553   5.431  13.202   4.320  0.1728 -0.2160  0.1110
25660W        W41554  13.658   2.284   4.248 -0.2182 -0.0497  0.2443
25661W        W41555   2.223  13.901   1.513 -0.0790  0.0811  0.3811
25662W        W41556  17.261  17.403   1.877  0.0943  0.1405 -0.3012
25663W        W41557   8.008   5.315  11.766  0.1253 -0.1274  0.0075
25664W        W41558  18.328  13.826   2.281  0.0692 -0.3159 -0.0800
25665W        W41559  13.880   6.749   3.993  0.0616 -0.2592 -0.2929
25666W        W41560  10.246   3.354   3.960 -0.3643 -0.0578  0.1603
25667W        W41561  15.973  14.526   4.892  0.2311  0.2221  0.4377
25668W        W41562   2.127   1.151  12.452 -0.0031 -0.3338 -0.0987
25669W        W41563   9.557  11.827  13.341 -0.0512  0.1111 -0.2083
25670W        W41564   2.403  18.311   0.762 -0.0655 -0.0987 -0.1126
25671W        W41565  18.394   7.042   0.925 -0.0557  0.0333  0.1126
25672W        W41566  10.927   8.164   1.456 -0.2852  0.0657 -0.2293
25673W        W41567  13.982   1.102  15.041  0.3034  0.3584 -0.2983
25674W        W41568  13.916   2.256   2.928  0.0297  0.0894 -0.3379
25675W        W41569   5.404   6.509  11.860  0.0411  0.1871 -0.3777
25676W        W41570   9.289  13.075  12.918  0.0214 -0.1312  0.0226
25677W        W41571   3.951   4.770   5.949 -0.0535  0.1257 -0.2775
25678W        W41572   7.174  14.325   3.131  0.2176 -0.0292  0.2779
25679W        W41573  17.969  13.558   9.169  0.0697 -0.0791  0.0392
25680W        W41574   5.957   5.428   4.839  0.1351 -0.1283  0.1099
25681W        W41575  16.983   0.989  11.455  0.0711  0.3669  0.0474
25682W        W41576   4.323  16.762   2.204 -0.0959 -0.0485 -0.1674
25683W        W41577  12.137  11.892   1.333  0.1263 -0.2375 -0.4310
25684W        W41578  14.596  19.142   2.602 -0.1260 -0.2475  0.1228
25685W        W41579   0.987  13.304  13.477  0.0006  0.0946 -0.0756
25686W        W41580   0.761  10.382  11.659 -0.1473  0.2451 -0.0932
25687W        W41581  14.500  17.687  11.532 -0.1036  0.0861 -0.0553
25688W        W41582  15.961   7.051  12.832  0.1309 -0.2540  0.1337
25689W        W41583  13.076  11.719   3.297  0.0959 -0.0426 -0.0804
25690W        W41584   0.263   9.982   0.893 -0.0437  0.0392  0.2216
25691W        W41585   9.879  12.117  13.722 -0.1901  0.3003 -0.0156
25692W        W41586   8.607  15.213  14.904 -0.2277  0.1224 -0.2549
25693W        W41587   2.830  16.670  13.276  0.0011 -0.2631 -0.0265
25694W        W41588   9.663  15.210   4.781  0.2459 -0.0268  0.1559
25695W        W41589   1.466   0.321   2.331  0.0825  0.1391 -0.1401
25696W        W41590  14.668  11.960   1.060  0.1712 -0.0114 -0.2420
25697W        W41591  11.847  12.938   3.131  0.1566 -0.0068 -0.2478
25698W        W41592   9.062   6.595   2.266  0.2782  0.0187  0.2511
25699W        W41593   2.875   6.582  13.952 -0.1942 -0.1400  0.0609
25700W        W41594  18.293   0.038   1.297 -0.2872  0.1295  0.0694
25701W        W41595   5.600   3.447   1.665  0.0842 -0.1579 -0.0092
25702W        W41596  15.333   2.865  10.136  0.3157  0.2531 -0.1446
25703W        W41597   3.561   9.093  14.322 -0.1679 -0.3016  0.4358
25704W        W41598   0.077   5.526   4.960 -0.0537  0.0392  0.0377
25705W        W41599   9.965   6.626   1.951  0.0037 -0.1096 -0.1204
25706W        W41600  16.314  14.551   2.262  0.0041 -0.2283 -0.1991
25707W        W41601  15.363  18.186   0.781 -0.3974  0.3846  0.1504
25708W        W41602   1.117  13.871   2.559  0.0203  0.0766 -0.2567
25709W        W41603  18.320  17.836  10.632 -0.0720  0.0324 -0.0776
25710W        W41604   3.168  12.827   5.827  0.1690 -0.0148  0.1281
25711W        W41605   5.144  11.263  11.452  0.0751  0.2389  0.0325
25712W        W41606  15.545   8.232   3.466 -0.0477 -0.0516 -0.2751
25713W        W41607  10.428  18.263  12.954  0.1773 -0.0589 -0.0258
25714W        W41608  17.176  11.671   9.163  0.2804  0.0692  0.3942
25715W        W41609  18.285   3.229   6.018  0.0989 -0.0125  0.3333
25716W        W41610   9.028   3.453   3.103  0.1308 -0.2141  0.0769
25717W        W41611   5.211  17.488  11.672  0.0687  0.2070  0.1759
25718W        W41612   1.284   0.979   0.757  0.0859 -0.2787 -0.1361
25719W        W41613  13.573   9.592   9.962 -0.1487  0.3699  0.1373
25720W        W41614   0.178   2.382  11.715  0.2933 -0.0201  0.1107
25721W        W41615   2.612   3.080  12.599  0.0265  0.3580  0.0806
25722W        W41616  18.392  16.492   0.692 -0.1226 -0.2073 -0.1636
25723W        W41617  13.669   9.929  12.187 -0.0010  0.2898  0.3572
25724W        W41618   7.535   9.058   3.294  0.0728 -0.0131  0.0811
25725W        W41619  14.187   4.940   0.605 -0.0799  0.3254  0.0984
25726W        W41620  11.750  14.515  14.069 -0.2500 -0.2204  0.0440
25727W        W41621  10.340   8.804   4.884  0.0937  0.2036  0.2673
25728W        W41622   1.796  14.108  11.774  0.1078 -0.2259  0.1146
25729W        W41623  11.102  14.209  13.555  0.1151  0.0314 -0.3359
25730W        W41624   1.199   9.398   1.763 -0.0299 -0.2576 -0.1893
25731W        W41625  17.750  11.251   4.095 -0.3055 -0.0908 -0.1243
25732W        W41626   0.601  16.994  14.037 -0.1341  0.0269 -0.0844
25733W        W41627  17.263  18.531  12.889 -0.1118  0.1818  0.2250
25734W        W41628   4.518  17.887   0.069 -0.3371  0.0302 -0.0485
25735W        W41629  14.666   7.097   4.732  0.1522 -0.4261  0.0276
25736W        W41630   9.827   5.645   5.129 -0.4253  0.0028  0.1638
25737W        W41631   6.265   7.581   1.940  0.2121 -0.0504 -0.2277
25738W        W41632   0.863   5.542  11.578 -0.5238  0.0403  0.1054
25739W        W41633   9.304   6.517  13.252 -0.1400  0.2779  0.3309
25740W        W41634   7.676   3.884   3.827 -0.2973  0.2268 -0.0263
25741W        W41635  18.932  12.983   0.174  0.2974  0.1762  0.3136
25742W        W41636  18.597  17.528   0.430 -0.0121 -0.0228  0.1580
25743W        W41637   9.863   5.125   1.585 -0.3423 -0.0332 -0.1351
25744W        W41638   4.158  12.170   1.529 -0.2333  0.0082  0.0144
25745W        W41639  15.854  16.012  10.050 -0.2262 -0.0211  0.1465
25746W        W41640   8.581  17.277  14.663  0.1946 -0.1401 -0.1056
25747W        W41641   3.355   0.654  11.711 -0.0070 -0.5220 -0.3079
25748W        W41642   5.754   1.312  11.292 -0.0632 -0.4684 -0.1592
25749W        W41643  16.961  10.353  11.035 -0.5519 -0.4671  0.0053
25750W        W41644   0.950  13.686  13.108 -0.0549 -0.2038 -0.0133
25751W        W41645   0.686  16.511   0.541  0.1320 -0.0828  0.0429
25752W        W41646   0.290  13.815  11.741  0.0457 -0.0591  0.0333
25753W        W41647   8.249  13.248  11.730  0.2544 -0.2334  0.1931
25754W        W41648  17.340  14.932  10.852 -0.0566  0.3967 -0.1922
25755W        W41649  14.949   1.809  13.512  0.2786  0.3678 -0.4181
25756W        W41650   1.566  11.055   3.844 -0.1205 -0.1490  0.4133
25757W        W41651  12.473  19.008   3.542 -0.2529  0.3520  0.0455
25758W        W41652   7.829  12.477  12.802  0.0457  0.0335 -0.0604
25759W        W41653  10.348   2.905   4.931  0.0137 -0.1521 -0.2686
25760W        W41654  18.670   3.023   4.011 -0.1954 -0.1580 -0.2052
25761W        W41655   9.827  15.254  12.475  0.0488 -0.0084  0.1827
25762W        W41656   2.244  15.188  12.065  0.0056 -0.1865 -0.2077
25763W        W41657   7.730  13.554  12.877  0.0338  0.1443 -0.2037
25764W        W41658   3.970  13.021   4.239 -0.0139 -0.2167  0.2435
25765W        W41659  14.911   4.060   3.920  0.3478  0.1392 -0.1384
25766W        W41660  12.615  12.689  10.331 -0.0232 -0.2615 -0.1126
25767W        W41661   5.016   5.325  11.939 -0.4956  0.0229 -0.0722
25768W        W41662   4.919   1.946   5.273  0.0856  0.1058  0.0373
25769W        W41663  19.076   4.638   6.000 -0.0820  0.0930 -0.1279
25770W        W41664   0.862   0.497   0.094  0.3214  0.1841 -0.0145
25771W        W41665  16.152   7.859   2.868  0.5295  0.1402  0.2965
25772W        W41666   5.248   3.563  13.233 -0.2779  0.0165 -0.0527
25773W        W41667  13.620  18.488  12.807 -0.0903  0.0119  0.3243
25774W        W41668  17.911   9.374  14.541  0.2503  0.1335  0.0683
25775W        W41669   1.586  14.063  13.453 -0.0492  0.2451 -0.1292
25776W        W41670   0.257  12.852  11.339  0.0804 -0.2946 -0.1646
25777W        W41671   0.029  17.784  14.647  0.0514  0.1666 -0.0667
25778W        W41672  17.406  11.245   3.642  0.0269 -0.0704  0.2334
25779W        W41673   2.881   6.388  14.880 -0.2344  0.3153  0.0126
25780W        W41674   4.580  12.532   3.383 -0.0021 -0.2482 -0.1424
25781W        W41675   6.738  17.638  10.709 -0.1286  0.3399 -0.0402
25782W        W41676   6.808  16.026   1.310 -0.0491  0.1339 -0.0276
25783W        W41677  17.939  15.301  10.233  0.5827 -0.2222  0.2490
25784W        W41678   8.947   1.711   9.895 -0.1789  0.1197 -0.0135
25785W        W41679  17.526  18.306   0.803  0.1152  0.1556 -0.1534
25786W        W41680   8.063   5.635   0.937 -0.3465 -0.3291  0.0432
25787W        W41681   3.281   8.788   2.175  0.0860 -0.1954 -0.6147
25788W        W41682   7.006  15.477   0.142 -0.1912 -0.1111  0.2365
25789W        W41683  14.211   2.952  10.431  0.1352 -0.0413 -0.1002
25790W        W41684   6.497  10.814  10.495  0.1010  0.1840 -0.1471
25791W        W41685  10.690   6.173   4.843  0.0102  0.0313  0.1504
25792W        W41686   6.018  10.081   3.010  0.0794 -0.1910  0.2877
25793W        W41687   4.952  16.243  14.977 -0.0070  0.0131 -0.2662
25794W        W41688  10.736  17.208  13.974  0.0962  0.0900  0.0125
25795W        W41689   7.568   4.128  10.960 -0.0481 -0.2276  0.0161
25796W        W41690  12.648   0.636   3.559  0.1453 -0.2116  0.1126
25797W        W41691   3.832   0.881   4.609  0.2052 -0.1148 -0.0300
25798W        W41692   5.366  14.078   4.436  0.0632 -0.4373  0.1734
25799W        W41693   3.428  16.421  10.917 -0.1614 -0.0499 -0.1641
25800W        W41694  17.827   0.338  11.067 -0.1613 -0.3719 -0.0595
25801W        W41695  13.645  12.201   4.112  0.1704 -0.0849  0.0257
25802W        W41696   8.571   3.059  14.545 -0.0837 -0.0495  0.1557
25803W        W41697  18.386   4.382  10.484  0.2000 -0.1805  0.1114
25804W        W41698  10.613  18.301  10.826  0.0306 -0.0073  0.5007
25805W        W41699  13.842  11.323  14.108 -0.3609  0.2635  0.2807
25806W        W41700  13.201   9.288   3.058  0.0109 -0.1244  0.2776
25807W        W41701   6.296   0.433  10.670  0.1414 -0.2205 -0.0938
25808W        W41702   0.573   4.823   4.565 -0.2550 -0.0007  0.3784
25809W        W41703  17.638  16.722   4.215 -0.0601  0.2379  0.0857
25810W        W41704  14.198   5.945  10.645 -0.0762 -0.0197 -0.1397
25811W        W41705   3.796   4.935   4.743 -0.0704 -0.2543 -0.0152
25812W        W41706  16.462   8.403   1.728 -0.1353 -0.1185 -0.5440
25813W        W41707  13.351   4.750   0.628 -0.2412 -0.2422  0.0926
25814W        W41708  10.680   9.053   1.257 -0.0261 -0.0613  0.0002
25815W        W41709  11.964  16.654   4.185  0.1264  0.0192  0.2972
25816W        W41710   2.060   4.698   3.308 -0.1403 -0.0896  0.3448
25817W        W41711   4.515   1.465   2.019  0.2023  0.1185  0.3372
25818W        W41712   9.503   6.818   3.258 -0.0098 -0.2569  0.3489
25819W        W41713   4.665  16.774  10.976 -0.2520  0.2438  0.0160
25820W        W41714   3.096   0.831  12.513  0.2532  0.1361 -0.0957
25821W        W41715  11.884   2.818   2.700 -0.1650  0.0990 -0.5284
25822W        W41716   7.126  11.937  13.606 -0.2897 -0.3018  0.2823
25823W        W41717   4.129   4.458   0.773  0.0269 -0.0787 -0.0636
25824W        W41718  10.987   9.352   2.240  0.1157 -0.3138 -0.1756
25825W        W41719   1.760  18.873  10.684  0.3782  0.0487 -0.0375
25826W        W41720   8.253   2.257   3.126  0.2008  0.1272  0.0812
25827W        W41721   8.835  15.773   1.433  0.1122 -0.0412 -0.0871
25828W        W41722  10.100   1.463  12.517  0.2176  0.0263 -0.0875
25829W        W41723   3.846   9.671   2.087  0.2479  0.0519 -0.1250
25830W        W41724  10.418  15.927  12.919 -0.0581 -0.1962  0.0125
25831W        W41725  16.502  17.741  10.831 -0.0697 -0.4345  0.0315
25832W        W41726  16.202  14.274  11.283  0.0023 -0.1400 -0.2240
25833W        W41727   4.563   5.661  11.784  0.0203  0.5369  0.0828
25834W        W41728  14.923   1.727  11.498 -0.0140  0.1370 -0.3853
25835W        W41729  12.999   2.047  13.038  0.2236  0.0727 -0.1058
25836W        W41730   9.755   1.086  12.250  0.3562  0.0473 -0.0610
25837W        W41731   0.901   9.905   0.028 -0.0867  0.0635 -0.2256
25838W        W41732   1.881   1.907  12.310 -0.1218 -0.0771  0.4476
25839W        W41733  13.613   8.898  10.773 -0.0934 -0.0454  0.1348
25840W        W41734   1.340   6.879   4.804  0.0844 -0.1510 -0.3225
25841W        W41735   5.782   3.342  12.437  0.0199 -0.0363 -0.2523
25842W        W41736   9.795   4.503   0.256  0.1023  0.0339 -0.0264
25843W        W41737   0.103  17.620   4.961 -0.2055 -0.0278  0.2170
25844W        W41738   9.810   1.337  13.720  0.0451 -0.4708 -0.0304
25845W        W41739  10.254   4.864   4.582  0.0705 -0.4237 -0.1547
25846W        W41740  18.424   5.985   2.526  0.0790 -0.2501  0.0248
25847W        W41741   1.913   9.860   3.416  0.5073  0.0959 -0.3040
25848W        W41742   3.792  11.782  13.858  0.0099  0.1153 -0.3276
25849W        W41743  17.729  10.814  13.208 -0.1226  0.0255 -0.0939
25850W        W41744   0.270   1.863   5.613  0.2814  0.2021 -0.0727
25851W        W41745   4.139  15.375   3.329 -0.3155 -0.0800 -0.1958
25852W        W41746   9.825  15.946   0.695  0.2267  0.1874  0.2765
25853W        W41747   0.568  18.653  10.596 -0.2328 -0.3048  0.0256
25854W        W41748   8.282  17.810   3.530 -0.2012 -0.1661 -0.0894
25855W        W41749  18.097   4.321  13.640 -0.0942 -0.0794 -0.1642
25856W        W41750   3.052   9.991   2.966  0.3318  0.2343 -0.0158
25857W        W41751  19.193   6.747  14.506 -0.4331 -0.0685  0.2258
25858W        W41752   5.648  12.947   3.715 -0.2481 -0.1534 -0.0298
25859W        W41753   7.382   1.991   3.301 -0.0663 -0.0895 -0.1675
25860W        W41754  17.807   0.320   9.721 -0.0988  0.1317  0.2975
25861W        W41755   3.415   8.286   2.081 -0.4310 -0.2912 -0.1348
25862W        W41756  15.330  12.180  13.574  0.0891 -0.1203 -0.0293
25863W        W41757  15.976  13.333   3.176 -0.1057 -0.2114 -0.1130
25864W        W41758  10.816  10.429   2.246 -0.0538 -0.1383 -0.1330
25865W        W41759  11.856   3.817  13.201  0.0051 -0.1731  0.4166
25866W        W41760  13.834   9.980  14.312 -0.0251 -0.2500  0.1251
25867W        W41761  12.681   5.928  11.603 -0.2183  0.3238  0.0316
25868W        W41762  10.958   1.820   1.378  0.0809  0.0883 -0.0884
25869W        W41763  11.423   6.199   0.691  0.0957 -0.3711  0.3889
25870W        W41764  11.167  13.559   1.811  0.1568 -0.1188 -0.1383
25871W        W41765   1.137  12.908  14.690 -0.3267 -0.1423  0.0158
25872W        W41766   4.662   3.702   2.420  0.3538  0.0110  0.0099
25873W        W41767   9.980  11.254   2.757  0.1794 -0.3066  0.3503
25874W        W41768   8.789  17.061   2.344 -0.1361  0.1321  0.1554
25875W        W41769  12.204   3.560  12.821  0.1162  0.1117 -0.0792
25876W        W41770  10.782  11.528   1.094  0.1683 -0.0065 -0.2086
25877W        W41771  10.582  15.901   4.236  0.0839  0.2020  0.4447
25878W        W41772  12.788   7.821   1.218  0.0877 -0.0140  0.4097
25879W        W41773   9.469  13.144   3.488 -0.2097 -0.3406 -0.4234
25880W        W41774  19.014   7.135   5.600  0.2588  0.0852 -0.2004
25881W        W41775  10.844  18.328  11.716  0.0038 -0.2525 -0.2225
25882W        W41776  14.875  19.165   0.240 -0.0212  0.1146  0.1760
25883W        W41777   6.016   3.260   0.565  0.1065 -0.0751 -0.0855
25884W        W41778   4.899   5.667   2.886 -0.3329 -0.0909  0.1862
25885W        W41779   5.418   4.751   3.805 -0.1367  0.1046  0.0935
25886W        W41780  16.817  18.760  10.564  0.0529  0.0581  0.1779
25887W        W41781   9.763   8.114   3.726  0.1036  0.2191  0.2887
25888W        W41782   2.186   3.506   2.662  0.2325 -0.0491 -0.2340
25889W        W41783   8.775  16.222  14.850 -0.1333 -0.1598 -0.0321
25890W        W41784  16.863  15.685   0.273  0.3479  0.0378 -0.1718
25891W        W41785   4.711  12.698   3.817  0.0456  0.1977 -0.0774
25892W        W41786   4.988  14.906  13.748  0.0745  0.0549  0.3624
25893W        W41787   4.954   8.043  11.472 -0.1634 -0.2155 -0.0575
25894W        W41788  15.906  18.397  14.422  0.1888  0.5197  0.1293
25895W        W41789  13.948  15.844  14.188  0.0083 -0.0201  0.3282
25896W        W41790  17.854   8.439  15.040  0.0080 -0.1640 -0.0235
25897W        W41791   1.676   5.176  14.668  0.1840 -0.0954 -0.2474
25898W        W41792  12.054   7.658   4.829 -0.1678 -0.0258  0.2396
25899W        W41793  12.309   0.305  14.123 -0.1582 -0.4001  0.1442
25900W        W41794   9.381  11.829  12.896 -0.0428  0.0530 -0.1865
25901W        W41795  18.943   7.096   0.868  0.3211 -0.0087  0.0865
25902W        W41796  17.631   6.583   5.173 -0.1573  0.1721  0.0820
25903W        W41797   5.670  18.271  13.157 -0.0666 -0.1557 -0.0483
25904W        W41798   8.245   4.973   4.032 -0.0524  0.2284  0.0322
25905W        W41799   7.263  13.880  11.708 -0.0792  0.3268 -0.1232
25906W        W41800  13.903  18.673   0.538  0.5147 -0.1700  0.0748
25907W        W41801  11.452  14.694   3.848 -0.0515 -0.3249 -0.2229
25908W        W41802   3.364   8.078   3.259 -0.1544  0.0414  0.0765
25909W        W41803   4.014   5.584  14.035  0.0920  0.1184 -0.3017
25910W        W41804   2.620   4.229  12.473 -0.0575  0.0588 -0.0201
25911W        W41805  14.546  15.176  14.492  0.0250 -0.0343 -0.0832
25912W        W41806   8.346  13.223   2.380  0.2171  0.1504  0.0300
25913W        W41807   8.015   5.277   3.064  0.0423 -0.0594  0.0459
25914W        W41808  13.786  10.326  10.908 -0.2586 -0.0080  0.1006
25915W        W41809  10.447   4.921   0.147  0.1771 -0.0396 -0.0289
25916W        W41810   6.363  17.235  11.419  0.2198  0.1246  0.1974
25917W        W41811  15.796   6.304  13.412 -0.2630  0.3193  0.0585
25918W        W41812  18.483   8.250  14.844 -0.0829  0.0157  0.0077
25919W        W41813  12.774   3.192   9.537 -0.1007 -0.0407 -0.1841
25920W        W41814   5.783   4.892  12.495 -0.2471 -0.0218  0.2073
25921W        W41815   0.252   6.565   1.938 -0.2548 -0.0538 -0.1696
25922W        W41816  13.111   9.062  12.262 -0.1667 -0.0828 -0.1250
25923W        W41817  12.745   1.479   3.942 -0.0295 -0.1604  0.1793
25924W        W41818  12.195  15.988  14.897  0.0788 -0.0272  0.1869
25925W        W41819   0.033   6.687  15.095 -0.0156  0.0630  0.0917
25926W        W41820  15.248  14.370  10.951  0.1494 -0.0727 -0.0751
25927W        W41821   3.767  12.519   0.715 -0.0316 -0.4668 -0.0042
25928W        W41822  12.807  18.743   0.247  0.1379  0.2443  0.0610
25929W        W41823  15.503  11.338   4.212  0.1384 -0.2021 -0.0803
25930W        W41824   8.877   0.538  11.147 -0.0179 -0.0793 -0.2011
25931W        W41825   0.650  10.782   1.341  0.1578  0.0394  0.1675
25932W        W41826   7.506   8.322   3.531 -0.2388  0.1896 -0.1358
25933W        W41827  16.416  16.388  11.277 -0.2454  0.2621  0.2085
25934W        W41828   7.451  10.430  11.892  0.1449  0.2195  0.0932
25935W        W41829  16.052   0.991   3.289 -0.0216  0.0675 -0.2468
25936W        W41830  15.119   8.582  13.525  0.0010 -0.4720 -0.1416
25937W        W41831  12.233  15.888  10.241  0.1321  0.2107 -0.0805
25938W        W41832   9.470   5.317   5.022 -0.1817  0.2572  0.0780
25939W        W41833   0.709   0.450  12.906  0.1091  0.3256 -0.0118
25940W        W41834  14.011   8.555   0.386 -0.0253 -0.2088  0.0596
25941W        W41835  12.252  16.525  11.528  0.3429  0.3773 -0.1681
25942W        W41836  10.784   0.160   0.725 -0.3782  0.1226 -0.0651
25943W        W41837   7.265  18.931  11.167  0.0923 -0.0471 -0.2653
25944W        W41838   1.182  13.421  12.019 -0.4026 -0.0110  0.1683
25945W        W41839   7.414  10.755   3.511 -0.2051 -0.2963 -0.0008
25946W        W41840  12.492  14.724   1.467 -0.1242  0.1424  0.0066
25947W        W41841   7.180  15.888   1.068 -0.1144 -0.2677 -0.0476
25948W        W41842  11.522   1.014  12.334  0.2355 -0.1827 -0.1236
25949W        W41843  14.640   5.868   1.955  0.1498  0.1942 -0.2257
25950W        W41844   7.536  11.901   3.685 -0.0679  0.1964  0.0609
25951W        W41845   8.095   5.722   4.532  0.0479 -0.1337 -0.0648
25952W        W41846   2.962   1.919   2.273  0.1995 -0.1384  0.0134
25953W        W41847   5.761   5.548  10.953 -0.3077 -0.1310  0.3085
25954W        W41848   5.962   8.099   0.225  0.2750 -0.2339  0.1722
25955W        W41849   4.138  15.807  13.282 -0.2547 -0.4672  0.1405
25956W        W41850  14.237  13.069   2.684 -0.1040  0.1579  0.2311
25957W        W41851   6.043   6.462   3.891 -0.1604  0.0283 -0.5491
25958W        W41852  16.210   9.407  14.705 -0.0034 -0.2836 -0.1476
25959W        W41853  14.869  13.019  12.310 -0.3022 -0.0421  0.2817
25960W        W41854   1.043  13.368  14.890 -0.0095  0.3538  0.1503
25961W        W41855   1.180   8.261  11.884  0.1610  0.0188  0.3957
25962W        W41856   1.058  10.857  14.631  0.1390 -0.1315 -0.1157
25963W        W41857   7.704   5.573   1.326 -0.3636  0.1300 -0.2282
25964W        W41858  14.769  18.723   1.681  0.3794  0.2142  0.0905
25965W        W41859   6.619   1.871   3.524 -0.0287 -0.0515  0.0122
25966W        W41860  11.620  13.929  11.714 -0.2089  0.2097  0.1203
25967W        W41861  12.529   8.945   5.616  0.0996 -0.0062  0.0618
25968W        W41862   9.927   2.985   0.642  0.0729 -0.1737  0.0268
25969W        W41863   3.777  13.445  12.419  0.2148 -0.0326 -0.1054
25970W        W41864   5.012   1.508  11.881 -0.0567 -0.2702 -0.4389
25971W        W41865   9.833  12.942  14.165  0.0688  0.0278  0.4766
25972W        W41866   9.047   4.194   1.943  0.0171 -0.0030 -0.1549
25973W        W41867   5.107  15.328  10.795  0.1328  0.1924  0.1924
25974W        W41868   4.531   9.172   6.019  0.0750  0.2339 -0.0397
25975W        W41869   5.619   6.147  14.475 -0.0401  0.1391  0.2579
25976W        W41870   2.238   3.665  13.070  0.1723  0.1992 -0.3391
25977W        W41871  11.383   4.909   5.515 -0.0114  0.0219  0.1698
25978W        W41872  13.436   0.478  14.376  0.4350  0.0224  0.0918
25979W        W41873  10.933   4.976   2.380  0.1795  0.1374  0.0743
25980W        W41874   5.625   3.387  12.955 -0.0771 -0.1968 -0.2028
25981W        W41875   8.578  16.916  13.413 -0.0103  0.4079  0.2392
25982W        W41876  13.865  13.484   3.380  0.3864  0.0233 -0.1064
25983W        W41877  11.213  18.767  10.782  0.0914 -0.0932 -0.2337
25984W        W41878  10.591  16.632   0.223  0.2699 -0.2833  0.0043
25985W        W41879   6.653  18.703  12.575 -0.0296 -0.5617 -0.1715
25986W        W41880   2.379   1.289   3.194 -0.0014  0.1164 -0.0113
25987W        W41881   2.128   1.624  11.457 -0.3631 -0.1191 -0.0553
25988W        W41882   3.873  16.699  10.915 -0.4378 -0.1143  0.0353
25989W        W41883   0.805  10.749  15.066  0.1662  0.0560 -0.1271
25990W        W41884   5.777   2.710  14.747  0.1660  0.4153 -0.1225
25991W        W41885   8.571  10.668  15.083 -0.1520  0.3290  0.3085
25992W        W41886  15.769  10.177   2.588  0.0958  0.2203  0.2576
25993W        W41887   2.248   3.295  14.754 -0.0128 -0.3117 -0.1235
25994W        W41888  10.800   6.692   5.840  0.2613 -0.1337  0.0435
25995W        W41889  18.293   8.007   1.816 -0.1238 -0.0849  0.1501
25996W        W41890  13.667   9.134   2.952  0.0078 -0.0047  0.1532
25997W        W41891  14.150  16.491  12.397 -0.0610 -0.1142  0.2107
25998W        W41892   4.136  12.562   3.908  0.1751  0.3837 -0.0709
25999W        W41893  12.009  11.857  13.357  0.0081  0.1631  0.2015
26000W        W41894   0.145  12.972   2.834 -0.1862  0.0437 -0.0436
26001W        W41895   0.810   2.716   3.829  0.0395 -0.2258 -0.0913
26002W        W41896   5.239  15.050   2.391 -0.0603 -0.0563  0.2462
26003W        W41897  15.058  17.485   3.789  0.1629 -0.2196  0.1715
26004W        W41898   2.856   6.695  11.166 -0.2354  0.1178  0.0494
26005W        W41899   2.290   6.136   6.031  0.0648 -0.3343 -0.1178
26006W        W41900   8.137  10.029  12.456  0.0529  0.1885  0.0008
26007W        W41901  13.842  13.297  13.155  0.0308  0.3092 -0.2684
26008W        W41902  11.073   7.478  10.455 -0.1306 -0.1266 -0.1332
26009W        W41903   5.109   2.740  12.294 -0.0707 -0.0919 -0.0930
26010W        W41904  11.674   9.901   2.708  0.3516 -0.0658  0.2686
26011W        W41905  14.882  16.875   9.202 -0.2485 -0.3890 -0.1903
26012W        W41906  16.650  11.798  10.697 -0.0910 -0.1487 -0.3022
26013W        W41907  17.057  13.935   0.906  0.1721 -0.0739 -0.0331
26014W        W41908   8.433  11.406   3.635  0.0527 -0.0470  0.1492
26015W        W41909   8.536  10.030   4.710  0.0281  0.4313  0.0775
26016W        W41910  11.648  13.766   3.433 -0.0294 -0.1407  0.1574
26017W        W41911  12.954   5.671   1.147 -0.1069 -0.0329 -0.0373
26018W        W41912   1.348   7.780   5.160 -0.3186 -0.1669 -0.0104
26019W        W41913  10.408  10.475  12.280 -0.0658 -0.3903 -0.0451
26020W        W41914   1.780   5.477   1.713  0.0935 -0.0602 -0.0194
26021W        W41915  10.646   7.993   3.291 -0.2454  0.1001 -0.2699
26022W        W41916   1.723   8.314  10.551 -0.1012  0.1015 -0.1294
26023W        W41917   0.248  17.196   1.298  0.0432  0.0743 -0.0732
26024W        W41918  12.071   9.600  11.150  0.3903  0.1789 -0.0431
26025W        W41919  15.447   9.380   2.564  0.2729 -0.0476  0.0886
26026W        W41920   9.922  12.469  10.859 -0.0655 -0.1098  0.3753
26027W        W41921  11.508   5.632  12.696  0.1061 -0.1358  0.1116
26028W        W41922  15.023  19.116   4.656 -0.0340 -0.4181  0.0291
26029W        W41923   0.480  13.858  12.514 -0.0920 -0.0039  0.5024
26030W        W41924  12.209  11.281   3.194  0.0635  0.1229 -0.1759
26031W        W41925  12.738   9.869  12.598  0.1048 -0.0230 -0.2668
26032W        W41926  12.912   5.234  10.795  0.0204 -0.3660  0.2649
26033W        W41927   8.526   6.005  12.059  0.0877 -0.1330 -0.0592
26034W        W41928  10.554   7.946  11.037 -0.1365  0.0967  0.1475
26035W        W41929   7.472  16.461   9.410 -0.1011 -0.0783 -0.3244
26036W        W41930   6.358   2.471  11.518 -0.2629  0.1329  0.1077
26037W        W41931   1.716  13.467   3.138  0.0679 -0.5232 -0.1510
26038W        W41932  13.603   5.278   3.048 -0.1197 -0.1504 -0.0628
26039W        W41933  17.708  17.187   0.786 -0.0882 -0.0559  0.1491
26040W        W41934  16.722   1.401   2.781  0.2507 -0.1233  0.2557
26041W        W41935  10.061  15.577  12.943 -0.1074 -0.0748  0.1909
26042W        W41936  11.158   3.161  14.442 -0.0000 -0.0382 -0.0485
26043W        W41937   8.986   4.599   0.391 -0.1027 -0.1822 -0.2023
26044W        W41938  14.302   6.092  11.182 -0.1899  0.0836 -0.1642
26045W        W41939  13.443   8.583   2.873  0.4076  0.0902 -0.1109
26046W        W41940   7.261   0.157  13.799 -0.0885  0.1732 -0.1749
26047W        W41941   7.390   0.616  12.490 -0.1414 -0.2780  0.1479
26048W        W41942   2.980   4.037   3.092  0.0379  0.0770 -0.0979
26049W        W41943   6.587   1.152   5.681 -0.1878 -0.0593 -0.0288
26050W        W41944   4.361  12.669   1.529 -0.2485 -0.1495  0.1071
26051W        W41945  16.704  14.756   4.143  0.1690  0.1609  0.3070
26052W        W41946  13.491   3.469  13.735 -0.1880  0.4383  0.0395
26053W        W41947   3.061   6.424   3.307  0.0676 -0.1876 -0.0854
26054W        W41948  17.471  14.198   2.773 -0.1389 -0.0496 -0.1255
26055W        W41949   9.702  16.900   2.904 -0.0955  0.2360  0.1117
26056W        W41950   0.281   0.902  12.948 -0.0940 -0.0796 -0.2194
26057W        W41951   4.180   0.831  14.477  0.3006  0.0749  0.1408
26058W        W41952   0.196  15.204  12.158 -0.0199  0.2409 -0.1564
26059W        W41953  17.028  14.497   0.726 -0.2519  0.3378  0.0389
26060W        W41954   4.195   6.976  12.385  0.1422 -0.0412 -0.2234
26061W        W41955  16.571  15.191  14.610  0.3452 -0.3549  0.0249
26062W        W41956   1.938   7.809   1.134 -0.0791 -0.1212 -0.2373
26063W        W41957  10.597  12.727   3.761  0.0886  0.2931  0.1464
26064W        W41958   9.976   9.717  14.824 -0.4742  0.1598  0.1110
26065W        W41959   9.343   7.109   1.302 -0.1666  0.1238 -0.1256
26066W        W41960   2.357   2.587  13.393 -0.4221 -0.0509  0.0189
26067W        W41961  18.832   4.355   3.624  0.1350  0.0658  0.0497
26068W        W41962  14.630   1.826  12.320  0.1379  0.0187 -0.0837
26069W        W41963  14.996   5.182  12.569  0.1352 -0.0207  0.0526
26070W        W41964  16.641  18.139   3.753  0.0257  0.0034 -0.1022
26071W        W41965  13.280   7.429  10.145 -0.3227  0.1718 -0.2502
26072W        W41966  14.260   1.337   1.730 -0.1360  0.0778 -0.4415
26073W        W41967  10.044  18.481   3.151 -0.0671 -0.0330 -0.2320
26074W        W41968   4.565   8.102  14.363 -0.0926  0.2141  0.3761
26075W        W41969  19.037  14.994   1.911  0.1593  0.0284 -0.1178
26076W        W41970  17.646   8.307  12.518 -0.2647 -0.1756  0.2057
26077W        W41971   7.807  12.340   3.706  0.1702  0.3847 -0.1041
26078W        W41972  17.080  13.761   5.106 -0.0025 -0.1509  0.0067
26079W        W41973  19.123   2.570   1.728 -0.3185  0.0953  0.3692
26080W        W41974   5.607   3.462   0.342 -0.0451  0.3461  0.0795
26081W        W41975  12.791  14.869  11.948  0.2789 -0.0102 -0.0589
26082W        W41976  18.496   3.473   5.427  0.2736 -0.5355 -0.2005
26083W        W41977   5.070   6.949  11.777  0.2267 -0.0393  0.1531
26084W        W41978  13.057   9.240   1.168  0.0813  0.2353 -0.2716
26085W        W41979  14.433   6.289   4.040  0.3117  0.2352  0.0386
26086W        W41980   6.667  14.397   1.048  0.2360 -0.1581 -0.1084
26087W        W41981  11.896   9.622   2.302  0.4448  0.0816 -0.1521
26088W        W41982   0.419  10.358   2.273 -0.2193  0.0956 -0.1274
26089W        W41983   8.795   9.079  14.503  0.0217  0.0129 -0.1476
26090W        W41984  15.748   9.137  12.281 -0.0301 -0.2670 -0.1613
26091W        W41985  12.613  10.216   2.428 -0.0968  0.1770 -0.4334
26092W        W41986   2.834   1.109   0.036 -0.4165 -0.2377  0.1631
26093W        W41987   9.412   4.883  12.745  0.2294 -0.2507 -0.1053
26094W        W41988  10.041   4.191   3.640  0.5531  0.1078 -0.1807
26095W        W41989  14.267  17.884  12.146  0.1596  0.0712 -0.2367
26096W        W41990  11.269   3.770   2.200 -0.2337  0.3563 -0.1812
26097W        W41991   1.817  10.417   2.185  0.2976  0.1039 -0.1663
26098W        W41992  10.764   6.986  13.137 -0.2674  0.2964 -0.2539
26099W        W41993  17.227  18.268  14.142 -0.3603  0.1343  0.0876
26100W        W41994   7.213   0.659  13.528 -0.0589 -0.0276 -0.1947
26101W        W41995  10.321   5.925   2.537  0.1447 -0.2814  0.0731
26102W        W41996   1.584   6.493   1.778 -0.1546 -0.2685 -0.1993
26103W        W41997  13.122  12.280   4.099  0.1186  0.1292 -0.2812
26104W        W41998   3.042   5.236   5.720  0.3290 -0.0830 -0.2039
26105W        W41999  15.247  15.165  12.244 -0.1197 -0.0491 -0.1014
26106W        W42000   0.787  14.968  13.990 -0.0418 -0.0138 -0.3078
26107W        W42001   0.835  13.431  12.487  0.0324 -0.1738 -0.2372
26108W        W42002   2.400  17.359   2.452  0.2885  0.3158  0.1509
26109W        W42003  18.914  15.182   4.480 -0.2351  0.4404  0.3408
26110W        W42004   4.623  11.532   4.548 -0.1142  0.2644  0.1896
26111W        W42005   7.324  16.343   0.560 -0.0100 -0.0213 -0.1438
26112W        W42006   4.141   5.418   1.844 -0.0466 -0.2389  0.1249
26113W        W42007   1.391  14.380  13.731  0.1759 -0.0933  0.2624
26114W        W42008  14.794   3.120   0.827  0.1854 -0.0288 -0.1379
26115W        W42009   7.576  18.990  13.818  0.0739  0.3307 -0.1814
26116W        W42010  16.941  15.237  12.444  0.3046  0.0574  0.2683
26117W        W42011   1.707  11.928  11.152  0.0026 -0.0665 -0.0369
26118W        W42012  10.119  12.115   3.988  0.1793 -0.2500  0.0881
26119W        W42013   2.498   8.701   1.520 -0.0312 -0.4641  0.3901
26120W        W42014   1.558  14.156   9.829  0.0149 -0.0637  0.0517
26121W        W42015  12.023   2.748   4.253  0.2957 -0.3604 -0.0550
26122W        W42016   2.707   9.782  10.978 -0.1723  0.0396 -0.0121
26123W        W42017  16.924   9.390  14.402 -0.0084 -0.1475 -0.2677
26124W        W42018  14.033   9.768   5.356 -0.2640  0.3088 -0.1783
26125W        W42019   9.590   1.922  14.998  0.0849 -0.1511 -0.0462
26126W        W42020   2.402   0.292  11.901  0.2224  0.0287  0.1767
26127W        W42021  16.293  15.986  11.906  0.0215  0.0578  0.1876
26128W        W42022   0.888   2.413  12.838 -0.0611 -0.1573  0.0186
26129W        W42023  18.873  18.433   5.243 -0.1964  0.1442  0.0273
26130W        W42024   9.470  14.016  12.515  0.1161 -0.0489 -0.4690
26131W        W42025  18.617  12.671   4.591  0.1020  0.0441  0.1007
26132W        W42026  17.160   4.878   5.558  0.0753 -0.0075  0.1121
26133W        W42027  14.127   4.044   3.474  0.2789 -0.0613  0.1320
26134W        W42028  13.391   0.144   0.542 -0.0316 -0.3531  0.2590
26135W        W42029  15.487   5.416  14.703  0.3708  0.3154 -0.1733
26136W        W42030   6.305  17.585  11.006  0.1962  0.0191 -0.1457
26137W        W42031  17.288  16.290   4.122 -0.3632 -0.1732 -0.0079
26138W        W42032   5.908  18.908  14.450  0.2222  0.1427  0.3411
26139W        W42033   6.377  13.841   2.305 -0.0161 -0.1708  0.0127
26140W        W42034  17.956  13.767   3.506 -0.1248  0.1511  0.4244
26141W        W42035  12.960   9.784  11.653  0.0592 -0.2152 -0.1218
26142W        W42036   5.999   9.627   4.897  0.0150  0.1304 -0.1163
26143W        W42037  14.697  12.251  14.991  0.1921 -0.1233  0.0107
26144W        W42038   2.682  13.376   1.768 -0.0009 -0.3998 -0.0751
26145W        W42039  16.438  18.791  13.755  0.1795  0.2723  0.2383
26146W        W42040  16.654  17.763  13.136  0.1750  0.2722 -0.1834
26147W        W42041  16.391   6.271  11.257 -0.3192  0.3065 -0.2992
26148W        W42042  14.321  11.210   3.321 -0.0162  0.1628 -0.4001
26149W        W42043  15.468   9.342   3.166 -0.0517 -0.2451  0.1820
26150W        W42044  10.144  15.139   4.765 -0.0990 -0.0422  0.0963
26151W        W42045   1.373  18.177  14.280  0.1447  0.0057  0.1128
26152W        W42046   1.405  12.465  10.642  0.1099 -0.0149  0.0636
26153W        W42047  14.778   1.351  10.579 -0.1489  0.1909 -0.0441
26154W        W42048  12.961   9.883   4.660 -0.2554 -0.0460 -0.3617
26155W        W42049  12.971  16.634   3.048  0.1384 -0.1896  0.1148
26156W        W42050  10.621  11.597  10.120  0.0596 -0.1865 -0.0957
26157W        W42051  15.994  15.211  10.869 -0.0309 -0.2263  0.1417
26158W        W42052   7.251  11.038   2.059 -0.1164 -0.3248 -0.0753
26159W        W42053  18.394  14.588   5.518  0.0715 -0.2320  0.3981
26160W        W42054   4.496  10.466  13.662  0.2194  0.1986 -0.3149
26161W        W42055   8.162  11.377  10.358  0.0215 -0.3705 -0.2563
26162W        W42056   1.143  10.651   1.151 -0.4231 -0.1957  0.0614
26163W        W42057  11.465  17.266   1.708 -0.1534 -0.0013 -0.1448
26164W        W42058   2.837  18.325   1.019 -0.0121 -0.0095 -0.1183
26165W        W42059   4.256  12.328  10.515  0.2138  0.1900  0.0610
26166W        W42060   6.852   3.051   4.670  0.1157 -0.0844 -0.0995
26167W        W42061   1.629  13.426   1.814 -0.2218 -0.0047 -0.0810
26168W        W42062  16.682   1.772   3.284 -0.0140 -0.4488 -0.1712
26169W        W42063  10.525  10.617  15.091  0.2633  0.3066 -0.1554
26170W        W42064   5.889  15.240   3.603  0.0875 -0.0029  0.1561
26171W        W42065  11.630   6.255   2.145  0.0238 -0.0831 -0.3496
26172W        W42066   0.163  11.529  11.313  0.1308  0.2938  0.1050
26173W        W42067  15.074   8.387   4.238 -0.0835 -0.0499  0.2206
26174W        W42068   6.869   8.426  12.211 -0.2916  0.1267  0.1034
26175W        W42069   2.099   9.410   2.174  0.0318  0.3837 -0.2684
26176W        W42070   1.287   8.824  13.390 -0.0141 -0.1620 -0.1602
26177W        W42071   8.203   5.294   3.576 -0.1821 -0.2120 -0.3294
26178W        W42072  18.217   0.639  14.377 -0.3224 -0.0594 -0.2155
26179W        W42073   4.290  13.676  12.211 -0.0475 -0.0927 -0.2468
26180W        W42074   3.864  11.008   2.348  0.2317  0.1061  0.0938
26181W        W42075  11.169  13.290  12.650 -0.1058 -0.0195 -0.2572
26182W        W42076  12.131  10.945  15.021 -0.0117 -0.3530 -0.1611
26183W        W42077  18.875  11.774   0.037  0.0798 -0.0556  0.2204
26184W        W42078   4.816   4.541  12.567 -0.0743 -0.0725  0.2224
26185W        W42079  17.087   6.253   2.250 -0.0764 -0.3125 -0.3223
26186W        W42080   0.666   2.177   3.233 -0.6044 -0.1266 -0.0704
26187W        W42081  17.135  16.042   1.673  0.3384 -0.0663 -0.0036
26188W        W42082   8.542   8.041  14.887  0.1890  0.1007 -0.3896
26189W        W42083  13.517  14.169   2.757  0.0263 -0.1521  0.0138
26190W        W42084  11.789   0.238  14.127 -0.2797 -0.0794  0.1025
26191W        W42085  10.253  11.917   0.620 -0.1433  0.0176 -0.0257
26192W        W42086  16.186  18.918  15.087 -0.3365 -0.2500 -0.1293
26193W        W42087   0.306  15.913   0.053  0.0231 -0.0652 -0.4571
26194W        W42088   7.613  11.541   4.128 -0.0948 -0.1378 -0.2942
26195W        W42089  15.708  13.750  13.467  0.0066  0.4133  0.2476
26196W        W42090   1.837  16.330   3.300  0.0055  0.0427 -0.1720
26197W        W42091  16.368   1.727  11.108  0.1257  0.1135  0.1476
26198W        W42092   5.387   6.523   2.174  0.3498  0.1642 -0.1121
26199W        W42093   3.233  17.645   2.186 -0.0036  0.2336  0.0765
26200W        W42094  16.530  10.341   4.290 -0.2625  0.1176 -0.1202
26201W        W42095   6.541  10.308   2.885 -0.1520  0.0068 -0.1794
26202W        W42096   2.695   8.535   9.822  0.1163  0.0719  0.2116
26203W        W42097   7.449  18.682  14.950 -0.1268  0.0736  0.0018
26204W        W42098  14.740  14.725  11.791  0.1487  0.0077 -0.1857
26205W        W42099  18.979  11.020   0.181  0.1528  0.1631 -0.0431
26206W        W42100   3.115   0.108   3.715  0.0421 -0.0852  0.1426
26207W        W42101  12.887   8.738   3.702  0.2393 -0.1228 -0.1870
26208W        W42102   6.239   3.002   4.706  0.3204  0.2440 -0.1098
26209W        W42103   6.835  13.602   5.359 -0.0127 -0.0648 -0.0691
26210W        W42104  16.990   6.247  14.917 -0.2734 -0.2127 -0.0215
26211W        W42105   2.876   4.644  12.438 -0.1562  0.2290 -0.2216
26212W        W42106   8.515   4.374   3.339 -0.1789 -0.0622  0.1204
26213W        W42107   6.449  13.620  14.021 -0.1224  0.0919  0.2019
26214W        W42108   2.439   1.414  13.944 -0.3101  0.1183  0.0530
26215W        W42109   4.097  17.213  13.515 -0.4067 -0.1850  0.1765
26216W        W42110   2.810   7.516   5.348 -0.0473 -0.0714  0.1734
26217W        W42111  10.281   5.257  13.581  0.0321  0.1455  0.1004
26218W        W42112  14.825   1.725   2.127 -0.0095 -0.3879  0.1703
26219W        W42113   7.845  13.255   2.285 -0.1310 -0.0712 -0.2634
26220W        W42114   5.830  10.080   0.635 -0.2019 -0.2967 -0.2415
26221W        W42115   6.643   3.834   4.050  0.1822  0.1161  0.2149
26222W        W42116  13.266   3.777   0.397  0.1650  0.0860 -0.0366
26223W        W42117   2.882  12.396   2.702  0.1181  0.3510  0.1430
26224W        W42118   7.706   8.201   0.624  0.3236 -0.0813  0.2107
26225W        W42119   1.652  18.743   0.166 -0.0858 -0.1234  0.0616
26226W        W42120  11.011   0.605   0.523  0.2291 -0.1219 -0.0217
26227W        W42121   7.604   0.207   3.974 -0.0608  0.0880  0.2317
26228W        W42122   1.752   5.533  12.510 -0.1273 -0.1500  0.3074
26229W        W42123  14.648  12.434  14.113  0.3620  0.0394 -0.0090
26230W        W42124  12.022   0.833   2.593  0.1841 -0.1249  0.1190
26231W        W42125   6.707  14.464  11.224 -0.1663 -0.1286 -0.2232
26232W        W42126   4.992   2.831   2.075 -0.1635 -0.0702 -0.0650
26233W        W42127   6.353  13.643  13.463 -0.0142  0.2872 -0.3053
26234W        W42128  15.482  12.203   3.107 -0.1760 -0.1858 -0.1264
26235W        W42129  14.695   1.480  12.733  0.1885  0.0857 -0.0568
26236W        W42130  17.925   8.481  11.077  0.0107  0.0609 -0.1378
26237W        W42131   7.397  17.852   2.536  0.1703 -0.2717  0.0435
26238W        W42132  13.414  18.245   1.564 -0.1369 -0.1951  0.0818
26239W        W42133   7.070   5.229   2.876 -0.1340 -0.0725 -0.0218
26240W        W42134   5.044   6.765  10.933 -0.3396 -0.4912  0.3395
26241W        W42135   2.169  17.019  14.641  0.0937 -0.0861  0.4506
26242W        W42136   4.724  13.488  10.695 -0.2214 -0.1829  0.1226
26243W        W42137   9.445   6.009  11.556  0.0875  0.1939  0.1802
26244W        W42138   9.960   8.101  12.588 -0.1439  0.2058 -0.3369
26245W        W42139   3.956  13.555  12.906 -0.1984  0.2736  0.0410
26246W        W42140  12.216   9.700   4.547 -0.0740  0.1407  0.0588
26247W        W42141   3.035  18.955   4.834  0.2188  0.2766  0.1132
26248W        W42142   1.462   4.757  14.291 -0.1220 -0.0189 -0.0434
26249W        W42143   6.474  18.476   4.167  0.2763 -0.2587  0.1890
26250W        W42144   9.312  15.186   4.328  0.0311  0.0611 -0.1578
26251W        W42145  14.447   2.368   4.144  0.0294 -0.1751  0.0199
26252W        W42146   8.784   7.718   3.833  0.1503 -0.2392 -0.1442
26253W        W42147   1.443   5.623  14.783  0.0073 -0.2259  0.1517
26254W        W42148   0.701   2.008  14.863  0.0352 -0.1243 -0.0927
26255W        W42149  16.615   6.061  14.568 -0.0713 -0.2204  0.0300
26256W        W42150  14.070   8.231  12.559  0.3011 -0.0358 -0.1348
26257W        W42151  18.035  17.204  14.335  0.1354  0.1495  0.0324
26258W        W42152   7.752  10.252   5.136  0.4750 -0.0033 -0.1847
26259W        W42153  18.862   9.070  14.845 -0.0737 -0.1082  0.1705
26260W        W42154  14.975   7.890   5.418  0.0959  0.1516 -0.0723
26261W        W42155  16.994  17.927  12.251  0.0415  0.0404 -0.2890
26262W        W42156   7.072   0.831  10.618 -0.4471 -0.1311  0.0339
26263W        W42157  10.292  10.294   3.900  0.0063  0.1589  0.0013
26264W        W42158   5.927  14.054  11.847 -0.2253  0.0924 -0.1740
26265W        W42159   2.844  18.891   2.492  0.2335 -0.3785 -0.1894
26266W        W42160   4.231  18.279  14.264  0.3319 -0.2139 -0.2234
26267W        W42161   2.469  14.239  12.267  0.1084 -0.3490  0.0037
26268W        W42162   0.153   7.140   0.299 -0.1007  0.1968  0.1515
26269W        W42163  16.660   7.089   4.253  0.0410 -0.0023  0.0083
26270W        W42164   2.882  15.749  13.323  0.0429  0.2571 -0.1367
26271W        W42165  10.196   0.337   0.927  0.0421  0.1684 -0.0867
26272W        W42166  18.897  15.024  12.974 -0.0320 -0.3092  0.1647
26273W        W42167   7.651   8.251  12.931 -0.2520  0.0311 -0.1161
26274W        W42168  12.472  16.482   3.226  0.2912 -0.0145 -0.0873
26275W        W42169   8.410  15.038  13.838 -0.0107  0.1175  0.4818
26276W        W42170  18.822   3.740   1.282 -0.4187 -0.1758  0.0278
26277W        W42171  18.436   6.703   2.088  0.3378 -0.2573 -0.1082
26278W        W42172   1.192   4.947   1.095 -0.6688  0.0028  0.2917
26279W        W42173   7.899   8.651   5.130 -0.1037  0.1997 -0.2294
26280W        W42174  16.828   2.830   2.215  0.0036 -0.1986 -0.0785
26281W        W42175  17.163  12.707  14.473  0.0539  0.3997 -0.2173
26282W        W42176  18.599   3.465  11.982  0.0548 -0.1538 -0.1848
26283W        W42177   2.162   8.529   2.988 -0.2530  0.1443  0.0330
26284W        W42178   7.553  17.288   0.529  0.1795  0.1599 -0.0305
26285W        W42179  13.527   9.804   4.792 -0.2455  0.3729 -0.2404
26286W        W42180   9.882  11.205   0.682  0.0876  0.1206  0.4451
26287W        W42181   8.636  13.014   1.881 -0.3131  0.0118 -0.0111
26288W        W42182   4.859   0.652   4.746 -0.0667 -0.1817 -0.0234
26289W        W42183  10.109   3.831  12.696  0.0237 -0.2942 -0.1333
26290W        W42184   5.895   3.158  11.101  0.1628  0.0871  0.0195
26291W        W42185   6.115  16.304   1.988 -0.3256  0.0799  0.0781
26292W        W42186  18.011   7.059   1.830  0.1601  0.1096  0.0110
26293W        W42187  15.085  11.407  10.079  0.4088 -0.1506  0.2985
26294W        W42188   6.445   3.381  14.990 -0.1424  0.1103 -0.0086
26295W        W42189   0.095  10.131   4.055  0.2787 -0.2493 -0.0316
26296W        W42190  15.672   6.236   0.903 -0.0026  0.0772 -0.0229
26297W        W42191  11.768   0.662  10.599 -0.4012  0.1316 -0.3192
26298W        W42192   8.904   1.441   4.865  0.0661 -0.0015 -0.0155
26299W        W42193  17.904   8.974   0.733  0.1358  0.2084  0.1111
26300W        W42194  19.028  19.159   3.858  0.1969 -0.1177 -0.1963
26301W        W42195   4.383  14.317   3.120 -0.0814  0.0648 -0.1685
26302W        W42196   2.922   8.914   4.349  0.0780 -0.4601 -0.0142
26303W        W42197  11.244  10.537   3.280  0.0208 -0.0960 -0.0461
26304W        W42198   8.982   7.312  14.732  0.0409  0.0825  0.1775
26305W        W42199   5.225   5.687   1.553 -0.0935 -0.4645  0.1392
26306W        W42200   0.307   0.262  13.927 -0.0595  0.1044  0.1591
26307W        W42201   3.632  14.815  10.121  0.1669  0.0583 -0.1671
26308W        W42202   9.102   0.504   0.128  0.2793 -0.3041 -0.1310
26309W        W42203   1.449  11.829  13.730 -0.0029  0.2025  0.2112
26310W        W42204  17.381  18.892   1.655  0.2488 -0.0644 -0.0829
26311W        W42205   5.085   9.069   1.356  0.5405  0.1618  0.4146
26312W        W42206  10.988   6.976   4.512 -0.0766 -0.0236 -0.2064
26313W        W42207  11.116  12.902   5.380 -0.2844  0.1991  0.2696
26314W        W42208  13.043  19.036   3.214  0.2802 -0.0971 -0.1717
26315W        W42209   4.722   6.115  11.312  0.2173  0.1662  0.2347
26316W        W42210   1.906   0.520   2.175  0.1766  0.3200  0.2193
26317W        W42211  17.613   9.595   3.774 -0.2481  0.1688 -0.2138
26318W        W42212   5.769   2.462  11.650  0.0199 -0.3046 -0.0841
26319W        W42213   2.168   0.378   2.747 -0.0918 -0.3495 -0.0112
26320W        W42214  10.692  10.571   2.962 -0.1810  0.0024 -0.1777
26321W        W42215  18.511  11.537  14.726 -0.0430 -0.2798  0.3572
26322W        W42216  16.421   5.144  14.753 -0.0413  0.1660 -0.0321
26323W        W42217  18.335   9.795  10.728  0.0219  0.0224 -0.0329
26324W        W42218   0.841   6.918   4.578  0.2099  0.0040  0.3084
26325W        W42219   1.635  18.448   5.238 -0.2724  0.2966 -0.0024
26326W        W42220  17.708  18.655  12.577 -0.0362 -0.0428 -0.0103
26327W        W42221  18.223  16.213   4.111 -0.1442 -0.1238  0.1469
26328W        W42222  10.396   3.748  13.253  0.2099 -0.3961  0.1082
26329W        W42223  17.060  15.615   2.886 -0.2828  0.1076  0.1935
26330W        W42224  11.136  17.392   1.234  0.0849  0.1152 -0.0182
26331W        W42225  17.863  18.774   0.624  0.1364 -0.3066 -0.2425
26332W        W42226   7.504  12.948   1.436 -0.2074 -0.1733  0.2201
26333W        W42227   1.078   0.856   5.917  0.1093 -0.1159  0.1000
26334W        W42228   4.855   9.245  14.922 -0.0042 -0.1091  0.1574
26335W        W42229  18.213  10.376  11.269 -0.1446  0.0726 -0.0747
26336W        W42230   5.559   6.755  10.888  0.0976 -0.2910  0.3333
26337W        W42231  10.136   4.018   4.679  0.3105 -0.1559  0.1649
26338W        W42232   5.808   7.628  14.857  0.1533  0.1551 -0.0973
26339W        W42233   3.584   7.303  12.719 -0.1662  0.0567 -0.3347
26340W        W42234  15.617  11.061  14.616 -0.0446  0.4363 -0.0669
26341W        W42235   7.715  17.850   1.717 -0.4011 -0.1331 -0.0591
26342W        W42236   6.628  15.884  13.474  0.0990 -0.1849  0.1818
26343W        W42237  14.587   2.657  11.743  0.1410  0.1352 -0.5367
26344W        W42238   4.247   1.621   5.047  0.1769 -0.0237 -0.2267
26345W        W42239  13.090  17.501   3.882  0.1760  0.1325  0.3452
26346W        W42240   1.359   0.318  11.632 -0.1439  0.0063 -0.3960
26347W        W42241  14.753  10.468  10.896 -0.0077  0.0091 -0.3465
26348W        W42242  11.474  11.646   2.916  0.2033 -0.0752 -0.1130
26349W        W42243  18.055  11.759  14.979 -0.0530 -0.0261  0.1201
26350W        W42244   7.864  12.585  13.289  0.0255  0.2515 -0.0328
26351W        W42245   4.093   4.787   0.358  0.0040  0.2794  0.1313
26352W        W42246   0.559   6.720   4.919 -0.2145  0.1821 -0.0254
26353W        W42247  10.189   4.591  14.991 -0.1171  0.0709  0.1595
26354W        W42248  17.258  11.555   1.118  0.0115 -0.0756  0.1907
26355W        W42249  16.423   8.457   4.652  0.0599 -0.1548 -0.1251
26356W        W42250   4.373  15.648  12.875 -0.0666  0.3419 -0.0142
26357W        W42251   8.888   3.578  11.031 -0.2820  0.1530 -0.1165
26358W        W42252   0.510  11.772   5.196  0.1788 -0.1831 -0.3111
26359W        W42253  16.153  13.283   1.549  0.1008  0.2176  0.0133
26360W        W42254  17.847  12.055  12.498  0.2645  0.0069  0.4397
26361W        W42255  11.705   1.733  13.279  0.0469  0.1205 -0.1039
26362W        W42256  11.227   0.850   5.249  0.0408  0.1895 -0.0752
26363W        W42257  19.087   2.306  12.206  0.2573 -0.0391 -0.1105
26364W        W42258  11.191  12.799  13.118 -0.0411  0.2003  0.0918
26365W        W42259   0.569  15.709   1.889  0.1654  0.0039 -0.2432
26366W        W42260   9.947   5.634   0.364 -0.0323  0.2640 -0.0977
26367W        W42261  17.499  15.527   5.018 -0.2976 -0.3342  0.0713
26368W        W42262   5.704   0.557  14.259  0.0670  0.0399 -0.1201
26369W        W42263  11.302   2.146   2.371 -0.1850 -0.3000 -0.2371
26370W        W42264  17.261  18.577   3.980  0.2004 -0.1060 -0.1662
26371W        W42265  14.671  14.876  14.133 -0.0255  0.2900 -0.1207
26372W        W42266  11.541  13.211   1.706 -0.4310  0.0276  0.1277
26373W        W42267   0.240   1.563   0.133 -0.1751  0.0534  0.1221
26374W        W42268  14.288  16.659   0.241  0.2828 -0.0171  0.1120
26375W        W42269   2.835  13.435  11.934  0.0624  0.1389  0.0467
26376W        W42270   9.076   4.559   3.161  0.0475  0.0227 -0.2961
26377W        W42271  18.017  18.349   5.424  0.3929 -0.0475 -0.1444
26378W        W42272   4.637   5.313   4.960 -0.0038 -0.0215  0.2842
26379W        W42273  17.529  18.165  13.713  0.3352  0.1550 -0.1288
26380W        W42274  14.499   4.468  11.183 -0.4072 -0.1369  0.0207
26381W        W42275  16.750  12.805  10.605 -0.2676  0.0779  0.1239
26382W        W42276  14.894   6.548  11.544  0.1111  0.1791  0.1650
26383W        W42277   9.255   4.897   5.589 -0.0937  0.2009 -0.0057
26384W        W42278  18.232   2.674   0.599 -0.1550 -0.1589  0.0345
26385W        W42279  15.643   4.772   1.575  0.0984 -0.2338  0.1410
26386W        W42280   2.193   7.854  11.784 -0.2371  0.0672 -0.3022
26387W        W42281   3.005  14.465   3.942  0.4367  0.2998 -0.1356
26388W        W42282  10.817  15.342   3.426 -0.0734  0.1072 -0.0958
26389W        W42283  15.960  11.541   3.774  0.1839  0.3973 -0.2398
26390W        W42284   4.107   4.708   3.425  0.0131 -0.0560  0.1510
26391W        W42285  16.620   5.225  12.617 -0.1777 -0.0592  0.0750
26392W        W42286  19.155  18.746   3.420 -0.1470  0.1675  0.0195
26393W        W42287   8.397   5.903  12.569  0.0067 -0.0417 -0.2439
26394W        W42288   2.010   9.852  12.005  0.0825  0.0972  0.2091
26395W        W42289  13.091  16.355  11.001 -0.0977 -0.1962  0.0360
26396W        W42290  18.059   1.425   0.192 -0.3966  0.1449  0.0538
26397W        W42291  15.015   8.029  11.872 -0.2600 -0.2614  0.1329
26398W        W42292   9.296  14.327  11.773  0.0855 -0.2924  0.0635
26399W        W42293  18.950  18.887  11.385  0.0946 -0.0615  0.0692
26400W        W42294  10.868   6.089   2.537  0.2028  0.0471  0.0315
26401W        W42295  12.699  11.976  10.746  0.0919  0.1358  0.2941
26402W        W42296   6.362   4.647   4.265 -0.1376 -0.0135  0.0477
26403W        W42297  17.921   5.377   3.076  0.1148 -0.0634  0.3611
26404W        W42298  16.416  18.934   0.463 -0.4301  0.0080 -0.2406
26405W        W42299   4.177  18.605  14.631 -0.1093  0.1253 -0.0661
26406W        W42300  16.447  10.914  11.131  0.0549  0.2137 -0.0275
26407W        W42301  15.809  15.021   4.995 -0.2633  0.1189 -0.1227
26408W        W42302   1.995  14.446  12.170 -0.2275 -0.0504  0.1829
26409W        W42303  19.147  11.621   3.228 -0.3357 -0.1126  0.0857
26410W        W42304  12.916   5.208  12.029  0.0537  0.2732  0.0317
26411W        W42305  17.853  11.499  12.723  0.1883 -0.0739  0.0684
26412W        W42306   2.080  15.704   0.022  0.1919  0.0678 -0.2025
26413W        W42307  18.885  18.632  13.426  0.0321 -0.0240 -0.3570
26414W        W42308   3.402   3.636  12.219  0.3189 -0.1872  0.2101
26415W        W42309  14.376   0.080   2.132  0.0951 -0.2137  0.1087
26416W        W42310  15.597   4.427  13.826 -0.0875  0.0332 -0.3540
26417W        W42311   3.221  14.702  13.139 -0.2805 -0.0129 -0.0432
26418W        W42312   1.666  11.313   1.369 -0.2217 -0.1444 -0.2145
26419W        W42313   4.335   9.788  11.034  0.1130 -0.1263 -0.2795
26420W        W42314   0.989   8.523   3.459  0.1752 -0.3742  0.2057
26421W        W42315   9.324  18.270  14.438 -0.0643  0.3608  0.1143
26422W        W42316  16.770   9.827   1.489  0.1333  0.3981 -0.2011
26423W        W42317  18.374  19.136   0.343  0.2738 -0.0805  0.0066
26424W        W42318  14.852  14.881  10.766 -0.4960  0.1470  0.0665
26425W        W42319   6.430  18.456  10.514 -0.0793 -0.1901  0.0965
26426W        W42320   9.864  16.502   2.385  0.0516  0.1592 -0.2600
26427W        W42321  11.996   6.481   5.014  0.0812  0.0973  0.0862
26428W        W42322   4.753  11.479   0.506 -0.0915  0.3651 -0.0877
26429W        W42323   2.991   1.159  11.501  0.1555 -0.2204  0.1977
26430W        W42324  14.036  15.956  11.809  0.0713 -0.0122 -0.0054
26431W        W42325  18.788   0.297   3.610 -0.2723  0.2915 -0.0205
26432W        W42326   4.063   0.576  13.410 -0.2030 -0.1296  0.3068
26433W        W42327   6.161  19.152  13.477  0.0803 -0.0831 -0.0210
26434W        W42328  16.978   2.528   1.837  0.1439 -0.2598  0.0091
26435W        W42329   4.805   7.464   1.910  0.0293 -0.0346  0.2465
26436W        W42330  17.279   8.800   2.215 -0.0674 -0.0758 -0.0424
26437W        W42331   3.334   5.620   4.011 -0.3804 -0.0529 -0.1670
26438W        W42332  17.244   8.758   3.550  0.3855 -0.2309  0.3134
26439W        W42333  10.255   6.429   0.286  0.0097 -0.1667 -0.0248
26440W        W42334  11.293  13.023  13.656 -0.1427 -0.3613  0.0395
26441W        W42335   0.637   5.122  14.337 -0.1379 -0.0417  0.0458
26442W        W42336  16.476   1.203   1.466 -0.5069  0.2637 -0.2308
26443W        W42337   8.434   7.810   0.635  0.1811 -0.1352  0.3458
26444W        W42338   7.422   9.416  12.881 -0.1986  0.1529  0.0357
26445W        W42339   7.679   4.103  15.021 -0.0394  0.2833  0.0118
26446W        W42340   4.599  10.063   0.139 -0.2759  0.0040 -0.3861
26447W        W42341  17.283  16.243  13.393  0.1409  0.0506  0.1889
26448W        W42342  17.981   8.400   0.731  0.2180 -0.0866  0.0469
26449W        W42343  18.051  12.852   3.301  0.1330 -0.3303 -0.1156
26450W        W42344   8.163   8.251   4.408 -0.0903 -0.1318  0.0618
26451W        W42345   9.555   8.793   2.832 -0.2818 -0.1793  0.0687
26452W        W42346   5.754  15.643   1.925  0.0606 -0.3420  0.1436
26453W        W42347   4.132   2.164  10.593  0.0907  0.2771  0.0728
26454W        W42348   6.891  18.749   0.502 -0.0009  0.0989 -0.2219
26455W        W42349   0.708  18.035  11.860 -0.1317  0.1899  0.2208
26456W        W42350   8.353   8.606   3.445 -0.0127  0.0221 -0.1873
26457W        W42351  18.500  15.187   3.651  0.5435 -0.1624  0.3779
26458W        W42352   3.911   9.128  14.815  0.2029  0.2372  0.1309
26459W        W42353   9.743  16.122   2.655 -0.0183  0.1953 -0.0230
26460W        W42354  12.150   8.294  10.116  0.0998  0.2913 -0.2125
26461W        W42355   0.656   6.382  14.666 -0.3416 -0.0878 -0.3568
26462W        W42356   4.186   3.191   6.147 -0.3744 -0.2248  0.1145
26463W        W42357   5.081  12.704  12.453  0.1328 -0.0705  0.1113
26464W        W42358  10.145  15.718  11.063  0.0613 -0.0376 -0.2821
26465W        W42359   7.758  10.852   2.599  0.0389 -0.0441  0.1243
26466W        W42360   5.258   1.911  13.421 -0.1274  0.0259 -0.1013
26467W        W42361  12.578  10.008  14.298  0.1911  0.0201 -0.1008
26468W        W42362  11.570  15.168  14.787 -0.0216 -0.0833 -0.0421
26469W        W42363  18.448  12.511  10.477  0.1491  0.0579  0.0505
26470W        W42364   5.888   9.223   3.689  0.2682  0.0101 -0.0588
26471W        W42365   9.911  10.206  11.310 -0.2514  0.2445  0.4854
26472W        W42366  12.780   6.750  13.998 -0.3403  0.1147 -0.0353
26473W        W42367   8.208  17.795  11.696  0.0131  0.0984  0.2154
26474W        W42368  15.741   0.579   1.949  0.1721 -0.3954 -0.0909
26475W        W42369   8.249   8.785  12.537 -0.1480  0.1021  0.5583
26476W        W42370  18.650  15.573   1.260 -0.0187 -0.0663 -0.2970
26477W        W42371   8.654   3.548   1.741  0.2605 -0.1919 -0.1903
26478W        W42372   8.444   6.768  12.127  0.0501  0.2554 -0.0947
26479W        W42373  13.441   3.955   2.009  0.0230 -0.2158 -0.0389
26480W        W42374   8.942  13.916  11.675  0.2439 -0.1040 -0.0426
26481W        W42375  18.779  16.663  13.053  0.2714  0.4358 -0.1274
26482W        W42376   5.419   9.768   0.610  0.0557 -0.2276 -0.1324
26483W        W42377   7.121  11.649  12.233  0.0680 -0.4433  0.1980
26484W        W42378  16.876   1.988   2.421  0.1062 -0.2365 -0.1839
26485W        W42379  17.609  14.490   4.038 -0.0979 -0.1159  0.2239
26486W        W42380  12.241  14.516   3.395  0.4663 -0.1704 -0.0608
26487W        W42381   5.648  11.636   3.429 -0.3686  0.3656 -0.0728
26488W        W42382   2.198   3.332  12.671 -0.1204  0.2935 -0.1930
26489W        W42383   3.958   1.267  12.184 -0.2972  0.1446  0.1254
26490W        W42384  11.486   7.062   4.436 -0.0068  0.3009 -0.0741
26491W        W42385   2.823  14.850   2.940 -0.0715  0.0477  0.1127
26492W        W42386  14.541   9.625   4.265 -0.0336 -0.1147  0.0301
26493W        W42387   2.260  13.842  13.838 -0.1546 -0.0349  0.0251
26494W        W42388  16.065  11.513   3.297  0.0818 -0.0358  0.1549
26495W        W42389  14.708   3.888  11.244 -0.1422  0.0014  0.0015
26496W        W42390   8.524   9.548  11.024 -0.3032 -0.1341 -0.0472
26497W        W42391  15.804   1.545  10.246 -0.2065 -0.1497 -0.2473
26498W        W42392   5.125  14.064   3.981  0.0059 -0.2398 -0.0869
26499W        W42393   1.177   4.312  12.218  0.0469  0.0165 -0.2192
26500W        W42394  10.775  18.528  12.557 -0.0648  0.2702 -0.1178
26501W        W42395   0.929   1.386   3.975  0.5485 -0.0879 -0.2718
26502W        W42396   3.245  15.512   0.336 -0.0911  0.1128  0.2835
26503W        W42397   8.509   4.430  13.143  0.2168 -0.0451 -0.2117
26504W        W42398   8.329  14.966  14.579 -0.1494 -0.3091 -0.1797
26505W        W42399   6.331   0.439   3.501  0.1157  0.2573 -0.1789
26506W        W42400   4.758   0.523   1.703 -0.0538 -0.0924  0.2198
26507W        W42401  13.460   4.672  15.085  0.1365 -0.0025 -0.2447
26508W        W42402   4.077   5.877   2.439 -0.0959 -0.2400 -0.3005
26509W        W42403  18.634  14.096  12.672  0.3184 -0.0536  0.3711
26510W        W42404  11.149   4.874  10.032 -0.2037 -0.2114  0.0127
26511W        W42405  16.534  12.999  11.980 -0.0005  0.0023 -0.1047
26512W        W42406   8.316  11.656   2.869  0.0530  0.1266  0.3797
26513W        W42407  16.956  15.810  13.055  0.0704  0.3878 -0.1827
26514W        W42408   0.869   1.267   0.551  0.0865 -0.1064  0.0648
26515W        W42409  17.028  14.928   1.534 -0.1528  0.2930 -0.0395
26516W        W42410   3.581   5.876  12.656  0.0290  0.3450  0.0804
26517W        W42411  10.937   6.592   5.322  0.1117  0.0766 -0.0609
26518W        W42412   9.825  19.046   9.714 -0.1984  0.2940  0.2737
26519W        W42413   2.461  13.634  14.703 -0.0652  0.2380  0.0680
26520W        W42414  13.511   0.307  10.637 -0.2575 -0.0199  0.0284
26521W        W42415  14.913   7.601  14.612 -0.0669  0.0122  0.1792
26522W        W42416   5.370   3.093  13.465  0.0492 -0.0355  0.0110
26523W        W42417   5.163  14.094  13.037  0.1862  0.4109  0.2893
26524W        W42418   6.336  16.357   4.394  0.0354 -0.0213  0.2189
26525W        W42419   2.013   7.040   5.152 -0.0571  0.0594 -0.0150
26526W        W42420  15.874  12.148   1.073 -0.1440 -0.0704  0.2211
26527W        W42421  19.066   3.838  11.013 -0.1674  0.1311 -0.1151
26528W        W42422  15.803  12.544   2.817  0.0078  0.1203  0.0999
26529W        W42423   2.067   6.496   9.882  0.1335  0.1489 -0.0793
26530W        W42424  13.983  12.038  11.082 -0.0458 -0.2610 -0.2727
26531W        W42425  12.147   4.092   0.054  0.1104  0.0089 -0.0518
26532W        W42426  12.034  16.245  13.931  0.1828  0.1802 -0.0168
26533W        W42427   1.972  10.094  13.908  0.0125  0.1260 -0.2509
26534W        W42428   1.181   4.902   3.506 -0.0942  0.0247 -0.1892
26535W        W42429   6.474  10.422   4.577 -0.0283 -0.2446 -0.1313
26536W        W42430   1.525  11.104  12.176  0.2037  0.0260  0.0278
26537W        W42431  14.894   0.892  11.990 -0.2229  0.0214  0.0320
26538W        W42432  18.028  10.123  14.424  0.3404 -0.1569  0.3883
26539W        W42433   2.415  17.976  12.052 -0.0627  0.0321  0.1531
26540W        W42434  17.230   9.181   0.169 -0.1666  0.0494  0.3171
26541W        W42435   0.836   8.445  11.533  0.0217 -0.0455  0.1417
26542W        W42436   4.851  11.671  13.160 -0.0303  0.1131  0.1668
26543W        W42437   6.927  11.626   1.422 -0.0662  0.1281 -0.4082
26544W        W42438   6.229  17.271   2.514 -0.0406 -0.0744  0.0739
26545W        W42439  14.340   2.953   3.238 -0.1310 -0.0503  0.1406
26546W        W42440  12.481   1.336  12.579 -0.2836  0.4034 -0.0094
26547W        W42441  12.436   3.130   1.282 -0.1699  0.1003  0.0248
26548W        W42442  12.176   7.595   3.934  0.0831  0.0026  0.1080
26549W        W42443  13.947   7.829   2.311 -0.1348  0.2333 -0.0405
26550W        W42444   9.747   3.843   3.424 -0.0926 -0.0471 -0.1446
26551W        W42445  14.048   4.066   4.789  0.1259  0.1368 -0.5315
26552W        W42446   5.352  16.365  12.826 -0.4938  0.0188  0.0816
26553W        W42447  14.877   2.180  14.281 -0.2385  0.0290  0.3424
26554W        W42448  11.895   4.570  14.445 -0.3943 -0.1583  0.0722
26555W        W42449   1.162  12.043   3.327 -0.1793 -0.0928  0.0092
26556W        W42450   3.749   4.106  10.521 -0.0516  0.0853  0.1244
26557W        W42451   2.004   8.793  14.575  0.0506  0.1951 -0.0417
26558W        W42452  14.036   3.806   2.917 -0.3181  0.0203  0.1835
26559W        W42453   5.130   8.664   5.150 -0.0592 -0.0823  0.2212
26560W        W42454  15.773   4.697  14.867  0.0692  0.2668 -0.1554
26561W        W42455   5.699  17.442   0.326 -0.1502 -0.3442 -0.0640
26562W        W42456  11.031  17.891  13.037 -0.1269 -0.1072 -0.4945
26563W        W42457  13.944  16.148  10.724  0.2230 -0.0041  0.5666
26564W        W42458   5.640   0.159   2.106 -0.0789 -0.1453  0.1032
26565W        W42459  17.625  16.533  13.615  0.2046 -0.2192  0.2700
26566W        W42460  12.414  10.847  11.261  0.2474  0.0221  0.0150
26567W        W42461   8.145  16.177   1.994 -0.1276  0.3901  0.2616
26568W        W42462  16.919   8.785  15.008  0.0391  0.0008  0.0986
26569W        W42463  16.374  16.036  10.909 -0.2652 -0.1952  0.0444
26570W        W42464   3.448  17.314   5.212  0.2032  0.0576 -0.1193
26571W        W42465   5.279  15.888   3.018  0.0956  0.0385  0.1627
26572W        W42466   1.328   4.334   4.877 -0.1699  0.0437 -0.1903
26573W        W42467   2.467   6.782   2.806  0.1213  0.1945 -0.2603
26574W        W42468  13.110   5.209   3.732  0.1424 -0.2350  0.3143
26575W        W42469   5.989   4.096   5.989  0.0338 -0.0907  0.0469
26576W        W42470   4.852   3.242   3.699  0.0820 -0.0432  0.0211
26577W        W42471   1.089   0.253   3.314  0.0732 -0.2929 -0.0573
26578W        W42472  13.188   3.177  11.908 -0.0468  0.3593  0.0120
26579W        W42473   4.527  11.233  14.307  0.1187  0.2595 -0.2254
26580W        W42474  14.746  12.262   1.986 -0.1604 -0.0316  0.0559
26581W        W42475   5.016   6.463   5.971  0.0601 -0.1067 -0.3386
26582W        W42476  12.042   1.759   0.704 -0.1416  0.3340  0.0900
26583W        W42477   9.590   9.744   4.857  0.2535  0.3564 -0.1509
26584W        W42478   9.994   8.347   4.906  0.2625 -0.1353 -0.1355
26585W        W42479   1.871  10.235  13.355 -0.0786  0.0000 -0.0719
26586W        W42480   6.633   8.052   1.844  0.2450 -0.2081  0.2061
26587W        W42481   6.534  15.520   1.679  0.2536  0.0084 -0.2597
26588W        W42482  18.815  13.136   4.757 -0.1076 -0.0611  0.4999
26589W        W42483   3.383  10.512  12.024  0.1084 -0.1449 -0.1492
26590W        W42484   3.781   4.610  11.992  0.0800 -0.2645  0.2039
26591W        W42485  12.116   5.776  10.721  0.1436  0.1533 -0.0539
26592W        W42486   2.407  18.159   2.396 -0.0288  0.1275 -0.3226
26593W        W42487   6.024  11.857   3.012  0.2395  0.2844 -0.2814
26594W        W42488   4.696  15.797  12.551  0.2176  0.0385  0.3662
26595W        W42489   3.611   4.904  13.384  0.1831 -0.0927  0.1807
26596W        W42490  19.130  18.314   3.081 -0.0004 -0.1503 -0.2913
26597W        W42491  17.076  15.296   1.191  0.1219  0.0402 -0.1340
26598W        W42492  17.260   0.124  12.290  0.0754 -0.1034  0.0224
26599W        W42493  17.611   7.514  11.568 -0.1685 -0.0832 -0.1191
26600W        W42494   8.258  18.975  10.861 -0.5245  0.1513  0.0770
26601W        W42495   1.126   4.869   5.464 -0.4003 -0.0083  0.0893
26602W        W42496   8.980  17.367   1.416 -0.1113  0.0912 -0.0744
26603W        W42497  18.581   5.774   4.063  0.1742  0.1675 -0.3697
26604W        W42498  18.609   7.509  13.685  0.0727 -0.1155 -0.1973
26605W        W42499   8.392   5.667   0.558  0.0195  0.0921 -0.0457
26606W        W42500  13.553   6.499   4.279 -0.1623  0.2350  0.4812
26607W        W42501   3.074  16.189  12.498 -0.3451  0.2648 -0.0726
26608W        W42502  11.754  12.819  14.038  0.3538 -0.0401  0.1468
26609W        W42503   1.134   9.987   1.804 -0.2531 -0.2959  0.1582
26610W        W42504   8.039  17.545   2.564 -0.0775  0.1538 -0.0515
26611W        W42505  15.549   5.948  12.406 -0.3356  0.1983 -0.0491
26612W        W42506   9.625  15.122  12.042 -0.0411  0.1421  0.2066
26613W        W42507  15.711  16.731  11.962 -0.0054  0.1819 -0.2902
26614W        W42508  16.130   3.838   0.602  0.4024  0.2257  0.3144
26615W        W42509   2.020   7.154  12.339  0.1523  0.0125  0.2093
26616W        W42510   0.360   8.992   4.699  0.1553  0.2456 -0.1197
26617W        W42511  11.054  10.749   1.927 -0.2343  0.2998  0.0517
26618W        W42512  16.298  18.182  10.312 -0.1303 -0.0161 -0.2382
26619W        W42513  12.897  19.033  14.822 -0.0026 -0.0171  0.2333
26620W        W42514   9.843   7.937  11.798  0.0049  0.1251 -0.0971
26621W        W42515   7.176  11.558   2.799 -0.3201 -0.0716  0.2689
26622W        W42516   3.221   1.793   3.472  0.2627  0.3692  0.0461
26623W        W42517   1.542  10.586  11.899  0.1939  0.1924  0.2229
26624W        W42518  13.584  11.619  13.314  0.3029  0.0115 -0.4686
26625W        W42519   8.797  18.328   1.919  0.2281  0.1832 -0.0915
26626W        W42520   3.089  11.862   0.317 -0.3024 -0.0815  0.0169
26627W        W42521   4.693  15.771   0.137  0.3729  0.1720 -0.2655
26628W        W42522  13.426   6.153   5.551  0.0718 -0.1388 -0.0208
26629W        W42523  16.137  19.027  12.410  0.2555  0.2095 -0.2829
26630W        W42524  18.850   3.916  14.155  0.1296  0.0525 -0.3225
26631W        W42525  16.299   8.105  13.975 -0.1513  0.0825 -0.1426
26632W        W42526   9.556  14.106   2.995  0.1043 -0.0935  0.1420
26633W        W42527   0.933   0.603  12.501 -0.1063 -0.1349  0.3933
26634W        W42528   6.199  10.229   0.295  0.0872  0.1749 -0.0028
26635W        W42529  15.434   6.645   2.170 -0.1101  0.0660  0.2415
26636W        W42530   5.042  18.727   1.985  0.0999  0.2092 -0.0687
26637W        W42531  16.944   0.722   3.554  0.3010  0.2812 -0.0215
26638W        W42532   5.137  14.059   3.332 -0.0683  0.1140  0.0058
26639W        W42533  18.782   9.453  10.494  0.0768 -0.2193 -0.0616
26640W        W42534  16.530  14.155  10.860 -0.0410  0.0723 -0.0629
26641W        W42535   5.314   5.416   3.240 -0.1283 -0.0056 -0.0525
26642W        W42536   4.836   9.132  10.510 -0.1401 -0.4439 -0.3526
26643W        W42537   9.074  13.058   2.067 -0.4427 -0.0627  0.2756
26644W        W42538  16.392   4.451   5.509 -0.0014 -0.1019 -0.0676
26645W        W42539  16.246   8.007   2.047 -0.1578 -0.0912 -0.0008
26646W        W42540  14.868   9.893  14.589  0.0195 -0.1980 -0.1870
26647W        W42541  14.000   3.631  13.933 -0.2448  0.0491 -0.0109
26648W        W42542  11.996   7.287  14.092 -0.4056  0.0420  0.0789
26649W        W42543  18.350   5.471   1.039  0.3621  0.3066 -0.1766
26650W        W42544   3.460  10.086   2.642  0.0238 -0.0817  0.0330
26651W        W42545   6.266   7.963   0.774 -0.2576  0.2250 -0.0276
26652W        W42546   1.542  15.995   2.963  0.0848  0.1292 -0.2787
26653W        W42547   1.848   5.540   4.727  0.2409  0.0523  0.1400
26654W        W42548  17.905   0.574  10.612 -0.0237 -0.4015  0.1620
26655W        W42549   8.184  15.161   3.598  0.0597 -0.2710 -0.1125
26656W        W42550  17.638  12.287  12.133  0.1976  0.5468 -0.2044
26657W        W42551  12.729  14.279  12.778  0.0863 -0.0302  0.2743
26658W        W42552  14.327   8.596  13.415 -0.2043  0.0778  0.0097
26659W        W42553   6.213  13.354   0.105 -0.0088  0.4528 -0.0473
26660W        W42554   0.570   5.536   4.751  0.1391 -0.3624 -0.0788
26661W        W42555  15.132  18.701   4.375  0.0522 -0.2608  0.2069
26662W        W42556   4.605   1.713  11.700  0.0527 -0.2553 -0.1166
26663W        W42557  12.251  14.367  14.418  0.0332  0.1057  0.0696
26664W        W42558  16.085   0.573  13.959 -0.0791  0.0584 -0.0565
26665W        W42559   1.419  17.814  14.626  0.0176  0.0352 -0.1487
26666W        W42560   4.254   0.238   3.037 -0.0397  0.0411 -0.0820
26667W        W42561   5.708   7.928   0.628 -0.0784  0.1068 -0.0160
26668W        W42562   1.008  19.020   2.518  0.2860 -0.0850  0.2667
26669W        W42563   7.194   0.751  14.586  0.1470 -0.2291  0.2050
26670W        W42564  15.585   2.642  14.392  0.1244 -0.3353  0.0970
26671W        W42565   7.204   9.892  12.121  0.2427 -0.1540 -0.2631
26672W        W42566  13.342   8.555   4.307 -0.0768 -0.0984  0.2163
26673W        W42567   8.574  17.454   4.740  0.0854 -0.0841  0.1521
26674W        W42568   6.922  18.758   4.183 -0.0479  0.1794 -0.3143
26675W        W42569  12.657  13.742   1.456  0.1806 -0.4502 -0.1297
26676W        W42570   2.746   7.646   1.922 -0.0850 -0.1288  0.2033
26677W        W42571   9.709  14.695  14.086 -0.1303 -0.2305  0.1284
26678W        W42572  16.728   6.634   3.002 -0.2353 -0.0462  0.1789
26679W        W42573  12.053   8.765  13.035 -0.0291 -0.1070  0.1271
26680W        W42574  12.376   9.714   3.260  0.2886  0.0901  0.1983
26681W        W42575  18.683  10.003   0.468 -0.1183  0.1387 -0.1662
26682W        W42576   0.115  16.729  12.286  0.0428  0.2635 -0.0214
26683W        W42577  16.313   0.258  12.557  0.1937  0.0890 -0.0977
26684W        W42578  14.934   3.592  14.150 -0.0105 -0.2058  0.1945
26685W        W42579  11.261   7.250   2.391 -0.0421  0.0064  0.1083
26686W        W42580  13.109   3.876   1.516 -0.2416 -0.2504 -0.0127
26687W        W42581  12.007  12.006  11.531 -0.0763 -0.2422  0.2533
26688W        W42582  16.044   1.604   2.165 -0.2478  0.0208  0.0812
26689W        W42583   5.352  15.750  10.756 -0.3911  0.0142  0.0246
26690W        W42584   1.143  17.202   1.798 -0.0615  0.2015  0.3912
26691W        W42585   4.755  10.476  10.009  0.1667  0.1017  0.0776
26692W        W42586  12.083  12.707   3.501  0.2186  0.1486 -0.4470
26693W        W42587   8.049  13.194   1.578  0.0765  0.1646  0.0523
26694W        W42588  14.296   9.631   3.814 -0.0200  0.1477 -0.1638
26695W        W42589  12.257   1.844   2.559 -0.4082 -0.0177 -0.2501
26696W        W42590   1.364  16.426   2.771  0.2012  0.0164 -0.3112
26697W        W42591  10.727  10.583   1.495 -0.0314  0.2845  0.2439
26698W        W42592  11.383   4.434   2.994 -0.0014 -0.1891 -0.3459
26699W        W42593   2.745   9.575   2.721  0.0245  0.1704 -0.1012
26700W        W42594   2.180   2.434   0.282  0.2484  0.3104  0.1063
26701W        W42595  16.400  19.039  10.457 -0.1398  0.1890  0.3345
26702W        W42596   5.157   9.723  14.674 -0.1349 -0.1596  0.1926
26703W        W42597   9.847   0.168  14.844  0.4530 -0.1328  0.3231
26704W        W42598  19.077  13.640   4.392  0.0907 -0.0900  0.2668
26705W        W42599   1.548   7.316   5.026 -0.1983  0.2477 -0.0486
26706W        W42600  18.931   8.216  11.664 -0.0976 -0.1164  0.3209
26707W        W42601  12.135  14.037  10.858 -0.0030  0.0120  0.0551
26708W        W42602   7.317   3.841  14.753  0.0937 -0.0467  0.0351
26709W        W42603  10.240   1.908   2.228 -0.1358  0.2262 -0.0626
26710W        W42604  18.428   8.563   4.342 -0.0545 -0.0563 -0.1302
26711W        W42605   7.205   7.253   4.355  0.0722  0.0112  0.2055
26712W        W42606   7.446  12.084  12.977 -0.0130  0.0096  0.2271
26713W        W42607  15.953  12.081   3.580 -0.1861  0.1992 -0.1607
26714W        W42608  17.319   3.184  13.293  0.1534 -0.0919  0.0816
26715W        W42609  14.548   3.335   4.379  0.0335 -0.0568  0.2138
26716W        W42610  17.038   6.920  14.388  0.0136 -0.4934 -0.1053
26717W        W42611   3.860   9.708  10.862  0.2281 -0.1615  0.2581
26718W        W42612  10.157  12.629   1.868  0.0755  0.2059 -0.0673
26719W        W42613   0.449   5.839  13.862 -0.0367 -0.3073  0.1756
26720W        W42614   4.228   0.752  15.076  0.1551  0.0136  0.0533
26721W        W42615   0.154  10.771   4.025  0.1201 -0.0203  0.2599
26722W        W42616   4.332   7.143   4.900  0.0434 -0.0127 -0.1515
26723W        W42617   3.054   5.402  13.699  0.0266  0.1340 -0.0232
26724W        W42618  14.850   2.831  10.322 -0.0369 -0.0527  0.1250
26725W        W42619   4.647  12.710   1.964  0.2384 -0.0192  0.2291
26726W        W42620  18.316   2.021   2.783 -0.2003 -0.4254 -0.0718
26727W        W42621   9.300   7.841  11.069  0.0286  0.1110 -0.1914
26728W        W42622  17.483   9.345  14.303 -0.0248 -0.1080  0.1184
26729W        W42623   9.262  14.061   0.196 -0.3786  0.2693  0.2927
26730W        W42624   0.875   3.291   4.667 -0.1170  0.1136 -0.1017
26731W        W42625   4.895   8.594   9.875  0.3313 -0.2103 -0.2337
26732W        W42626   7.553   8.913  13.012 -0.3756  0.1934  0.0445
26733W        W42627   6.548  15.736  14.409 -0.0924 -0.2408 -0.0456
26734W        W42628  17.741  13.765   0.300 -0.1127  0.1410 -0.0987
26735W        W42629   0.724   6.438   2.311 -0.0616 -0.0989  0.1278
26736W        W42630   1.381   7.075   1.089  0.2271  0.3116 -0.0003
26737W        W42631  17.061  10.259   4.249 -0.2530 -0.0070 -0.1708
26738W        W42632   7.678  11.250   2.138  0.1132  0.3145  0.4666
26739W        W42633   7.629   5.378   1.912  0.1343 -0.3564 -0.1871
26740W        W42634  17.861  12.905  14.379  0.4729 -0.0206 -0.1386
26741W        W42635   8.492  13.561  10.207 -0.2067 -0.4048  0.1901
26742W        W42636  17.179   8.184  11.710  0.0355  0.2800  0.0931
26743W        W42637  12.999   4.296   0.512 -0.2820  0.0520 -0.2595
26744W        W42638   0.679  12.805  13.260 -0.0848  0.1101  0.1347
26745W        W42639   0.749   9.280   1.666 -0.0189 -0.0756  0.1165
26746W        W42640   7.268   1.415   0.897 -0.0225  0.1059 -0.0254
26747W        W42641  14.610  15.326  10.220 -0.2849  0.0645  0.0034
26748W        W42642  11.707   0.908   0.117 -0.2702  0.3317 -0.3745
26749W        W42643  14.593   1.835   4.583 -0.2947 -0.0056 -0.2679
26750W        W42644   0.281  10.831  13.809  0.2828 -0.4333  0.1461
26751W        W42645  14.971  16.007  14.942 -0.2743 -0.1473  0.2377
26752W        W42646   1.510   7.493   0.945  0.0723 -0.0752  0.2348
26753W        W42647  16.716   0.307  12.093  0.2298 -0.3812 -0.2109
26754W        W42648   7.451  12.446   4.582  0.1284 -0.0603  0.5910
26755W        W42649   6.282   6.633   5.354 -0.4327  0.1830 -0.0734
26756W        W42650   0.287   1.910   2.289  0.1222 -0.2046  0.0045
26757W        W42651  18.263   2.422  14.245 -0.0373 -0.0927 -0.0420
26758W        W42652   8.116   4.288   5.265 -0.0028 -0.2226 -0.3089
26759W        W42653   3.150   2.702   2.109  0.2315  0.1930 -0.1096
26760W        W42654   6.751   3.522  12.842  0.0375  0.1333 -0.1321
26761W        W42655   9.052   5.513   2.471 -0.2097  0.0660 -0.2709
26762W        W42656   6.387   4.095  13.975  0.1707  0.0126 -0.2214
26763W        W42657   6.988   2.184  11.301  0.3101 -0.0470 -0.1628
26764W        W42658  17.633   1.446  14.157  0.1591 -0.0433  0.1580
26765W        W42659  11.282  18.750   5.332  0.3243  0.1394  0.0790
26766W        W42660   0.825  15.180   4.247 -0.0200 -0.2443 -0.3419
26767W        W42661  13.669  17.114  14.105  0.0441  0.1546 -0.2820
26768W        W42662   9.079   3.323   1.476 -0.3283 -0.4034  0.1207
26769W        W42663   1.009   9.080   9.318  0.0280 -0.0591 -0.1723
26770W        W42664   7.612  17.685   0.205  0.0639 -0.1014  0.5471
26771W        W42665  11.343   8.656  14.748  0.0983 -0.0184 -0.0099
26772W        W42666   2.994   9.828   3.527  0.1016  0.0925 -0.1566
26773W        W42667  12.085   6.126   3.993 -0.5072  0.0528 -0.3770
26774W        W42668  11.812   4.199   4.728  0.2839 -0.0078  0.0004
26775W        W42669   1.748  11.007  13.905  0.0054 -0.2455  0.2593
26776W        W42670   2.769  11.150   1.456 -0.2276 -0.0863  0.1429
26777W        W42671  16.680   7.245  13.209 -0.4256  0.2099  0.2904
26778W        W42672   1.892   8.738   0.377  0.1177  0.0166 -0.2298
26779W        W42673   2.018   4.377   4.462  0.0396  0.2588  0.1225
26780W        W42674   0.227  17.933  10.557  0.2980 -0.0768 -0.1637
26781W        W42675   2.241  13.401   1.246 -0.0025 -0.0605  0.0949
26782W        W42676   2.271   1.141   4.344 -0.2502 -0.0024  0.1389
26783W        W42677  10.093   3.576   4.400  0.1624 -0.0013 -0.0194
26784W        W42678  18.982   0.812   4.477 -0.1447  0.0697  0.1910
26785W        W42679  12.216  17.110   3.898  0.1505  0.3147  0.0849
26786W        W42680  17.280   8.003   1.866 -0.4735 -0.1977 -0.0403
26787W        W42681   7.502  12.185   3.144  0.0039  0.0957 -0.2746
26788W        W42682  13.021  10.978   5.148 -0.0651 -0.0858 -0.3368
26789W        W42683  10.785   2.380  14.869 -0.0511 -0.2339 -0.2094
26790W        W42684   3.957   8.984   2.740  0.1313  0.0942  0.2987
26791W        W42685  13.282  10.092   2.768 -0.7233 -0.1951 -0.2083
26792W        W42686   7.484   5.611   0.015  0.2167  0.2842  0.2322
26793W        W42687  17.500  16.167   1.005  0.0716  0.0166  0.0007
26794W        W42688  13.834   1.237  12.191 -0.1862  0.2272 -0.2768
26795W        W42689   2.173  14.763   3.600  0.2044  0.0206 -0.1028
26796W        W42690   5.759  19.063   5.976 -0.1310 -0.0033  0.2846
26797W        W42691   6.719  15.333   2.066  0.1395  0.1787 -0.0996
26798W        W42692   3.298  12.925  10.076 -0.0704 -0.3130 -0.1251
26799W        W42693   9.749  13.083  12.126  0.4424 -0.2104  0.5090
26800W        W42694  15.951   8.284   3.733  0.3745 -0.0159 -0.1911
26801W        W42695  17.040   4.121   5.099  0.2037  0.0630 -0.1965
26802W        W42696  19.038   0.174   4.466  0.5783  0.0370 -0.2002
26803W        W42697   2.381   3.788  11.088  0.1042  0.1782 -0.0745
26804W        W42698  17.936   4.731   3.760  0.0089  0.0376  0.1317
26805W        W42699   2.037   5.284  11.123 -0.2795 -0.0238  0.1237
26806W        W42700  11.162   6.804   1.387 -0.0782 -0.2688  0.0138
26807W        W42701   1.177   9.949   3.218 -0.0958  0.1084  0.1516
26808W        W42702   0.570   9.971  11.470 -0.0166  0.1409  0.0492
26809W        W42703   2.162  19.173  12.128 -0.0016  0.0479  0.0849
26810W        W42704  18.654  17.841   0.808 -0.2162 -0.1468 -0.1795
26811W        W42705   4.954  16.598   2.460  0.0702  0.0859  0.0586
26812W        W42706  13.846  16.557   2.332 -0.2828  0.1300 -0.0612
26813W        W42707   3.060  14.703  11.360  0.0479  0.0657 -0.1031
26814W        W42708   2.648  13.042  12.752 -0.3919  0.1094  0.0089
26815W        W42709  12.388  12.215  13.256  0.0508 -0.0517  0.0106
26816W        W42710   6.619   2.057   1.069 -0.1341 -0.1817 -0.2274
26817W        W42711   7.131   2.818  14.191  0.0293 -0.1709 -0.0103
26818W        W42712   1.054  12.763   9.463  0.1927 -0.1481 -0.1085
26819W        W42713   5.070  13.952  14.145 -0.0642  0.1629 -0.0002
26820W        W42714   6.454  18.480   3.238  0.0346 -0.2423  0.2016
26821W        W42715  19.162   3.633  13.659  0.2245  0.1623  0.1166
26822W        W42716  12.607  14.058   3.434 -0.1884  0.3634 -0.0579
26823W        W42717  10.629  12.666   3.041  0.2367  0.2024  0.0601
26824W        W42718   4.502  14.853   3.622  0.1953  0.0285 -0.0874
26825W        W42719   4.069   5.332  12.261  0.1174  0.2016  0.0071
26826W        W42720   1.023   7.426   1.116  0.1260  0.0434  0.1946
26827W        W42721   9.436  11.054  11.948 -0.0720  0.0313  0.1329
26828W        W42722  12.306  13.926   4.161 -0.0920  0.0669 -0.0056
26829W        W42723   4.062  13.785  10.208  0.3744  0.0855 -0.0172
26830W        W42724   2.456  13.816   3.543 -0.2108  0.1444 -0.0964
26831W        W42725   0.846   9.076  12.662  0.2246 -0.0802 -0.2456
26832W        W42726  15.469  11.361  12.427  0.2847  0.2926 -0.0265
26833W        W42727  14.599   8.096   1.081 -0.1112  0.0342  0.0110
26834W        W42728   9.883   0.530   3.581  0.0717 -0.0886  0.3654
26835W        W42729   0.247  18.276   3.738  0.0059 -0.1323 -0.0045
26836W        W42730   9.442   9.357  12.440  0.2389  0.2614  0.1262
26837W        W42731  17.756   0.907   1.537  0.4995  0.1928  0.0622
26838W        W42732   7.771  15.296   0.375 -0.3650  0.1126 -0.0399
26839W        W42733   3.965   5.143  13.682  0.0059 -0.2329  0.0176
26840W        W42734  16.449  18.111   2.028  0.0666  0.0469  0.3906
26841W        W42735  11.809  10.598  15.101  0.2480 -0.1214  0.0455
26842W        W42736   3.252  10.458   0.130  0.3809 -0.1779 -0.2885
26843W        W42737  11.865   3.599   2.301 -0.1348  0.1021  0.0441
26844W        W42738  11.100  18.879  11.287 -0.0311 -0.3213  0.0988
26845W        W42739  11.580  18.475  12.493  0.1002  0.1697  0.3164
26846W        W42740  18.392   6.266  12.064 -0.2447  0.1327 -0.2216
26847W        W42741  14.241  16.235  13.953  0.0161  0.0164 -0.4326
26848W        W42742  13.197   0.411   2.189  0.2211  0.1394  0.0358
26849W        W42743   5.052   8.946  14.396  0.0137 -0.1958  0.0573
26850W        W42744   0.655  12.174   4.903 -0.1952  0.0197  0.0092
26851W        W42745  18.456   6.658   3.784 -0.2347  0.1466 -0.1323
26852W        W42746  16.217   9.018  14.390 -0.1965 -0.0153 -0.1086
26853W        W42747  18.329   9.736  14.345 -0.0089  0.0471 -0.0215
26854W        W42748  12.923   3.113   5.102 -0.4765  0.4094  0.1818
26855W        W42749   7.882  14.900  10.876 -0.0400 -0.0970 -0.1727
26856W        W42750   2.152  12.675   4.823 -0.0168 -0.0782  0.0848
26857W        W42751   5.075   1.486  13.313 -0.1435 -0.1906 -0.2756
26858W        W42752   1.968   5.911  12.778  0.4825 -0.2864 -0.1250
26859W        W42753  18.962  14.968  12.135  0.0999  0.0797  0.0803
26860W        W42754  15.678   0.872  13.573  0.0469  0.3823  0.0760
26861W        W42755  14.133  11.685  14.422  0.2042  0.2355  0.1131
26862W        W42756  15.739   3.367  12.356  0.1488 -0.1247  0.2924
26863W        W42757  12.663  16.202  11.487 -0.3576 -0.0524 -0.0535
26864W        W42758   4.704   4.025  12.688 -0.0043  0.0515 -0.0869
26865W        W42759   9.013   7.762   4.276 -0.1594 -0.2783 -0.0249
26866W        W42760  18.388   3.383  10.006  0.3826  0.0875  0.2155
26867W        W42761  17.077   2.406   0.884  0.0584  0.0537 -0.0269
26868W        W42762   7.506  12.282  14.903 -0.1471  0.0430 -0.1713
26869W        W42763  17.178  11.444   1.905 -0.1716  0.0103  0.0080
26870W        W42764  13.732   8.196  13.544 -0.0453 -0.2221  0.3459
26871W        W42765  17.804  14.733  11.757 -0.2257 -0.1854  0.0050
26872W        W42766   0.754   9.228   3.048  0.0850  0.1007 -0.0106
26873W        W42767   8.134  12.944  12.216 -0.0647  0.1455  0.0987
26874W        W42768   3.394   1.540  13.495  0.1723  0.2229 -0.0295
26875W        W42769   9.009   9.668  13.415 -0.2427 -0.0451  0.0677
26876W        W42770   4.205  11.359  10.934  0.0624 -0.0358  0.3709
26877W        W42771   0.125  10.070  13.191  0.0381  0.1831 -0.1443
26878W        W42772  11.928  16.395  14.790  0.1844 -0.1188 -0.0792
26879W        W42773   7.247   8.125  11.875  0.3052 -0.1778 -0.0303
26880W        W42774  15.131   5.966   0.384  0.2011  0.1556  0.2466
26881W        W42775  15.524   8.198  11.162  0.2509 -0.2752 -0.0493
26882W        W42776  19.174  16.639   3.863 -0.1028  0.4665  0.0132
26883W        W42777   0.668  18.519  12.009 -0.0148  0.0775 -0.0426
26884W        W42778   1.540   8.744   1.242  0.2971  0.3568 -0.2685
26885W        W42779   3.399  13.587  14.729  0.0965  0.3286  0.1194
26886W        W42780  12.911   6.327   2.303 -0.0340  0.1652  0.5042
26887W        W42781  18.773  12.117   3.299  0.1413 -0.0032  0.0088
26888W        W42782  18.804  13.095   1.271  0.2314 -0.1213  0.1299
26889W        W42783   1.888   1.994   0.688  0.1343 -0.2155 -0.0494
26890W        W42784  16.212  11.752  10.405  0.2971 -0.2354 -0.2651
26891W        W42785  10.290   7.437  11.285 -0.1112  0.1198  0.0441
26892W        W42786   8.881  18.821  10.700  0.2593 -0.1364  0.1284
26893W        W42787  11.810  10.352   4.798 -0.0347 -0.1124 -0.1520
26894W        W42788  16.410   7.548   1.943  0.0548  0.2025 -0.2140
26895W        W42789  11.552   4.187  12.927 -0.2610 -0.0935  0.3057
26896W        W42790   7.733   1.791   5.210 -0.4222  0.0155  0.3130
26897W        W42791  18.218  17.597  14.077 -0.0289  0.2053 -0.0897
26898W        W42792  15.400  18.802  14.698  0.1822 -0.3039  0.4300
26899W        W42793   9.079   6.996  11.436  0.0008 -0.2619  0.0396
26900W        W42794   4.461  10.013   1.486  0.2666 -0.0315  0.0374
26901W        W42795  14.963   6.800   3.672 -0.2333  0.2013  0.0443
26902W        W42796  13.900   3.973  11.840  0.1759  0.3233 -0.1062
26903W        W42797   9.841   7.860   4.953 -0.0304  0.0540  0.1727
26904W        W42798   9.191   7.821   5.742 -0.0671  0.0523 -0.0485
26905W        W42799   8.676   2.440  11.412  0.3386 -0.0690  0.2646
26906W        W42800  13.500   9.430  12.332  0.0313  0.1138 -0.2228
26907W        W42801   3.724  13.851   8.970 -0.1111 -0.0871  0.0539
26908W        W42802  11.590  13.008   4.602 -0.0747  0.1989  0.3745
26909W        W42803  17.566  14.313  14.590 -0.0631  0.0785 -0.1008
26910W        W42804   3.277   2.687   3.226 -0.1713 -0.3969  0.0910
26911W        W42805  15.566   8.741   3.640  0.0566  0.1228  0.1894
26912W        W42806   8.316  17.253  11.506  0.1380  0.0209  0.0089
26913W        W42807  14.441   7.142  12.309  0.1739 -0.1038 -0.1088
26914W        W42808  14.442   7.520  14.727 -0.2181  0.1708  0.3644
26915W        W42809   0.701  14.136  11.589 -0.2753 -0.2907 -0.1156
26916W        W42810  10.049  10.588  14.918  0.3504  0.0660  0.1930
26917W        W42811  13.999   6.974  14.694  0.0566  0.2117 -0.1043
26918W        W42812  15.342   1.950   1.704  0.0841  0.0037  0.0630
26919W        W42813   6.376  12.178   4.417  0.2770  0.0174 -0.0498
26920W        W42814   9.451  12.724  10.801  0.0131  0.0440 -0.0659
26921W        W42815   6.307   6.036   5.576  0.1132  0.2322 -0.1862
26922W        W42816  12.044   3.582  11.108  0.1197 -0.0140  0.3023
26923W        W42817   8.460  16.207  10.367 -0.0106  0.2645 -0.0062
26924W        W42818  10.382  15.636   2.043 -0.0728 -0.1143  0.2057
26925W        W42819  12.139   6.286   3.508  0.2133  0.0867  0.2009
26926W        W42820  11.597   9.352  11.781 -0.1525  0.1637  0.1134
26927W        W42821   7.487  18.400  11.825 -0.1583  0.0138 -0.1732
26928W        W42822   7.677   1.879   2.938  0.1385 -0.2238 -0.0079
26929W        W42823   9.004   8.796  13.308 -0.0001  0.0233 -0.2370
26930W        W42824  17.383   9.799   0.304  0.1091  0.1371 -0.1538
26931W        W42825  12.667   2.256  14.132 -0.3859  0.0302  0.0215
26932W        W42826   0.235  15.139  14.309 -0.0841 -0.2282  0.1407
26933W        W42827  17.887  18.530   3.212 -0.0961  0.2973 -0.4271
26934W        W42828   3.425   1.937  14.328 -0.1061  0.0296 -0.1712
26935W        W42829   8.192  14.746  11.235 -0.0137 -0.0437 -0.0765
26936W        W42830   1.303  18.347   1.695  0.1162 -0.2165 -0.0820
26937W        W42831  14.616   6.876   1.391 -0.0539  0.3366  0.1123
26938W        W42832  14.920   9.678   1.319 -0.0046 -0.2808 -0.1253
26939W        W42833   9.216  13.285  10.873  0.1423 -0.5954  0.0655
26940W        W42834  10.453   7.602   4.320 -0.7013 -0.2319  0.1753
26941W        W42835  18.969   7.414  13.380 -0.2356  0.1535 -0.1404
26942W        W42836  12.328  10.475  13.084  0.0242  0.0587  0.5197
26943W        W42837  18.348  11.499   0.946 -0.0623  0.2110  0.0593
26944W        W42838  19.077   2.268   0.307 -0.1340 -0.0349 -0.0237
26945W        W42839  14.544  16.583  12.747  0.1214  0.0597 -0.2302
26946W        W42840  18.661   3.277  14.857  0.2436  0.1816  0.1181
26947W        W42841  15.002  18.011  11.608  0.0741  0.4514 -0.0275
26948W        W42842  16.651  12.599   0.073 -0.0947 -0.1497  0.1407
26949W        W42843  12.851  14.530  13.663 -0.0160  0.1993  0.2242
26950W        W42844   7.133   9.366   0.784  0.0966  0.1814  0.0793
26951W        W42845   9.139  18.658   2.080  0.3745 -0.2843  0.0746
26952W        W42846  19.156  17.356   0.209 -0.1716 -0.2057  0.0326
26953W        W42847  13.962   6.143   1.509  0.2144 -0.0892  0.1327
26954W        W42848   5.114   3.700   2.285  0.1989 -0.1296 -0.1059
26955W        W42849   1.347   9.166  15.034  0.1261  0.0769  0.2066
26956W        W42850  12.576   8.370   1.322 -0.3260 -0.0383  0.1474
26957W        W42851  15.627   0.224   0.330  0.1041  0.0224 -0.2692
26958W        W42852  12.165  11.494  14.583  0.3832 -0.2737  0.0593
26959W        W42853   8.734   0.035   9.977 -0.0316  0.0774 -0.2272
26960W        W42854   3.283  13.897   4.944  0.0948 -0.1512  0.0507
26961W        W42855  17.825   2.932  13.754  0.0339 -0.3741 -0.0458
26962W        W42856   4.325   8.437  11.860  0.2492  0.1120 -0.0630
26963W        W42857   4.674  16.967  14.284 -0.0829 -0.3744 -0.0685
26964W        W42858   9.109  17.836  14.357 -0.0787  0.1032 -0.2306
26965W        W42859  16.482  12.682  11.593 -0.0812 -0.0422  0.1433
26966W        W42860   6.842   9.298  11.476 -0.0814  0.0027  0.0031
26967W        W42861   7.275   1.725  14.901  0.0694 -0.0519  0.2667
26968W        W42862   7.743   4.722   2.907  0.1021  0.6082 -0.2020
26969W        W42863  14.588   4.856   1.882  0.1607 -0.2360 -0.0758
26970W        W42864  18.193  16.389  11.276 -0.0474 -0.2824  0.0476
26971W        W42865  12.862  12.665   4.186  0.4049  0.1914 -0.1485
26972W        W42866   3.374   2.482  14.357  0.3313  0.2875 -0.2212
26973W        W42867   5.333   7.199   1.090  0.1298 -0.2612 -0.0317
26974W        W42868  10.391  12.027   4.403 -0.0049 -0.2344 -0.1407
26975W        W42869  16.828   3.093  13.413 -0.0221 -0.1918 -0.2873
26976W        W42870   3.395   4.077  13.217  0.0599 -0.2888  0.2390
26977W        W42871  14.604  14.504   0.391  0.1360 -0.0372 -0.2378
26978W        W42872  14.330   4.700  13.010 -0.0782  0.0532  0.3246
26979W        W42873   6.206   5.743  12.084 -0.4649  0.1469 -0.1338
26980W        W42874  12.614  10.874  11.775 -0.3936  0.3655  0.1768
26981W        W42875  11.125  14.977   3.219  0.0213  0.2685 -0.2419
26982W        W42876   4.185  19.060   4.877  0.1054 -0.2639 -0.0476
26983W        W42877  14.669  10.742   3.477 -0.1368 -0.2645  0.2257
26984W        W42878   3.971   9.884   3.522 -0.1495 -0.0979  0.1681
26985W        W42879  18.043  13.058  14.813  0.1797 -0.0073 -0.1358
26986W        W42880  16.550   2.500   1.489  0.0226  0.2468 -0.0431
26987W        W42881  13.665   1.166   4.715  0.1326  0.0175 -0.0759
26988W        W42882   8.728   2.689  13.222  0.3149 -0.0112 -0.1001
26989W        W42883  16.424  13.555   2.700 -0.0711 -0.3886 -0.1089
26990W        W42884   9.943   0.889  12.773 -0.0751 -0.2513 -0.1946
26991W        W42885  10.456   3.583  14.632 -0.1534 -0.2277 -0.0813
26992W        W42886  16.254   1.695   1.382  0.0088 -0.2067 -0.1129
26993W        W42887  10.443  16.533  12.665 -0.0899  0.2808  0.0979
26994W        W42888  15.610  17.913  12.328 -0.0161 -0.1010 -0.1605
26995W        W42889  12.767  11.224   0.686 -0.0586  0.0486 -0.2703
26996W        W42890  18.414  15.316  14.514  0.0494  0.0442  0.0965
26997W        W42891   3.333  10.707   4.046  0.2564 -0.0127 -0.0886
26998W        W42892   9.485  17.436   0.567  0.0438  0.3190  0.1580
26999W        W42893  17.428  18.820   0.298  0.2307  0.1477  0.2460
27000W        W42894  15.305   3.027   2.988  0.0214 -0.1164 -0.3457
27001W        W42895  19.152  17.329  11.474  0.1192  0.0202 -0.5541
27002W        W42896  10.412  10.874  11.977  0.0274  0.0947  0.2906
27003W        W42897  17.801   2.859   0.896 -0.2164 -0.0702 -0.3301
27004W        W42898   9.650  11.543   4.388 -0.1617  0.4045  0.1705
27005W        W42899  10.376  11.103  13.816  0.3931 -0.0498  0.0632
27006W        W42900  14.147  17.835   1.708 -0.5263  0.0151  0.1444
27007W        W42901   6.067   6.573   0.289  0.1227  0.2555 -0.2526
27008W        W42902  12.881  16.809  14.282  0.2132  0.0541  0.2045
27009W        W42903   4.822  10.254  13.306  0.0369 -0.1045 -0.0459
27010W        W42904   3.349   9.880  11.692  0.1603 -0.2646 -0.2470
27011W        W42905   2.212   5.919  14.238  0.1284 -0.3583 -0.3358
27012W        W42906   0.829  17.157  10.708  0.4144 -0.1800  0.1881
27013W        W42907   3.104  10.075  12.193  0.0823 -0.1567 -0.3081
27014W        W42908  14.371   8.747   3.226 -0.1032  0.4669  0.0980
27015W        W42909  12.454   7.892   1.518  0.1878  0.0008  0.0737
27016W        W42910  12.283  18.884   2.647  0.1174  0.3685  0.2496
27017W        W42911  14.504  10.032  10.875  0.0399  0.0119  0.0210
27018W        W42912   8.249  17.492  13.704 -0.2144 -0.1440  0.0954
27019W        W42913  19.008  17.775   1.974 -0.1569 -0.0315  0.1782
27020W        W42914   9.322  11.170  14.458  0.1957 -0.0718  0.2016
27021W        W42915   0.781  18.388   2.423 -0.3666 -0.2118  0.1507
27022W        W42916  17.694   0.725  14.163 -0.1017 -0.1133  0.1005
27023W        W42917  18.801   9.813  13.247  0.2229  0.0648  0.2706
27024W        W42918   4.003   1.167   3.371  0.0470 -0.0393  0.1748
27025W        W42919   4.032   1.860   0.838 -0.1080  0.1057  0.1705
27026W        W42920   5.552  18.734   0.918 -0.1287 -0.1550  0.1281
27027W        W42921  10.749  14.656  11.296 -0.2605 -0.2571  0.0816
27028W        W42922   6.075   1.563   0.175  0.0470 -0.0471  0.3459
27029W        W42923   0.440  16.608  11.857 -0.1240  0.0385  0.2763
27030W        W42924   5.979  15.223   1.704 -0.1627 -0.1552  0.2332
27031W        W42925   7.141   5.181  14.248  0.4588 -0.4534  0.0037
27032W        W42926   7.387   7.048   0.240  0.0699  0.6037  0.2289
27033W        W42927   5.993  13.847  13.081 -0.2270 -0.2367  0.0491
27034W        W42928   3.270  10.428  13.588 -0.3124 -0.1311 -0.1322
27035W        W42929   9.855   3.373   3.677  0.2974 -0.0613  0.1724
27036W        W42930   7.152   4.021   0.118 -0.1571 -0.1169  0.1639
27037W        W42931  17.557  15.438   0.945  0.0888  0.0423  0.2330
27038W        W42932  17.742   9.160   2.353 -0.4373  0.2575  0.0867
27039W        W42933  10.097  16.216   1.207  0.3176 -0.2698  0.2796
27040W        W42934  10.505  18.162  11.290 -0.1614 -0.0448  0.0854
27041W        W42935   8.144  18.904  15.092 -0.1577 -0.0836 -0.0066
27042W        W42936  18.767   2.237  14.152  0.0743  0.0109  0.1303
27043W        W42937  18.372  15.585  14.940  0.1181  0.0702 -0.0700
27044W        W42938  11.129   2.208   1.621  0.1318 -0.4250 -0.0121
27045W        W42939  10.134   7.925   4.558 -0.0788  0.1160 -0.0647
27046W        W42940  14.553  12.531  10.408 -0.0515 -0.2198 -0.1815
27047W        W42941  13.125  13.334   1.213  0.0142  0.1681 -0.1748
27048W        W42942  16.492   5.779  12.589 -0.0284 -0.0860 -0.0316
27049W        W42943  11.150   6.009   1.052  0.2336  0.1623  0.0796
27050W        W42944   5.332  15.974   1.518  0.0595  0.0654  0.0774
27051W        W42945   2.023  13.985   3.828  0.0988 -0.3506  0.0844
27052W        W42946  13.098  17.093  12.533 -0.1643  0.3186  0.0728
27053W        W42947  18.569  10.751  13.377  0.0456 -0.2200 -0.0510
27054W        W42948  18.571   5.503  11.381  0.1704 -0.0416  0.1389
27055W        W42949   3.610  15.081   2.272  0.0811 -0.1287 -0.3121
27056W        W42950   0.349   4.441   2.571 -0.1617 -0.1478  0.2791
27057W        W42951  12.969   9.579   5.093 -0.1408  0.1232 -0.2033
27058W        W42952   8.705  12.981   5.102 -0.2211 -0.0074 -0.1479
27059W        W42953   0.058   9.041  12.282  0.0346 -0.1246  0.3225
27060W        W42954  10.578   4.015   1.255 -0.2123 -0.0341 -0.0861
27061W        W42955  17.405   6.557  13.461  0.3784 -0.3239 -0.1058
27062W        W42956  18.669   3.316  11.334 -0.2418  0.0869 -0.1260
27063W        W42957   6.077  16.027   2.673 -0.2564  0.0001  0.0889
27064W        W42958   8.967   4.065   3.171  0.0664  0.4661 -0.2259
27065W        W42959   6.850  15.917   2.746  0.1683  0.2150  0.1060
27066W        W42960  17.277  14.633  10.505  0.1402  0.0523  0.1039
27067W        W42961  11.647   9.865  14.200 -0.1750  0.0176 -0.3599
27068W        W42962  15.177  13.619   2.712 -0.0665  0.2046  0.2002
27069W        W42963  19.087   1.227  11.773  0.4478  0.2595  0.1281
27070W        W42964  12.054   2.387   2.459 -0.0732  0.2602  0.2841
27071W        W42965   2.933   7.604  15.069  0.2128 -0.1616 -0.3939
27072W        W42966   6.312  15.796   3.048  0.4043 -0.0645  0.2084
27073W        W42967  18.397   7.958   0.091  0.3897  0.2025  0.1135
27074W        W42968   1.800   6.642   0.376  0.0407  0.1247  0.0959
27075W        W42969  16.701   3.327  13.866 -0.0967 -0.0496 -0.1259
27076W        W42970  12.954   5.206   2.081 -0.1975  0.2089 -0.3026
27077W        W42971  12.615  11.192   4.828  0.1152 -0.0488 -0.0151
27078W        W42972   2.022  14.611   9.397 -0.2989  0.0655  0.0847
27079W        W42973   0.664   2.546  11.893 -0.0244 -0.0691  0.0395
27080W        W42974   7.722   0.432  12.924  0.2128 -0.1112  0.0712
27081W        W42975  13.310  12.775   3.851 -0.2428  0.0993  0.1315
27082W        W42976   9.880  13.068   2.691 -0.4496  0.0410 -0.0676
27083W        W42977  14.074   1.846   2.487  0.4088  0.1663  0.1293
27084W        W42978   4.992   9.589   5.148 -0.1363 -0.2046  0.0932
27085W        W42979  16.468  18.051   0.399  0.1486 -0.0424  0.2201
27086W        W42980   4.962  10.933   3.432 -0.1990  0.0725  0.4291
27087W        W42981   7.334   9.050  12.403  0.2215  0.1571  0.2134
27088W        W42982  12.519  18.940   4.431 -0.4295  0.0341  0.0070
27089W        W42983  14.204   3.960  14.871 -0.1702 -0.3202  0.0045
27090W        W42984   8.644   5.437   3.379  0.2206  0.0179 -0.0080
27091W        W42985  17.827   4.719  11.281 -0.2417  0.1250  0.0460
27092W        W42986   4.309   5.275  12.827 -0.0538 -0.1426 -0.2020
27093W        W42987   0.555  15.504   2.920 -0.0262  0.4751  0.1135
27094W        W42988  10.039   7.708  14.649 -0.2181 -0.1945 -0.0896
27095W        W42989  14.961   8.550  12.924  0.0447  0.1914  0.3584
27096W        W42990  17.954   1.519  13.215 -0.1182 -0.4831  0.0194
27097W        W42991  18.208  13.729  11.851 -0.2636  0.1541  0.0810
27098W        W42992  12.902   1.262   2.384 -0.0551  0.1896 -0.0527
27099W        W42993  18.215  18.307  11.905 -0.1384 -0.0695  0.2527
27100W        W42994   1.351   1.115   2.259  0.1299 -0.1694  0.2871
27101W        W42995   6.224  16.514   0.781 -0.2364 -0.1707  0.2862
27102W        W42996  17.758   5.727   2.668 -0.0761 -0.1480  0.0463
27103W        W42997  12.126   9.304   3.771  0.0084 -0.0437 -0.1194
27104W        W42998   1.564  16.107   9.621  0.1645  0.0630 -0.1238
27105W        W42999   3.186   5.569  12.426 -0.2167 -0.0408  0.0048
27106W        W43000  19.034   7.248   2.906  0.0005  0.1063 -0.1877
27107W        W43001   2.811   4.600   0.410  0.0398 -0.2319  0.1476
27108W        W43002  15.890  12.376  11.527  0.0498  0.4187  0.3912
27109W        W43003  18.146  16.726   3.889  0.1109  0.0986 -0.2499
27110W        W43004   1.188   3.840  12.097 -0.0014  0.1438 -0.2936
27111W        W43005  18.840   4.504  13.997  0.0928  0.1136  0.0297
27112W        W43006  14.722  11.618  10.438 -0.3553  0.0739  0.1050
27113W        W43007   2.648   2.987   4.710  0.0938 -0.0564  0.0001
27114W        W43008  15.211   2.927   0.194 -0.0494  0.0902 -0.1456
27115W        W43009  11.324  16.414   0.861 -0.0559  0.1187  0.2278
27116W        W43010   7.733   6.563  13.120 -0.0403  0.0936  0.0378
27117W        W43011   0.308   6.000   3.025  0.0655 -0.3198  0.1498
27118W        W43012  10.861  12.408   4.519  0.0127 -0.0814  0.0848
27119W        W43013  14.481   6.220   4.548  0.2552  0.2068  0.1194
27120W        W43014   6.004   7.996  14.526 -0.2551  0.0793  0.0082
27121W        W43015  12.037  14.954  13.386 -0.4416 -0.0461  0.1092
27122W        W43016  16.742  12.754   5.313  0.2343 -0.1396 -0.1946
27123W        W43017   2.611   6.345   4.906 -0.2155  0.0171  0.2490
27124W        W43018   2.942   7.734  10.954  0.2588  0.1290 -0.1662
27125W        W43019  11.054   0.856  13.555 -0.1769 -0.0389  0.1916
27126W        W43020  14.515   7.368  11.759 -0.0464  0.0966 -0.0230
27127W        W43021   4.866   5.174   0.678  0.2368 -0.0447  0.1220
27128W        W43022   3.302  17.364  10.539  0.0623 -0.0559  0.1904
27129W        W43023  10.393  19.203   1.869 -0.1344  0.0230  0.0431
27130W        W43024  17.507   3.190  11.213  0.0487  0.1626 -0.1371
27131W        W43025   5.846  14.260   0.740 -0.4797 -0.1196  0.2939
27132W        W43026  10.386  13.855   9.740 -0.0413  0.2884  0.4318
27133W        W43027  10.628  17.779  13.968  0.1705  0.5406 -0.3894
27134W        W43028   8.629  13.208  14.457 -0.0400 -0.0747 -0.3385
27135W        W43029  12.558   3.188   4.550 -0.2859 -0.1763  0.5553
27136W        W43030   3.886   2.568   3.440 -0.0933  0.4807 -0.1767
27137W        W43031   3.048   2.594   4.648  0.3122 -0.2847 -0.1634
27138W        W43032   1.398  15.312   4.255 -0.2142  0.2421  0.0496
27139W        W43033  13.117  13.038  14.314 -0.1183 -0.0630  0.1541
27140W        W43034  16.707  12.984  14.512 -0.0815  0.3244  0.3534
27141W        W43035   1.166   6.413  13.550  0.2448  0.3001 -0.2616
27142W        W43036  18.311  10.386  13.537  0.0232  0.0352  0.0791
27143W        W43037  17.606   5.901  11.992  0.2169  0.0361  0.0798
27144W        W43038   9.062   2.294  14.701 -0.3266  0.0675  0.1555
27145W        W43039  11.758   8.387  13.408 -0.1650  0.0802  0.0685
27146W        W43040  13.308   7.921  13.335 -0.4396  0.1951  0.1804
27147W        W43041  13.527   9.645   2.896  0.1141  0.1887 -0.1131
27148W        W43042   2.431  10.152   4.456 -0.1262 -0.1697  0.0146
27149W        W43043  13.130   2.761  11.725  0.0381  0.0415  0.3986
27150W        W43044   7.449  15.917  10.174 -0.3466  0.4714  0.0043
27151W        W43045   8.523  16.375  14.415 -0.0742  0.0322 -0.3978
27152W        W43046   4.253  15.273  13.333  0.1778  0.0826 -0.0583
27153W        W43047  10.668   5.285  14.375  0.1040 -0.4475 -0.1928
27154W        W43048  17.368  14.008   5.406 -0.0300  0.4182  0.2089
27155W        W43049   9.191   1.507   9.539 -0.1122 -0.3150  0.0679
27156W        W43050   3.089  16.995   4.803 -0.0896  0.0763 -0.0790
27157W        W43051   5.809   8.329  11.290 -0.1166 -0.2440 -0.2123
27158W        W43052   5.363  12.691  10.666 -0.1529 -0.0527  0.1912
27159W        W43053  12.563   7.271  14.282 -0.0931  0.0241  0.2139
27160W        W43054  16.638  11.615  14.989 -0.1682 -0.1684  0.0457
27161W        W43055  17.800  14.195   5.247 -0.0206  0.0284  0.0209
27162W        W43056   0.842   1.723   9.962 -0.0245  0.1235 -0.0703
27163W        W43057  16.364   7.887   4.374 -0.3546  0.0420  0.0462
27164W        W43058  15.639   2.154  14.833 -0.1719  0.0861  0.0201
27165W        W43059   5.642  10.668   2.493  0.0040  0.0183  0.3455
27166W        W43060   2.753   5.765   3.990 -0.2723 -0.0026  0.1237
27167W        W43061   3.878   4.613  13.857  0.2561  0.1183 -0.2647
27168W        W43062   2.890  14.235   4.657  0.1208 -0.0313  0.0882
27169W        W43063   1.960   3.872   5.233  0.2319 -0.0563 -0.0415
27170W        W43064   5.668   4.444  12.700 -0.1208 -0.0378  0.0283
27171W        W43065   7.530  18.800   4.523  0.0245 -0.0237 -0.1029
27172W        W43066  15.534  15.609   2.655 -0.2151 -0.0261  0.2756
27173W        W43067  10.967   9.849  12.387 -0.0916 -0.2964 -0.3611
27174W        W43068  10.657   6.643  14.395  0.0097  0.0469 -0.2528
27175W        W43069   2.061   2.421   3.381  0.0421 -0.0214  0.2450
27176W        W43070  18.577  18.686  12.969 -0.0432 -0.0786 -0.2298
27177W        W43071  18.160   2.188   1.831  0.1741 -0.0582  0.0657
27178W        W43072  10.427  18.861   3.774 -0.2746 -0.1063  0.1264
27179W        W43073   8.458  11.985  13.424  0.0172 -0.2468 -0.1775
27180W        W43074   2.347  18.972  13.395  0.1955 -0.1828  0.0315
27181W        W43075   0.466  16.385  10.608  0.0023  0.0269  0.0741
27182W        W43076   5.020   1.269   1.893 -0.0796  0.0167  0.0737
27183W        W43077   2.794   0.618   2.037  0.2827  0.0594  0.3140
27184W        W43078   2.489  15.838   4.343 -0.0462  0.3711  0.2476
27185W        W43079  17.150   9.882   0.753  0.2141 -0.1086 -0.1014
27186W        W43080  15.884   7.248  10.318  0.3437  0.0647  0.0415
27187W        W43081  10.307   9.289  13.839  0.1175  0.2213 -0.0673
27188W        W43082  12.751  12.841   2.322  0.3084  0.4072  0.0160
27189W        W43083  12.451  14.124   1.907 -0.1338 -0.0359 -0.3543
27190W        W43084  11.205   7.028   5.001 -0.2016  0.0669 -0.0344
27191W        W43085   2.787  18.283   3.465  0.2332  0.1569 -0.2239
27192W        W43086  14.146   6.825  13.130  0.0153  0.1734  0.0486
27193W        W43087  11.746   7.536   1.908  0.0160  0.1417  0.2017
27194W        W43088  15.092   0.758  13.818  0.0995 -0.1386  0.2154
27195W        W43089  11.175   8.009   4.292  0.0280  0.0479 -0.0886
27196W        W43090  17.005   5.816  14.373 -0.1464 -0.2398 -0.0356
27197W        W43091  15.097  18.264   2.593 -0.2265  0.2232  0.0800
27198W        W43092  12.230  16.930   1.887 -0.0602  0.0793 -0.0032
27199W        W43093  11.142   9.663  14.087 -0.4679 -0.1253  0.1477
27200W        W43094   8.072  10.371  13.509 -0.1843  0.1896 -0.2323
27201W        W43095  13.052   0.139  14.215  0.0368 -0.2152  0.0062
27202W        W43096  18.311   6.267   4.123 -0.1519  0.2643  0.0876
27203W        W43097   7.954   9.247   0.387 -0.0585  0.2207  0.0122
27204W        W43098   9.252   3.771   3.512  0.1080 -0.2296  0.1112
27205W        W43099  18.272  12.131   1.830  0.1505 -0.0192  0.1995
27206W        W43100  13.790   9.336  10.914  0.4960 -0.2150  0.1978
27207W        W43101   2.693   2.767  11.583  0.2259  0.1790 -0.1538
27208W        W43102   7.114   2.791   0.760 -0.1864 -0.2047 -0.0965
27209W        W43103  15.650  14.152   4.851 -0.0527  0.2328 -0.2693
27210W        W43104   6.507   5.529   0.959  0.1249  0.1644  0.1947
27211W        W43105  13.500  11.113  13.208 -0.3025  0.1256  0.0732
27212W        W43106  14.366  16.381  10.697 -0.2477 -0.3060 -0.0898
27213W        W43107  18.766   4.628  14.874 -0.0429  0.0634  0.1036
27214W        W43108   9.808  14.692   0.306 -0.2727  0.2005 -0.0992
27215W        W43109   1.744   7.967  15.042 -0.1719  0.1183  0.0885
27216W        W43110   7.320  11.922   1.607 -0.3456  0.0236  0.0405
27217W        W43111  18.018   8.557   4.872  0.2921 -0.2336  0.0230
27218W        W43112   5.714   6.837  13.627  0.0652  0.1582 -0.0667
27219W        W43113  18.376   6.230  14.588  0.1813 -0.1856  0.0557
27220W        W43114  15.155   8.766  11.785  0.0768 -0.0400  0.0838
27221W        W43115  12.891  15.647  12.591  0.1438  0.2130  0.1242
27222W        W43116  12.315  13.684  14.965  0.2382 -0.0934 -0.2379
27223W        W43117   6.179   6.810   2.430 -0.0893  0.1696 -0.1115
27224W        W43118   4.756   4.195  14.536  0.4190 -0.0120 -0.1405
27225W        W43119  14.789   3.081  14.428 -0.0767 -0.0784 -0.1099
27226W        W43120  15.826  13.957   0.388  0.1650  0.0028  0.0884
27227W        W43121   6.209  14.361   2.516  0.0777  0.0311 -0.0896
27228W        W43122   5.675  16.981   4.623 -0.2826  0.0448  0.2497
27229W        W43123   0.463   0.610   0.424 -0.0467  0.3500 -0.0731
27230W        W43124   4.141   2.703   1.312 -0.4626  0.3598 -0.0304
27231W        W43125  14.256   6.385   2.617 -0.2435  0.1277 -0.2572
27232W        W43126   8.594  10.600   4.833 -0.1656 -0.5096  0.1217
27233W        W43127   5.429  15.861  12.941  0.0561  0.2333  0.0396
27234W        W43128   1.429   6.423  12.732 -0.1421 -0.1038 -0.0227
27235W        W43129  15.456   0.677  10.293 -0.0401 -0.0337  0.0973
27236W        W43130   1.491  14.048  12.896 -0.1900  0.0753 -0.0077
27237W        W43131   4.882  17.771   5.084 -0.0480 -0.1473  0.0545
27238W        W43132  12.236   5.679   4.189  0.3170  0.1571  0.0677
27239W        W43133  19.188   8.747  12.766  0.0840 -0.1611 -0.0382
27240W        W43134   2.491   4.963  13.485 -0.0003  0.1185 -0.0175
27241W        W43135   9.123  16.013  12.767 -0.0675 -0.0765 -0.1810
27242W        W43136   9.453  18.067  12.857  0.0257  0.1741 -0.1641
27243W        W43137  16.467  10.603  10.349 -0.3731  0.1341  0.0969
27244W        W43138   1.907   0.154  11.722  0.0519  0.1777  0.2470
27245W        W43139  13.518   9.089  15.020  0.1931  0.2759  0.0424
27246W        W43140  13.751   0.173  14.085  0.0745  0.0509 -0.1317
27247W        W43141  18.501   7.962   1.323  0.1548  0.1892  0.1186
27248W        W43142   2.178  12.457   1.785 -0.0733 -0.0533 -0.5194
27249W        W43143  13.130   0.810   5.496 -0.0707 -0.1771 -0.0512
27250W        W43144   1.945  15.308  12.730  0.1455  0.0497  0.0282
27251W        W43145   9.066  11.487  11.213 -0.1597  0.0018  0.1992
27252W        W43146  13.132   8.372   5.198 -0.3095  0.1796  0.0790
27253W        W43147   8.158   9.675   2.830  0.0533 -0.1503  0.0827
27254W        W43148  17.552  14.479  13.662  0.1597  0.0859  0.3198
27255W        W43149   0.150   9.085  11.805  0.2919 -0.1229 -0.1822
27256W        W43150  16.937   1.470   0.704  0.0995  0.2756  0.0574
27257W        W43151   5.829   0.571   0.880 -0.1771 -0.1862 -0.1959
27258W        W43152  13.101  16.038   3.460  0.5432  0.0261  0.2198
27259W        W43153   3.591  16.428   3.781 -0.0386  0.0362  0.1834
27260W        W43154   3.170   5.963  15.035  0.2346 -0.3265  0.1569
27261W        W43155   8.022  15.786   4.167 -0.2611 -0.2122 -0.1714
27262W        W43156  12.010   4.025  12.533 -0.1776 -0.0792  0.0280
27263W        W43157  18.035  12.182   4.273 -0.2528  0.2247 -0.0196
27264W        W43158  11.783  10.662   5.733  0.3033 -0.0500  0.0418
27265W        W43159  15.063  18.500   5.393  0.3142 -0.0191  0.4055
27266W        W43160  13.674  19.167  12.990 -0.0002  0.0154 -0.1095
27267W        W43161   6.757  17.238  13.318 -0.0298 -0.2311 -0.2226
27268W        W43162   0.298  11.994   3.301  0.0149 -0.0734 -0.2144
27269W        W43163   7.837  15.658   2.856 -0.1453 -0.3132  0.0660
27270W        W43164  18.609   0.651  13.789  0.0485  0.0894  0.1456
27271W        W43165   1.656  15.789  12.905 -0.0257  0.3016 -0.0833
27272W        W43166   1.890   5.679   3.023 -0.0236 -0.0690 -0.0699
27273W        W43167   9.335   1.835   0.445 -0.0044  0.0027  0.2296
27274W        W43168   4.782  11.460   1.543  0.0598  0.2522  0.1102
27275W        W43169  11.266   6.599   3.750 -0.2751  0.4676  0.1217
27276W        W43170  17.136   1.084   0.236 -0.0532 -0.3095  0.0470
27277W        W43171  15.215  13.984   1.595 -0.2238  0.0237  0.1711
27278W        W43172  13.085   2.062   4.121 -0.2643  0.2791  0.1591
27279W        W43173  18.506  12.415  13.862 -0.0245 -0.0570 -0.1133
27280W        W43174   0.187  15.991   0.972 -0.3421  0.0245 -0.0614
27281W        W43175   5.308   1.745   1.529 -0.2533  0.0365  0.0379
27282W        W43176   7.365  10.119   4.227  0.1224  0.1671 -0.2414
27283W        W43177   3.162   1.917  10.044  0.1913  0.2235 -0.0636
27284W        W43178  12.649   6.655  14.489  0.1297  0.1161 -0.0171
27285W        W43179  14.662   2.607  14.601 -0.1090 -0.2928 -0.1495
27286W        W43180  18.580   7.565   1.009  0.1781  0.2853  0.0597
27287W        W43181   3.234  12.962   0.971  0.0236  0.0245  0.0820
27288W        W43182   2.331  10.208  12.893  0.1846  0.0949 -0.5007
27289W        W43183  17.084  12.668  10.241 -0.0158 -0.3059 -0.0288
27290W        W43184   0.967  14.958  14.475  0.2452  0.1277 -0.3511
27291W        W43185   4.934   2.944   1.050 -0.2425  0.2762  0.2531
27292W        W43186  10.710  18.324  13.836 -0.2447 -0.1537 -0.3299
27293W        W43187  15.562   7.928  12.794  0.2103 -0.3123 -0.1285
27294W        W43188  12.264   5.694  13.535  0.2085  0.0988 -0.1043
27295W        W43189   2.082   2.109   2.876  0.0376 -0.0273 -0.0951
27296W        W43190   8.622   4.815   3.035 -0.3763 -0.0426  0.3320
27297W        W43191   7.207  17.254   2.439 -0.0495  0.2106  0.0882
27298W        W43192   9.491  13.005  14.510  0.0771  0.0721  0.0013
27299W        W43193   9.668  15.954  11.101 -0.1386 -0.0014  0.0434
27300W        W43194   5.097   7.050  14.947 -0.5065 -0.0532 -0.2395
27301W        W43195  13.605  18.054   9.907  0.0414 -0.2532  0.1290
27302W        W43196  15.417   4.018  14.045  0.0963  0.0165 -0.2080
27303W        W43197  16.687   3.803  13.579 -0.2611  0.2696  0.3462
27304W        W43198  14.873   4.189  13.300  0.0425 -0.2544  0.0960
27305W        W43199   0.597  11.189  12.196 -0.0945 -0.3256 -0.1797
27306W        W43200   9.146   9.711   3.722 -0.1423 -0.1035  0.0119
27307W        W43201  18.297  18.114  12.399  0.1714  0.1526 -0.0639
27308W        W43202   6.460  18.029   4.958 -0.1522 -0.1526  0.0498
27309W        W43203  11.142  19.060  10.422 -0.0503 -0.0334  0.3596
27310W        W43204  15.365   3.644   0.757  0.2186 -0.1815  0.1687
27311W        W43205  14.621  18.794  13.464 -0.3844 -0.0461 -0.3197
27312W        W43206   7.748   6.937  11.481 -0.0435 -0.4482  0.0372
27313W        W43207  11.388  18.554   4.131  0.2766 -0.1433 -0.1990
27314W        W43208  18.290  11.727  12.674 -0.3428  0.0076 -0.3468
27315W        W43209   5.295  18.692  12.911 -0.4381 -0.0279 -0.0573
27316W        W43210  16.475   2.287   3.212  0.2323  0.3210 -0.2450
27317W        W43211  13.095  13.989  11.218 -0.0972 -0.2577 -0.0483
27318W        W43212   0.010  14.878   5.190 -0.0044  0.0297  0.1631
27319W        W43213   3.479  16.672   0.235 -0.0410 -0.2963  0.0655
27320W        W43214   3.682   2.060  12.357  0.1477 -0.1084 -0.3787
27321W        W43215   5.185  15.022   4.135 -0.1158 -0.0225  0.0695
27322W        W43216  11.283  16.925   0.821  0.2045 -0.3268  0.0662
27323W        W43217   1.561  14.065   0.877  0.4219  0.1249  0.2881
27324W        W43218  15.011   9.892  13.962  0.1450 -0.1213 -0.0412
27325W        W43219   1.220  15.374  14.193  0.1785  0.0496 -0.1721
27326W        W43220   5.467  16.986  14.714  0.0639  0.1328 -0.0885
27327W        W43221  10.816  14.252  14.627  0.0679  0.0640  0.1093
27328W        W43222  11.049  15.246   1.381 -0.1021  0.0740 -0.0992
27329W        W43223  18.206   2.095  14.645  0.0721  0.0426  0.1876
27330W        W43224  15.708  17.085   2.618 -0.2036  0.3777 -0.0170
27331W        W43225  17.776   2.571  14.118  0.1808  0.1796  0.2617
27332W        W43226   8.736  18.390  11.621  0.0892 -0.3116 -0.2063
27333W        W43227  11.636   6.075  11.630  0.3117  0.0360 -0.1026
27334W        W43228   8.301   7.473  10.876 -0.0563 -0.3518 -0.0198
27335W        W43229  18.501  10.047   4.764 -0.0436 -0.2057 -0.3333
27336W        W43230  16.449  16.607   3.855 -0.3166 -0.0030 -0.1049
27337W        W43231   3.053   9.188   2.894 -0.4325  0.1713 -0.1475
27338W        W43232   7.254   9.722  11.266  0.3261 -0.0311  0.3594
27339W        W43233  13.762   2.881   0.690  0.2009  0.1449 -0.5157
27340W        W43234  10.690   3.442   3.261 -0.0327 -0.0644 -0.0656
27341W        W43235   1.245   9.350  13.030 -0.1353  0.2254 -0.4835
27342W        W43236  17.233  16.108   2.166  0.1886  0.0894 -0.2046
27343W        W43237   4.070  15.963   1.341  0.4180  0.1856 -0.3241
27344W        W43238   2.504  18.820  14.859  0.1416 -0.0912 -0.3574
27345W        W43239   6.323  10.577   3.221  0.0619 -0.1439  0.2729
27346W        W43240   8.726   3.226   2.129 -0.2343 -0.0196 -0.1073
27347W        W43241   9.298  12.741  13.984 -0.3731  0.1096  0.0372
27348W        W43242  16.201  12.570  10.520 -0.1346  0.1070  0.1234
27349W        W43243  15.812   2.535  13.911 -0.1514  0.1055  0.2101
27350W        W43244   3.979   1.699   1.319  0.0335  0.0334  0.1556
27351W        W43245   8.430  14.369   4.004 -0.1454  0.3972  0.0612
27352W        W43246  12.690  15.230   4.835  0.1211  0.1310  0.1064
27353W        W43247  18.122  15.795   3.840 -0.0275 -0.1068  0.0367
27354W        W43248  10.165   6.796   4.520  0.3266 -0.0436 -0.1044
27355W        W43249  16.625  13.647  11.212 -0.0009 -0.0016 -0.2351
27356W        W43250  17.373   2.703  14.857  0.0966  0.1416 -0.1023
27357W        W43251  18.104   8.235  14.496 -0.1483 -0.0487 -0.1305
27358W        W43252  17.021   2.938  10.787 -0.0462  0.2116 -0.2972
27359W        W43253  10.056  16.011  11.948  0.0501 -0.0499  0.1097
27360W        W43254  10.399   1.545   5.005  0.1147  0.1028 -0.1123
27361W        W43255  18.519   4.033  13.420 -0.2523 -0.2614 -0.0359
27362W        W43256  19.099   7.773  11.685 -0.2162 -0.1445 -0.0223
27363W        W43257  15.052   1.824   0.400  0.2459 -0.0919 -0.1114
27364W        W43258   8.346   9.342  14.551 -0.3927  0.0463 -0.1704
27365W        W43259  12.755  11.627   4.564  0.0723 -0.1269  0.1022
27366W        W43260  15.384   6.749  13.457  0.0169  0.3064  0.2688
27367W        W43261   3.149   6.150  10.063  0.0563 -0.1059  0.0719
27368W        W43262  15.029  12.610  13.592 -0.2717 -0.1877 -0.0674
27369W        W43263  14.567   8.861   4.982  0.0158  0.0153  0.0253
27370W        W43264  14.351  15.240   2.409 -0.5694  0.0522 -0.0710
27371W        W43265  10.006   8.450   1.512  0.0368 -0.1044 -0.3745
27372W        W43266   8.934   7.390  11.964 -0.0569  0.1335 -0.3810
27373W        W43267   0.371  11.623  14.392  0.2748 -0.1890 -0.0111
27374W        W43268  10.045   1.985   3.039 -0.2070  0.5461  0.1050
27375W        W43269   6.668   0.633  10.439 -0.1225  0.0260  0.0590
27376W        W43270   5.737   1.821  11.429 -0.0630 -0.0851  0.2417
27377W        W43271  17.315   1.003   2.701  0.0575  0.1134 -0.0867
27378W        W43272  13.457  11.627  15.085 -0.4587 -0.3084 -0.3759
27379W        W43273   8.521   2.556   1.270 -0.3531  0.1812  0.0087
27380W        W43274  17.088  14.564   3.030  0.1696  0.0809  0.0004
27381W        W43275   7.117  19.004  14.195 -0.0867 -0.0696  0.5302
27382W        W43276  13.879  14.537   4.248  0.1244  0.0823  0.1417
27383W        W43277  10.963  18.904   4.153 -0.3601  0.1446 -0.3388
27384W        W43278  13.734  16.855   3.756 -0.3447 -0.0830 -0.0495
27385W        W43279  16.344  11.590  14.412 -0.4755 -0.0149  0.1906
27386W        W43280   4.326   2.502   2.012 -0.3285 -0.1281 -0.0092
27387W        W43281   9.570   7.339  13.138  0.1625 -0.0321 -0.2916
27388W        W43282   1.440   6.024   0.928  0.0260  0.1697 -0.3926
27389W        W43283   7.109   3.321   4.265 -0.0054 -0.0493 -0.1813
27390W        W43284   7.828  14.020  14.738 -0.1393  0.3081 -0.1156
27391W        W43285  12.741   3.287  11.609  0.2309  0.2324  0.1485
27392W        W43286   9.172   4.456  12.428  0.1765 -0.2371  0.1481
27393W        W43287  16.936   5.087  12.085  0.1122 -0.0616  0.1988
27394W        W43288  11.792  13.664  11.149  0.0552  0.4681 -0.0265
27395W        W43289   7.152  18.819  12.192 -0.1750  0.1141 -0.2120
27396W        W43290   4.486  18.549   5.265  0.2801  0.0716  0.1054
27397W        W43291  17.917  14.129  10.347  0.0449 -0.3006 -0.1288
27398W        W43292   8.637  13.593  14.789  0.2004 -0.2422 -0.0872
27399W        W43293   1.520   0.041  13.389  0.1031 -0.1737 -0.1089
27400W        W43294  14.932   7.128  12.237 -0.0987  0.6134  0.4700
27401W        W43295  18.033  11.120   5.404 -0.2020 -0.0971  0.0319
27402W        W43296  11.457   1.464  10.445  0.3753 -0.2573 -0.4651
27403W        W43297  15.333   4.690   0.031  0.1330  0.0154  0.1565
27404W        W43298  15.062  18.164  10.241  0.0035 -0.0292 -0.3639
27405W        W43299   8.437   8.364  12.251 -0.1001  0.0754 -0.1784
27406W        W43300  12.988  10.887   0.205  0.0311 -0.0580  0.0052
27407W        W43301   3.142  12.601   3.716  0.0082 -0.0412  0.1300
27408W        W43302  13.134   8.061   2.976 -0.1132 -0.0042  0.1611
27409W        W43303   7.115  18.007  11.067 -0.0020  0.2731 -0.1840
27410W        W43304  14.364   3.849   1.568 -0.1011 -0.0192  0.1687
27411W        W43305   4.989   9.650  10.144 -0.1238  0.2602 -0.0330
27412W        W43306   3.293   2.060   0.190  0.0554  0.0931 -0.2042
27413W        W43307  17.713   1.607   4.242 -0.3238  0.1452 -0.0796
27414W        W43308   5.901   0.178   5.270 -0.0228  0.1243 -0.4448
27415W        W43309  18.057  15.515   4.845  0.0223 -0.3978  0.2170
27416W        W43310   8.220   4.593   5.646  0.3356  0.0014  0.0537
27417W        W43311   9.727  11.791   0.569 -0.0204  0.1004 -0.2621
27418W        W43312   4.914  10.216  11.633 -0.0056 -0.2107  0.1496
27419W        W43313   1.359  14.912  10.701  0.0572  0.1227 -0.0642
27420W        W43314  11.100   5.583  13.572 -0.0546  0.0593  0.1823
27421W        W43315  12.873   7.530  11.566 -0.3529 -0.0824  0.1820
27422W        W43316  16.645   7.468   0.311 -0.0646  0.1512  0.2766
27423W        W43317  13.935   7.419  13.860  0.0131 -0.0425 -0.2027
27424W        W43318  17.644   7.647   3.936 -0.1609 -0.0983 -0.0137
27425W        W43319   4.449  13.058  10.543 -0.1788 -0.1110  0.3312
27426W        W43320   1.764  15.337  12.136  0.2864  0.1898  0.1292
27427W        W43321   7.980  18.168  14.500 -0.1738 -0.0444 -0.5672
27428W        W43322  16.841   3.778  11.437 -0.2906  0.0633  0.1916
27429W        W43323  18.702  19.080  12.512 -0.1152 -0.0689 -0.0906
27430W        W43324   2.549   0.624   0.544 -0.1186  0.1447  0.0289
27431W        W43325  15.958   0.941   0.871  0.1259  0.1904 -0.0624
27432W        W43326   9.163   6.141  14.176  0.0913  0.0245 -0.1120
27433W        W43327   4.231   5.005   4.267 -0.0026  0.2128  0.0076
27434W        W43328   4.618   0.510  14.714  0.0774  0.0798  0.0135
27435W        W43329   9.589  19.019  14.968 -0.3191 -0.0294 -0.0518
27436W        W43330   3.408  13.206   9.686 -0.1185 -0.2490 -0.1095
27437W        W43331  13.830  10.019   0.041  0.1001  0.1120 -0.0167
27438W        W43332  11.807   8.764   2.384 -0.1514 -0.0708  0.1873
27439W        W43333  19.199   5.841   5.362  0.2103  0.2701 -0.0409
27440W        W43334  17.437   8.793  13.848  0.2751  0.4606 -0.1783
27441W        W43335  12.107  17.129  10.919  0.0780  0.3627 -0.0033
27442W        W43336  18.603  15.939   3.989  0.0126  0.0359 -0.1689
27443W        W43337   6.820   4.550  11.537  0.0136 -0.3645  0.0766
27444W        W43338  16.817  18.233   1.603  0.1627  0.0212 -0.4018
27445W        W43339  15.503   1.093   1.772  0.0870  0.2084  0.0458
27446W        W43340  13.467   2.487   1.926 -0.1126  0.2364  0.6168
27447W        W43341  14.019  16.496   4.220  0.1374 -0.0548  0.0768
27448W        W43342  14.912  19.159   1.909 -0.0824  0.1847 -0.2177
27449W        W43343   5.992   3.246   3.383  0.1219  0.1908  0.1904
27450W        W43344  17.102   2.100   3.986 -0.2589  0.0071  0.1976
27451W        W43345  12.285   7.706  12.386  0.0308  0.0560  0.2246
27452W        W43346   6.792   6.549  15.108  0.1633 -0.0169 -0.0086
27453W        W43347   4.970  12.606   0.227 -0.0355  0.0203  0.3214
27454W        W43348  14.433  15.007   4.080 -0.0842  0.0899 -0.2921
27455W        W43349  14.415   8.543   0.713  0.0026  0.1015 -0.0623
27456W        W43350  19.077   0.755   5.644  0.0702  0.1261  0.0706
27457W        W43351  12.770   4.882   2.420 -0.1227  0.1307 -0.2873
27458W        W43352  17.765   5.740   0.519 -0.1140 -0.0187  0.3937
27459W        W43353  16.105  14.825   1.744 -0.0973 -0.3715 -0.1670
27460W        W43354  11.787  11.393  13.253  0.2715 -0.1211  0.0717
27461W        W43355  13.211   4.865  12.313  0.2913 -0.2553 -0.1962
27462W        W43356  10.156  19.102  13.385 -0.0405  0.1206  0.3132
27463W        W43357  15.669   5.448   4.789 -0.0378  0.2346 -0.1668
27464W        W43358  16.154   7.260   3.551  0.0531 -0.1664 -0.2460
27465W        W43359   2.880  10.513  12.282  0.0994  0.0004 -0.0442
27466W        W43360   8.747  16.736  14.805  0.0093 -0.3581  0.0285
27467W        W43361  18.216   6.244   2.069  0.0514 -0.1845 -0.2874
27468W        W43362  17.979   5.227   1.416  0.1773  0.0138 -0.0729
27469W        W43363  17.238   7.041   1.567 -0.0402  0.1994 -0.3880
27470W        W43364   6.304  18.226   2.196 -0.0344 -0.2006 -0.0363
27471W        W43365   3.339   4.860  10.898 -0.1326 -0.2583  0.0189
27472W        W43366  10.073  11.572   4.713  0.2388 -0.0326 -0.0681
27473W        W43367  18.624  18.283  14.204  0.0488 -0.0522  0.0196
27474W        W43368  14.001  12.689  14.381  0.1671  0.0090  0.0934
27475W        W43369  14.509  15.044   1.406 -0.2884  0.0378 -0.3588
27476W        W43370  13.410   7.167  13.217  0.0849  0.1659  0.0029
27477W        W43371   1.522  11.873   1.373 -0.0106  0.1735  0.2234
27478W        W43372   0.052  13.958  10.564  0.0907 -0.1335 -0.2945
27479W        W43373  16.587  17.348  13.991  0.0545 -0.5391 -0.2471
27480W        W43374   5.483   9.817   1.960 -0.2839 -0.1578  0.0869
27481W        W43375   4.554   4.485  14.129 -0.1519  0.0595  0.0469
27482W        W43376   8.664   8.181   0.816 -0.1120  0.0048  0.0420
27483W        W43377   1.212   7.209   4.368 -0.2715  0.1978 -0.2205
27484W        W43378   2.944   5.378   4.756  0.0000 -0.0181  0.0386
27485W        W43379   9.414   1.096  13.105  0.1872 -0.0728  0.3433
27486W        W43380  13.469  19.001  10.640  0.1832 -0.2032 -0.1994
27487W        W43381   4.836  17.371   2.854 -0.0992 -0.1064  0.0302
27488W        W43382   3.990   5.839  10.639  0.0249 -0.1875  0.2613
27489W        W43383   1.896  13.012  12.512  0.1100 -0.0166 -0.0694
27490W        W43384   5.323  19.159  11.542 -0.0915 -0.1407 -0.0161
27491W        W43385   6.870   8.179   5.241 -0.0422 -0.3336 -0.1120
27492W        W43386   1.011   5.745   2.195  0.3863 -0.3343  0.1084
27493W        W43387   1.606   7.205   3.242  0.2207  0.0861  0.0344
27494W        W43388  11.356   7.772   4.698 -0.2095  0.2066 -0.2606
27495W        W43389  10.955  15.909  12.107  0.1049 -0.2398 -0.0443
27496W        W43390   1.982  13.455  10.476 -0.1142 -0.0087  0.1741
27497W        W43391  17.896   3.099  12.008  0.0524  0.1675 -0.0323
27498W        W43392   3.907  10.193   4.543 -0.0447  0.4136  0.1682
27499W        W43393   0.934  14.412   1.007 -0.0294  0.1813 -0.2156
27500W        W43394  17.580   7.849  12.474 -0.1509 -0.0806 -0.2564
27501W        W43395  19.035   7.393  13.920  0.3109  0.1858  0.2196
27502W        W43396  10.961   3.216  10.607  0.0135  0.0444  0.1608
27503W        W43397  10.840  18.503   5.323 -0.1364 -0.2908 -0.0673
27504W        W43398   4.754   8.650   4.704 -0.1416 -0.0269  0.0931
27505W        W43399   6.442   1.821  11.984  0.1716  0.1813  0.0456
27506W        W43400  11.666   8.452  11.275  0.2802 -0.1713 -0.3171
27507W        W43401   1.857   1.265  13.418  0.0995  0.1470  0.2009
27508W        W43402   8.349   5.332   2.507 -0.1423  0.2955 -0.2072
27509W        W43403   1.993  17.046  13.669 -0.1588 -0.0047  0.0965
27510W        W43404   1.188   4.850   4.901  0.2218  0.1668 -0.2441
27511W        W43405   5.821  13.149  11.266 -0.0212  0.1486  0.0981
27512W        W43406  10.518   7.917   3.882  0.0137 -0.2821 -0.0888
27513W        W43407   1.372  10.070   0.161 -0.1866  0.0570  0.1323
27514W        W43408   3.915   1.158   1.214 -0.1120 -0.1606 -0.0077
27515W        W43409   0.216  18.317  11.916 -0.0061 -0.4777 -0.0079
27516W        W43410   5.464   5.385  14.984  0.0357  0.0544  0.0358
27517W        W43411  18.641  17.341  15.075  0.0565  0.2360  0.0040
27518W        W43412  14.473   2.234  14.920 -0.3317  0.1054 -0.0296
27519W        W43413   3.407  15.464   4.874  0.2031  0.1178 -0.1098
27520W        W43414  16.075  19.109  12.960 -0.1761 -0.2244  0.1452
27521W        W43415   4.781   3.406   1.198 -0.0012  0.0791  0.1192
27522W        W43416  11.304   8.989  12.654 -0.0710  0.1011  0.1431
27523W        W43417   0.790  10.052  14.673 -0.4890  0.2224 -0.1003
27524W        W43418   0.562  11.369   3.730  0.0956  0.2343 -0.3020
27525W        W43419   3.909  16.926   3.762 -0.1977 -0.0151  0.4386
27526W        W43420   1.520   8.981   1.768  0.0491  0.2960 -0.0536
27527W        W43421   0.189   0.636   3.114  0.0407  0.0756 -0.0632
27528W        W43422   0.049  11.564   4.495  0.0941  0.1377 -0.2198
27529W        W43423   0.497   4.799  12.115 -0.1997 -0.1908  0.0829
27530W        W43424   8.814   4.370  12.762 -0.3359 -0.0475 -0.1188
27531W        W43425   1.617  11.873   0.742 -0.3509 -0.0432 -0.2379
27532W        W43426  11.258  16.740  12.269 -0.3907 -0.1597 -0.0656
27533W        W43427   5.241  10.092   2.339 -0.1564  0.5077 -0.3087
27534W        W43428   6.597  14.292  12.231 -0.2507 -0.2444  0.0315
27535W        W43429  16.348  12.510  13.950  0.1055  0.0973 -0.0874
27536W        W43430  13.224   0.792  13.117  0.2024 -0.2849 -0.0462
27537W        W43431   5.991  14.921  10.725 -0.0524  0.0825 -0.2506
27538W        W43432   2.203   5.219   1.026 -0.1398  0.0478  0.0073
27539W        W43433  15.372   5.253  11.323  0.1124  0.1124 -0.1938
27540W        W43434   3.069   5.490   3.178 -0.0124  0.1282 -0.2340
27541W        W43435   3.603   4.667   1.580  0.0543  0.1681 -0.2363
27542W        W43436   1.718   4.804   2.367 -0.1257 -0.0594 -0.1605
27543W        W43437  10.452   2.996   0.564 -0.3038 -0.0027 -0.3306
27544W        W43438   6.978  11.025   3.228 -0.1974  0.3762  0.1094
27545W        W43439   3.106   5.964   0.460  0.3006 -0.0596 -0.0060
27546W        W43440  10.392  16.694   2.430  0.1449  0.1724  0.0479
27547W        W43441   2.805  10.263  10.893 -0.1063  0.1609 -0.1169
27548W        W43442   7.998   2.883   0.788  0.1863 -0.1323  0.1604
27549W        W43443   4.568   4.071   5.446 -0.1160 -0.4619 -0.1794
27550W        W43444   3.548  11.620  14.318 -0.1374  0.2496  0.0259
27551W        W43445   4.766   0.258   2.160 -0.0664  0.2161  0.2767
27552W        W43446  10.566   1.975  10.924 -0.2362  0.0595 -0.1234
27553W        W43447   2.849  17.070  14.077 -0.2839  0.3311  0.2593
27554W        W43448   8.025  11.725   3.401 -0.3138  0.0900 -0.0817
27555W        W43449   9.693   4.640   5.764 -0.1939  0.2353 -0.2971
27556W        W43450   5.655  15.081   9.933  0.1398 -0.2073 -0.1690
27557W        W43451   9.766   8.854   1.079 -0.0451 -0.0483  0.0569
27558W        W43452   8.246   3.340   2.292  0.0762 -0.3441 -0.3330
27559W        W43453   6.039   4.414   3.990  0.1722 -0.0297 -0.1549
27560W        W43454  18.459  12.034  11.849 -0.1050  0.0267 -0.2112
27561W        W43455  15.761   0.414  13.029  0.3228  0.2679 -0.2297
27562W        W43456  11.671   6.923   3.807 -0.1249 -0.0382 -0.0152
27563W        W43457   5.942   1.023   2.856  0.1358 -0.2209  0.2989
27564W        W43458   6.646  11.915   3.607 -0.6655  0.2523 -0.2885
27565W        W43459  12.515   4.427   4.023 -0.4409 -0.0583  0.2808
27566W        W43460   4.026   0.198   5.258  0.2371  0.2628  0.0531
27567W        W43461  18.793  13.033  14.789  0.0485  0.3505  0.2024
27568W        W43462   6.947   7.688   5.600 -0.0505  0.3158  0.0217
27569W        W43463  13.789   7.485   6.062  0.0414  0.2707 -0.0045
27570W        W43464  11.145  18.563  14.213 -0.0533  0.2900  0.0265
27571W        W43465  16.033   6.115   3.285 -0.2493 -0.3054  0.0920
27572W        W43466   8.098   5.233   1.295  0.1620  0.1589 -0.1400
27573W        W43467   5.539  14.072  10.839 -0.2783  0.1932 -0.1482
27574W        W43468   0.298   8.415  10.779  0.0304  0.0207 -0.0772
27575W        W43469   7.177   0.864  11.720 -0.1073  0.1809  0.1329
27576W        W43470   3.113  17.014  13.093 -0.3594  0.0276 -0.0652
27577W        W43471  14.760  15.415  10.704 -0.2495 -0.1340  0.0174
27578W        W43472  16.203  11.941  14.758  0.1583  0.1223  0.2579
27579W        W43473  15.427  11.879   3.842  0.0272  0.2348  0.1465
27580W        W43474  11.101   5.076  12.063  0.0863 -0.4630 -0.2182
27581W        W43475  13.643   3.333  14.191  0.1651 -0.2006 -0.2325
27582W        W43476   2.838  15.452   2.042 -0.1420 -0.0366 -0.0399
27583W        W43477   6.778   8.918  12.324 -0.1108 -0.2556 -0.0529
27584W        W43478  18.914   8.055   0.063 -0.1854  0.2294  0.2894
27585W        W43479  17.216   2.059   2.051  0.2254  0.0237  0.2327
27586W        W43480   6.431  13.663  11.651 -0.0126  0.2230  0.3650
27587W        W43481   5.132  10.368  14.448 -0.0252  0.2077 -0.4637
27588W        W43482   0.973  14.068  13.572 -0.1340  0.1722  0.1644
27589W        W43483  14.569   8.573   4.043  0.0699 -0.3428  0.0687
27590W        W43484  12.317   2.327   4.538  0.5816  0.1422  0.0474
27591W        W43485  18.637   2.672   3.069  0.0524 -0.1345 -0.0292
27592W        W43486   3.829  19.055  11.686 -0.1117 -0.1572  0.1127
27593W        W43487   4.503   9.438  12.781 -0.2178  0.0676 -0.1574
27594W        W43488  15.269   5.693  11.464  0.0665 -0.0042  0.1409
27595W        W43489  18.612   3.016   0.400  0.0192 -0.1100 -0.2106
27596W        W43490  14.650  15.472   2.063 -0.0804  0.2771  0.1172
27597W        W43491   4.189   7.507  13.397  0.4481  0.1784 -0.2779
27598W        W43492  12.969  18.012  12.831 -0.4746 -0.2868 -0.0824
27599W        W43493   8.265   4.181  13.942  0.0652 -0.1084  0.1257
27600W        W43494  15.938  12.803  13.798  0.4795 -0.0682  0.2200
27601W        W43495  10.093  14.378  14.129  0.3749 -0.2092  0.0748
27602W        W43496   9.145   1.027   0.826  0.0022 -0.0450 -0.0401
27603W        W43497   1.909   5.064   1.473 -0.0359 -0.2712  0.3417
27604W        W43498   8.166   9.381  15.043 -0.0544  0.3699 -0.2613
27605W        W43499  16.940   6.022   4.522  0.1977 -0.5830 -0.0316
27606W        W43500   2.103  10.924  10.480  0.0913 -0.2579  0.0492
27607W        W43501   9.409  13.573   3.058  0.0387 -0.1402 -0.1974
27608W        W43502   3.720   6.455  11.428 -0.0576 -0.0820 -0.0701
27609W        W43503  15.744   5.902   4.126 -0.1751  0.1753  0.0726
27610W        W43504  15.604  17.536   1.931 -0.0597 -0.3023 -0.1113
27611W        W43505   4.545   8.770  14.431 -0.0044 -0.1972 -0.0653
27612W        W43506  15.757   2.539   1.465 -0.2747 -0.1048  0.2851
27613W        W43507   3.691  12.346   9.852 -0.1401  0.0646  0.0280
27614W        W43508   9.766  10.554   5.300 -0.2033 -0.0049  0.5135
27615W        W43509   5.815   5.060  11.094  0.1103 -0.0141  0.4168
27616W        W43510   0.547   6.043   2.023  0.1309 -0.1836 -0.2179
27617W        W43511  13.602   3.222  10.093 -0.1830 -0.0339  0.0526
27618W        W43512   4.779   5.012  14.136 -0.2710  0.3055  0.0603
27619W        W43513  18.053  17.611   2.160 -0.1057  0.0117  0.1105
27620W        W43514   9.956   2.257   2.440 -0.1666 -0.2979  0.3392
27621W        W43515  19.204  13.412  11.845 -0.1232  0.0245 -0.0067
27622W        W43516   0.275   3.240  13.813  0.1443  0.0260 -0.1794
27623W        W43517   3.450  11.359   5.147 -0.1515 -0.1023 -0.3061
27624W        W43518  10.719  12.044  12.757  0.1132 -0.0748  0.1830
27625W        W43519   1.628   1.212   0.505  0.2706 -0.0128 -0.2556
27626W        W43520   9.910   4.924   3.652 -0.0761  0.0401  0.3554
27627W        W43521  12.891   5.506   0.025 -0.0702 -0.3290 -0.0846
27628W        W43522   9.306  16.865   3.292 -0.1743  0.2531 -0.0782
27629W        W43523   9.166   4.097  14.059 -0.0774  0.2304 -0.2321
27630W        W43524  18.598   8.277   0.457  0.0530 -0.0071  0.2969
27631W        W43525   6.681   6.491   3.803 -0.2252  0.0140 -0.0960
27632W        W43526   9.084   9.108   4.557 -0.2136 -0.0405  0.2849
27633W        W43527  17.636  15.577   3.646  0.2194 -0.0282  0.1130
27634W        W43528   9.773  13.541   3.570  0.2514  0.0629  0.1272
27635W        W43529   2.288   1.489   4.845 -0.0540  0.1777  0.1252
27636W        W43530  18.180  15.541   0.497  0.0044  0.0473 -0.1502
27637W        W43531   0.292   2.786   4.615 -0.1538 -0.4149  0.1957
27638W        W43532   4.593  15.106   4.045  0.1010  0.1435 -0.0409
27639W        W43533  13.896   4.763   4.245  0.1680  0.3270 -0.0692
27640W        W43534  12.721  14.727  12.463  0.1567 -0.1248  0.2940
27641W        W43535   5.889  11.164   2.292 -0.0478  0.3372  0.3283
27642W        W43536  13.354   7.797  11.537 -0.0948  0.3036  0.1313
27643W        W43537  17.260   3.119   3.637  0.0295  0.2279  0.5025
27644W        W43538  10.078  13.347  12.388 -0.0770  0.1628 -0.5772
27645W        W43539   7.598   9.576  13.312  0.2511 -0.1374  0.1049
27646W        W43540   1.625   2.724  12.842  0.0986 -0.1519 -0.1950
27647W        W43541   4.595   6.438   3.331  0.1877 -0.2244 -0.1610
27648W        W43542   0.916   7.599   1.650 -0.1090 -0.2612  0.2219
27649W        W43543   8.313   8.227  12.926  0.0293 -0.1616  0.0265
27650W        W43544  11.787   2.842  10.017 -0.0603 -0.0001 -0.0484
27651W        W43545   3.331   7.548  13.095 -0.2577 -0.0431 -0.2015
27652W        W43546   0.110  13.023   0.391 -0.2938  0.0219  0.0361
27653W        W43547   3.283   5.074   3.969  0.0717  0.2826 -0.0493
27654W        W43548   8.996  12.788   2.509  0.1563  0.1222 -0.1670
27655W        W43549   7.574  11.800  13.860  0.0112 -0.0543 -0.0850
27656W        W43550  18.990   7.791   3.678 -0.2992  0.0120  0.2004
27657W        W43551   6.319   0.389   1.598 -0.3428 -0.0786  0.2636
27658W        W43552   8.981   2.613   1.505 -0.0203  0.0402  0.1045
27659W        W43553  13.183  15.920   1.335 -0.1053 -0.0168  0.2877
27660W        W43554  11.982   1.487   2.300  0.2737  0.0209 -0.0788
27661W        W43555   0.357  16.221  12.828 -0.0656  0.0085  0.4295
27662W        W43556  15.765   6.630  13.035  0.1048  0.1859 -0.3612
27663W        W43557  11.795   3.171   3.973 -0.2888  0.1164 -0.1473
27664W        W43558  11.362   9.684   2.274  0.0202  0.0540  0.2934
27665W        W43559  12.540  16.370  10.935  0.0717  0.3685  0.0299
27666W        W43560  15.922  10.098   5.367  0.1805 -0.1016  0.1743
27667W        W43561  10.273  14.872  11.204  0.1074 -0.0946  0.0374
27668W        W43562   3.835   8.938  10.198  0.0003  0.0304  0.5231
27669W        W43563   4.381   5.248  13.970  0.0256 -0.1158  0.1379
27670W        W43564  11.556  15.205  12.742  0.2744  0.1142 -0.4555
27671W        W43565  18.949  12.261  10.204  0.0961  0.0490  0.2871
27672W        W43566   2.955  11.970  11.668  0.1092  0.0805  0.2370
27673W        W43567  12.574   4.351  12.565  0.0158  0.2757 -0.1022
27674W        W43568  11.613   9.398  14.038 -0.0994 -0.0674 -0.0925
27675W        W43569  10.295  17.549   2.983 -0.1542  0.0149  0.0822
27676W        W43570   6.900  17.945  11.529  0.2415  0.1811  0.0842
27677W        W43571  10.000   7.261  13.584  0.2391  0.6339 -0.3153
27678W        W43572  11.028  13.601   0.266 -0.1132  0.1569 -0.0381
27679W        W43573   5.076  15.036  12.166 -0.0661 -0.3151 -0.2760
27680W        W43574  11.686  10.315   2.465 -0.2176  0.2308 -0.2817
27681W        W43575   1.812  17.036  14.966 -0.1692 -0.1895 -0.2296
27682W        W43576  17.024   3.262   2.591 -0.0224  0.0889 -0.2595
27683W        W43577  17.402   2.302   1.578 -0.0366 -0.0110 -0.0082
27684W        W43578   7.985  14.182   2.461 -0.1615  0.2433 -0.0364
27685W        W43579   4.530   9.251   3.985 -0.1826  0.2815  0.1514
27686W        W43580   8.994   9.030  12.459 -0.3754 -0.2173 -0.4084
27687W        W43581  16.994   2.846  12.412 -0.0486 -0.0334 -0.1728
27688W        W43582   5.688   8.427  13.379 -0.0109  0.5480  0.1059
27689W        W43583  10.017   6.394  13.076 -0.1218  0.2064 -0.0860
27690W        W43584   9.991   5.422   5.529  0.2463  0.1611 -0.2188
27691W        W43585   1.702  13.623  12.733  0.0273 -0.0481 -0.2579
27692W        W43586   9.476   5.085   3.776 -0.1177 -0.1931 -0.2761
27693W        W43587  13.188   1.218   4.552  0.0786 -0.1397  0.0707
27694W        W43588  12.798   9.310  11.062  0.0023 -0.0304 -0.6413
27695W        W43589   5.126  11.082   1.289 -0.1104  0.1655  0.2723
27696W        W43590  18.318   2.513  12.332 -0.0401  0.2216 -0.2787
27697W        W43591  17.820   7.304   6.235  0.1862 -0.1557  0.1885
27698W        W43592   2.154  17.177   1.704  0.1562 -0.0778 -0.0752
27699W        W43593   5.369   1.722  11.052  0.0194  0.1794 -0.0410
27700W        W43594   1.924  10.861  11.877 -0.2135 -0.0622  0.0151
27701W        W43595  15.376   7.636   1.833 -0.1809  0.1980 -0.0221
27702W        W43596  16.197   0.301   3.770 -0.0488 -0.0862 -0.1801
27703W        W43597   1.040  17.249  13.833 -0.1222 -0.1725 -0.2582
27704W        W43598  12.771   6.746  11.227  0.0675 -0.3497 -0.0004
27705W        W43599  14.867   9.801   1.818  0.1301  0.1199  0.0942
27706W        W43600  18.556   6.162   5.018 -0.0299  0.0356 -0.0127
27707W        W43601  11.260   6.059  13.518 -0.0031 -0.1542  0.0306
27708W        W43602  17.764   2.519   4.587  0.0565 -0.0381 -0.3265
27709W        W43603  14.393  16.386  14.977 -0.2023 -0.1568 -0.1684
27710W        W43604  16.776   8.469  11.470  0.1479 -0.1599 -0.1349
27711W        W43605  13.478  13.767   1.748  0.1055 -0.3119  0.0177
27712W        W43606   8.377  13.955  10.529 -0.1143 -0.1442 -0.1498
27713W        W43607  15.019  14.265   3.750 -0.0763 -0.1719  0.0770
27714W        W43608   2.762   2.418   2.227  0.3370  0.1373  0.2212
27715W        W43609  15.936   4.282  11.854 -0.0351  0.1162 -0.1421
27716W        W43610   0.467   5.284   2.931 -0.0916 -0.1267 -0.0403
27717W        W43611  18.939   8.398  14.141  0.1411  0.1325  0.3376
27718W        W43612  16.933  14.092  10.588  0.0983 -0.2760  0.2480
27719W        W43613   0.961  11.185   3.194  0.0690  0.3703  0.2136
27720W        W43614  12.507  12.548  12.027 -0.0286  0.3565 -0.4149
27721W        W43615   3.428   6.891  11.057  0.2118  0.1915 -0.0649
27722W        W43616  13.404  12.614   2.213  0.3161 -0.0753  0.1446
27723W        W43617  13.228   1.207   4.040  0.0363 -0.0152 -0.1164
27724W        W43618  14.596  10.695  14.002  0.1600  0.2475  0.3023
27725W        W43619  12.013   6.718  14.844  0.0602  0.3004  0.0605
27726W        W43620  17.917  12.510  14.786  0.1911 -0.0916 -0.1831
27727W        W43621  13.589   6.380   1.764 -0.1454 -0.1336 -0.1424
27728W        W43622   9.886  13.308  12.881  0.1588 -0.2568 -0.1036
27729W        W43623   3.544   1.199   0.500  0.0717 -0.1687 -0.0427
27730W        W43624  13.437   9.781  10.708  0.0574 -0.1172 -0.1301
27731W        W43625  16.324   3.778  14.630  0.0765  0.4498 -0.3344
27732W        W43626   2.443   8.490   3.872  0.0360  0.1682 -0.1906
27733W        W43627   7.985   0.378  11.589  0.1988  0.4647 -0.1501
27734W        W43628   9.161  12.910  14.991  0.0918 -0.1903 -0.0522
27735W        W43629   5.974   0.324   3.948  0.2540  0.1556 -0.1266
27736W        W43630   5.429   7.667  11.358  0.1161  0.2308  0.3454
27737W        W43631   8.979  16.456  14.419 -0.0216 -0.2566  0.0954
27738W        W43632   2.344   5.932   4.636 -0.3277  0.0101  0.0776
27739W        W43633  14.506  18.315   1.805  0.0351 -0.2917 -0.0079
27740W        W43634  14.996  17.554   2.145 -0.1012  0.2369  0.1792
27741W        W43635   0.035   6.141   1.891 -0.2322 -0.4636  0.0639
27742W        W43636  16.534  17.425  14.882  0.2163 -0.0455  0.2826
27743W        W43637  17.730  16.226  13.096 -0.2866  0.0129 -0.1143
27744W        W43638  18.886  11.022  13.144  0.1622  0.0307  0.0068
27745W        W43639  18.470  15.716   3.426  0.1403  0.2104 -0.1469
27746W        W43640  18.810  19.073   1.601 -0.1890  0.1869 -0.1860
27747W        W43641   7.943   8.105   2.824 -0.0296 -0.2604 -0.2073
27748W        W43642  12.206  15.536  11.964  0.0506  0.1954 -0.1057
27749W        W43643   8.060   5.055  11.001  0.2287 -0.2467 -0.2525
27750W        W43644  11.127   5.311   2.891 -0.0438  0.1222  0.2327
27751W        W43645   6.021  18.619   0.099  0.0394  0.2526 -0.0054
27752W        W43646  10.888  10.276  15.064  0.2232  0.0599  0.0783
27753W        W43647   1.738  17.845   0.040  0.1108  0.0341 -0.0165
27754W        W43648   8.207   1.151   2.381 -0.0886  0.0690 -0.0658
27755W        W43649  12.851  13.232   4.689  0.1048 -0.1287  0.1246
27756W        W43650  13.585   7.822  12.028  0.0276  0.4216 -0.0126
27757W        W43651   9.328   9.532  10.270 -0.1262  0.0488 -0.4796
27758W        W43652   9.124   9.973   4.930 -0.0035 -0.0375  0.0145
27759W        W43653  17.309  10.886  12.127 -0.1738 -0.1731 -0.0337
27760W        W43654  10.888   5.651  11.922 -0.2037  0.1677  0.0213
27761W        W43655   8.706  18.133   3.676 -0.0945  0.0238 -0.2466
27762W        W43656   9.497  13.811  11.762  0.0946  0.0275 -0.1242
27763W        W43657  11.494   1.540   5.465  0.0825 -0.3969  0.0728
27764W        W43658   7.509   8.146  12.411 -0.0667 -0.2223 -0.0281
27765W        W43659   3.798  14.989   3.130  0.4208 -0.1461  0.1357
27766W        W43660   0.721   0.420   2.014  0.1308 -0.0119  0.0171
27767W        W43661   8.115  11.666   0.687 -0.0037  0.2149  0.0602
27768W        W43662   1.599   4.222  13.047 -0.1732  0.0214 -0.0587
27769W        W43663  12.065   7.647   2.697  0.2624  0.1209  0.4124
27770W        W43664  10.407   6.460  11.705 -0.2664  0.0504  0.0192
27771W        W43665   6.611  12.980   3.806  0.1117  0.2402  0.1232
27772W        W43666   1.692  13.791   1.385  0.2796  0.1489  0.6327
27773W        W43667   2.967  14.727   4.914  0.3027  0.0191  0.0379
27774W        W43668   2.431  18.315  11.645 -0.2962  0.1196  0.0010
27775W        W43669   9.340  14.186  13.498 -0.0575  0.0428 -0.0882
27776W        W43670  14.330  17.592   1.328  0.0245 -0.0543 -0.0628
27777W        W43671  11.706   1.753   0.378  0.3069  0.1709 -0.0738
27778W        W43672   7.625   7.282   4.600  0.1483  0.0239  0.0977
27779W        W43673   0.736  13.528   1.113 -0.1185 -0.0780 -0.0554
27780W        W43674   8.419  10.943  11.037 -0.0154  0.0547 -0.0381
27781W        W43675  11.795   3.291   1.843  0.1785  0.0020  0.2260
27782W        W43676   7.447  10.233  13.153  0.1040  0.0503 -0.0380
27783W        W43677  15.663  10.097  12.328 -0.0597  0.1166 -0.0612
27784W        W43678  17.117  17.657  11.751  0.0712 -0.0833  0.0617
27785W        W43679   0.312  14.881   3.343  0.0633 -0.0571  0.3529
27786W        W43680   5.124  13.658  12.673 -0.2692  0.0495  0.0417
27787W        W43681  15.696   6.581  10.726 -0.0926  0.0465 -0.3354
27788W        W43682   3.034  10.737  13.251 -0.2090 -0.0491 -0.0775
27789W        W43683   2.567   5.640  14.245 -0.0938 -0.0405 -0.2063
27790W        W43684   9.935  11.393  11.234  0.1968  0.0054  0.1969
27791W        W43685  18.815  14.572  13.926  0.0550  0.0163 -0.1366
27792W        W43686   1.709   0.878  12.233 -0.1509 -0.1515 -0.0159
27793W        W43687  11.938   2.220   0.714 -0.1653 -0.0814 -0.3152
27794W        W43688  13.629  14.434   0.517 -0.0615  0.2080 -0.0438
27795W        W43689   1.156   6.238  10.947 -0.0975  0.2038 -0.0105
27796W        W43690   3.081   6.395   0.222  0.2352 -0.1509  0.1940
27797W        W43691  14.379   4.039   3.981 -0.1486 -0.1071  0.1146
27798W        W43692  18.509   5.122   0.040 -0.1081 -0.2865  0.0399
27799W        W43693   8.626   8.188   4.650  0.0164 -0.1539 -0.0274
27800W        W43694   9.885   6.932  10.688  0.1376  0.0024  0.0220
27801W        W43695   9.607   2.017  10.556 -0.1277 -0.1809  0.2049
27802W        W43696   7.906   0.130  13.538 -0.0353  0.2004 -0.3782
27803W        W43697  17.914  16.869  12.396 -0.2845  0.2325 -0.1337
27804W        W43698   3.706  12.437   2.196  0.0257  0.0887  0.0359
27805W        W43699   2.320   3.010   5.166 -0.0533 -0.0119 -0.1486
27806W        W43700  10.740  11.156   1.749 -0.2372  0.1845 -0.0715
27807W        W43701  13.963   9.008   0.279 -0.2137 -0.0956 -0.2634
27808W        W43702  11.243  18.228  13.396 -0.0239  0.2720 -0.1887
27809W        W43703   0.979   0.113   4.845  0.0944  0.1993  0.1084
27810W        W43704   4.332   0.998  13.484 -0.2089 -0.0953  0.0033
27811W        W43705  14.751   1.521   3.086 -0.1225 -0.2576 -0.2623
27812W        W43706  16.330   8.937   5.435 -0.1765  0.1299  0.1825
27813W        W43707   8.880  14.874   0.372 -0.0312  0.0778  0.1494
27814W        W43708  13.834   2.821  14.276  0.0864 -0.3548  0.1842
27815W        W43709   1.877  16.467   9.902 -0.2299  0.0448  0.1095
27816W        W43710  14.284  11.082   3.917  0.3702 -0.0631 -0.1569
27817W        W43711  10.803  18.495   0.245  0.1686 -0.1362  0.0816
27818W        W43712   7.359  14.667  12.761 -0.0062  0.3292 -0.2022
27819W        W43713   1.417  13.355   2.788 -0.2560 -0.0387 -0.0349
27820W        W43714   0.661   3.474   0.321  0.1703 -0.1528 -0.3401
27821W        W43715   4.662   2.518   1.092  0.1738 -0.0820 -0.0538
27822W        W43716  10.967  12.016  12.215 -0.1116  0.0246  0.0926
27823W        W43717  17.754  12.531   3.087  0.1238  0.0972  0.2127
27824W        W43718   0.785   6.410   1.104  0.1443  0.1290 -0.0232
27825W        W43719   0.270   7.594   0.077  0.0477  0.1838 -0.2498
27826W        W43720   6.083   6.118  12.435 -0.0203  0.3734  0.1530
27827W        W43721   4.261   3.103   4.934  0.0365 -0.1831 -0.1405
27828W        W43722  10.344   6.593  12.249  0.2117  0.1552  0.0642
27829W        W43723  14.877   4.088  12.826  0.1505  0.0176 -0.3787
27830W        W43724  14.053   9.543  12.143 -0.0184  0.0286 -0.1827
27831W        W43725   7.687   4.690  14.139  0.0763 -0.4353 -0.2028
27832W        W43726   0.498  18.778   1.655  0.2558 -0.0384  0.1602
27833W        W43727  15.671   0.114  14.660 -0.2039 -0.0488 -0.0205
27834W        W43728   2.869   8.576  13.623  0.0075 -0.3763 -0.2048
27835W        W43729   8.371   8.126  13.523 -0.1697  0.2195 -0.3960
27836W        W43730   2.204   7.995  13.055 -0.0286  0.0449  0.3069
27837W        W43731  14.932   2.366   2.490  0.2629  0.3155  0.0542
27838W        W43732   2.711   2.916  12.087 -0.0789 -0.1420 -0.1569
27839W        W43733   3.432   1.759   2.216 -0.0040  0.3288  0.0279
27840W        W43734   8.210  11.682  11.584 -0.2035 -0.0356  0.1349
27841W        W43735   1.313   2.346  11.033  0.0084  0.1201 -0.2966
27842W        W43736   3.253  11.403   0.077  0.1898  0.0196 -0.1810
27843W        W43737   3.019   3.606   1.021 -0.1873  0.0411  0.0714
27844W        W43738   6.547  14.586   2.823  0.0144 -0.1360 -0.1453
27845W        W43739   1.637  15.619  14.259 -0.3478  0.1473 -0.1108
27846W        W43740  10.618   5.189  11.804  0.1085  0.1287  0.0452
27847W        W43741  17.011  15.399   9.466 -0.0191 -0.1003  0.3766
27848W        W43742   1.362   4.224  13.463  0.1035 -0.0236 -0.2811
27849W        W43743   8.201   9.639   2.072  0.1250  0.0467  0.1380
27850W        W43744   4.835  13.512   2.691 -0.3209  0.2357 -0.1885
27851W        W43745   6.426   7.290   1.524  0.1747  0.2376  0.1261
27852W        W43746   1.648  14.280   2.544 -0.2173 -0.3457 -0.2122
27853W        W43747  17.931   4.733   1.441  0.0889  0.2949 -0.0944
27854W        W43748  10.699  14.820   4.208  0.0251 -0.0559  0.0251
27855W        W43749   0.123  11.018   4.551 -0.2732  0.3109 -0.0198
27856W        W43750   6.834   5.793   4.455 -0.1065  0.0756 -0.2107
27857W        W43751  18.554  12.880  12.001  0.3865 -0.2464  0.2484
27858W        W43752  17.876   8.117   3.915  0.0007  0.0284  0.0989
27859W        W43753   0.507   8.432   4.291  0.1021  0.0891  0.3350
27860W        W43754  12.810  19.059  10.146  0.1764 -0.0161  0.1683
27861W        W43755  16.084  13.610  13.178 -0.0881 -0.1418  0.2214
27862W        W43756  14.842  18.727   0.584 -0.1188  0.0127 -0.0617
27863W        W43757  13.574  10.470   3.057 -0.2503  0.3260 -0.0943
27864W        W43758  17.045   8.681   4.573  0.0593 -0.0790  0.3027
27865W        W43759   8.913  14.767   1.479  0.0466  0.2326  0.3433
27866W        W43760   2.401  13.104   3.637 -0.3497  0.0812 -0.0723
27867W        W43761  13.257   6.289   3.471 -0.1844 -0.1218  0.1816
27868W        W43762   1.005  14.660   4.176  0.1143 -0.1987  0.0040
27869W        W43763  13.675   4.742   5.565 -0.1005 -0.2659 -0.0482
27870W        W43764   5.771   2.999   1.957 -0.2952  0.3188 -0.2236
27871W        W43765   5.435  10.202  11.375  0.0970  0.2794 -0.0528
27872W        W43766  10.562  14.912  13.474 -0.0176 -0.2688  0.3187
27873W        W43767  10.790   2.020   2.270 -0.1026 -0.2273  0.3045
27874W        W43768   2.608  11.074   4.219  0.1061 -0.0109 -0.0749
27875W        W43769  15.565   1.399   0.834 -0.0302 -0.0688  0.2254
27876W        W43770   4.417   3.345   5.668  0.3030  0.0147 -0.3555
27877W        W43771  14.922   8.864   0.650  0.1737  0.0454 -0.1226
27878W        W43772   3.807   9.668  11.838 -0.3901  0.0475 -0.2409
27879W        W43773   9.510   8.821  14.677  0.1136  0.0369 -0.3286
27880W        W43774  17.306   1.852   0.082 -0.2515  0.2823  0.0966
27881W        W43775   4.230  12.603   2.759  0.0013 -0.2370 -0.2798
27882W        W43776   3.828   8.803   0.147 -0.1888  0.3012 -0.0360
27883W        W43777  18.259  10.604  14.765  0.0606  0.3359 -0.1524
27884W        W43778  12.598   5.839  10.005 -0.1364  0.2733 -0.2278
27885W        W43779   6.743   1.307   9.836 -0.1116  0.3245  0.1723
27886W        W43780   0.099  12.997  13.871 -0.0080 -0.1862 -0.0443
27887W        W43781   5.667   8.812  11.480  0.1792  0.3553  0.0692
27888W        W43782  10.833  16.529   2.051 -0.1374 -0.1684  0.1832
27889W        W43783   3.005  15.633  14.855 -0.0964 -0.5241 -0.0771
27890W        W43784   9.724  13.838   5.401 -0.2654 -0.1293 -0.1007
27891W        W43785   1.278  13.024   4.410  0.0672 -0.1246  0.0452
27892W        W43786  13.514  10.384  12.139  0.0571  0.0414 -0.1977
27893W        W43787   8.083  10.422   2.449 -0.1325 -0.1725 -0.1797
27894W        W43788   4.519   6.575  12.487 -0.1035 -0.1491  0.5050
27895W        W43789   2.385  12.550  12.156  0.1922 -0.0377  0.0369
27896W        W43790   2.839   8.854  12.198 -0.1583 -0.0750 -0.0642
27897W        W43791   4.601  11.584  13.867 -0.0040 -0.0244 -0.0216
27898W        W43792   0.042  17.195   4.692  0.1298 -0.1426 -0.2529
27899W        W43793  17.626   0.783  12.843  0.0098 -0.0163  0.1446
27900W        W43794   7.299  17.941   4.699  0.3089  0.1058 -0.0985
27901W        W43795  11.213   4.197   3.564 -0.0634  0.2111  0.3042
27902W        W43796  18.803   5.299   1.213 -0.0274 -0.2993 -0.2213
27903W        W43797  13.918  12.661  12.670  0.1185 -0.0452  0.0910
27904W        W43798   5.965  10.329   3.459  0.0938 -0.2750 -0.1367
27905W        W43799  10.190   8.279   4.057 -0.1041 -0.1494 -0.1007
27906W        W43800   2.406  15.747  10.643 -0.3110 -0.0810 -0.2124
27907W        W43801   1.732  11.480  10.728 -0.1309 -0.0271 -0.0520
27908W        W43802   8.519  18.991   1.410 -0.6312  0.0067  0.1333
27909W        W43803   0.881  11.962   9.969  0.3318 -0.2621  0.0045
27910W        W43804   1.157  18.310  10.165  0.1020  0.2247 -0.1116
27911W        W43805   1.340   9.040  11.594  0.1718  0.2127 -0.2771
27912W        W43806  15.492   7.552   2.375  0.0645  0.0444  0.2073
27913W        W43807   2.993   8.862  10.164 -0.1245  0.3977 -0.1038
27914W        W43808  15.717   9.850  10.070 -0.1822  0.0177  0.1820
27915W        W43809   7.187   5.414   1.009 -0.2812  0.3261 -0.1243
27916W        W43810  13.009  16.875   2.564  0.0592  0.1107  0.0597
27917W        W43811  12.137  12.217  12.834 -0.0846 -0.1228  0.0616
27918W        W43812  18.423  12.873  13.611 -0.0263  0.2508  0.0474
27919W        W43813   0.526  15.325  10.867 -0.1446  0.0662  0.2920
27920W        W43814   7.700  16.672   1.846  0.1658 -0.0042  0.2236
27921W        W43815   0.054   9.151   4.249 -0.0314  0.1115 -0.2204
27922W        W43816   8.719  15.048  12.141  0.3477 -0.0544  0.1658
27923W        W43817  11.944   5.281  10.556  0.0998  0.2225 -0.2574
27924W        W43818  11.332  10.148   0.661 -0.3055 -0.0126 -0.1172
27925W        W43819   2.206   5.946  12.242  0.0149  0.0953  0.2029
27926W        W43820  10.107   8.034  10.468  0.1393 -0.0639 -0.0800
27927W        W43821   9.014  16.718   3.766 -0.0031 -0.2917  0.0778
27928W        W43822   4.419  16.212  14.955  0.2758 -0.3643  0.0407
27929W        W43823  18.843  14.789   1.435  0.1810 -0.1595 -0.0785
27930W        W43824   5.453  13.686  13.047  0.0131  0.0456  0.4348
27931W        W43825  18.460  16.475  14.667  0.0276 -0.2891  0.2017
27932W        W43826  14.249  16.000   3.352  0.0164  0.0900 -0.1151
27933W        W43827  12.502  10.730   9.531 -0.2355  0.2021 -0.2767
27934W        W43828  12.854   7.827  14.057  0.2257  0.1960  0.2578
27935W        W43829  15.198   1.661   2.522 -0.1079 -0.0335  0.0736
27936W        W43830   4.446  18.837  11.842 -0.2223  0.0575 -0.0678
27937W        W43831  12.458  10.983   0.300  0.0874 -0.0949  0.2132
27938W        W43832  15.453   3.328   1.584 -0.2196  0.4013 -0.1566
27939W        W43833   2.588  10.682  14.530 -0.1122  0.1541 -0.1111
27940W        W43834   2.377   1.226  14.843 -0.0440 -0.1432  0.1068
27941W        W43835  16.662  14.260   4.314  0.1243  0.2396  0.3161
27942W        W43836  16.295  10.065   1.605  0.1060 -0.0849  0.1697
27943W        W43837   7.847  14.929  12.791 -0.0072  0.0804  0.0808
27944W        W43838  17.659  11.924  14.098  0.0398  0.1646 -0.0504
27945W        W43839  17.844   7.196   0.844 -0.1451 -0.1433  0.0283
27946W        W43840  13.871  19.084   0.196  0.1186  0.0376 -0.3403
27947W        W43841  10.029  16.422  10.298  0.2431 -0.2775 -0.1663
27948W        W43842   5.274   0.143  13.390 -0.1585  0.0764  0.1337
27949W        W43843   7.189  18.402   4.493  0.1702 -0.1333  0.0226
27950W        W43844  14.622  16.516   9.013 -0.3287  0.0097 -0.1977
27951W        W43845   3.898  12.719   1.811  0.0555  0.1540 -0.0759
27952W        W43846   7.646  18.542   2.455 -0.3832 -0.1940  0.0603
27953W        W43847  13.626  14.124   0.929  0.0869 -0.2151  0.0089
27954W        W43848  10.519   7.438   3.318 -0.1801  0.0479 -0.1345
27955W        W43849   1.209  16.903   5.076  0.0632  0.1007  0.1102
27956W        W43850  18.005  11.148   2.896  0.1096 -0.0276 -0.2011
27957W        W43851  17.449   4.406  11.432  0.1531  0.2348 -0.3291
27958W        W43852   6.563  17.865  14.890  0.0430  0.1312 -0.0301
27959W        W43853  13.600  12.466  11.808  0.1072 -0.0072  0.0383
27960W        W43854  12.489   7.901   2.618  0.2434  0.0748  0.3444
27961W        W43855   4.342  17.053  11.751  0.0138 -0.2438  0.1723
27962W        W43856  18.399  12.411   2.183  0.1597  0.1007  0.0309
27963W        W43857  11.061   1.440   2.019 -0.0219 -0.2443  0.0941
27964W        W43858  18.556  10.770   1.349 -0.2837 -0.0813 -0.4169
27965W        W43859   5.968  10.693  12.746  0.2583 -0.0827 -0.1098
27966W        W43860   2.059  10.430  12.001 -0.0044 -0.0505  0.0945
27967W        W43861  17.321  18.856   2.676 -0.2203 -0.3810 -0.1213
27968W        W43862  14.394  16.829  10.547  0.1071  0.2105  0.2163
27969W        W43863  17.614   4.344  14.262 -0.1055  0.2251 -0.2375
27970W        W43864  13.911  11.728   0.792 -0.1306  0.0863 -0.1466
27971W        W43865  12.523  12.436  10.718  0.0201  0.0762  0.0229
27972W        W43866  12.926   0.858   0.680  0.1469  0.4182 -0.3373
27973W        W43867   6.127  19.035  13.992 -0.1203  0.0026 -0.0472
27974W        W43868   6.237  15.275  10.924 -0.0053 -0.0427  0.0781
27975W        W43869   4.191  18.598   4.776  0.0087 -0.4022 -0.4456
27976W        W43870   1.917   6.402  12.989 -0.0002  0.0643  0.1454
27977W        W43871   1.119   6.390   3.878 -0.1324  0.1910  0.0733
27978W        W43872   3.578   0.804   2.566 -0.1958  0.3767 -0.0059
27979W        W43873   4.163  12.393   4.950  0.3780 -0.2515  0.2650
27980W        W43874  18.182  18.364   1.456  0.1940  0.0517 -0.1260
27981W        W43875  11.532   2.061  10.515 -0.2580  0.1330 -0.4306
27982W        W43876   3.875  16.927  12.536 -0.0797 -0.1400 -0.1967
27983W        W43877   6.686   2.428   2.546 -0.0772 -0.2262 -0.2785
27984W        W43878   1.296   5.190  13.321 -0.0293 -0.1121  0.1032
27985W        W43879  10.822   3.157  12.405 -0.2797  0.0600  0.4037
27986W        W43880  17.480  13.677   3.634 -0.0356 -0.0823 -0.1233
27987W        W43881  13.582  13.349   1.492 -0.0797 -0.0102  0.1245
27988W        W43882   7.655   9.774   4.400 -0.0853 -0.0872 -0.2597
27989W        W43883  15.896  17.578  12.138  0.0092  0.2802 -0.0703
27990W        W43884   1.620   3.277   0.808 -0.0474  0.0525  0.0713
27991W        W43885   8.653   6.490   4.495  0.1265 -0.0499 -0.0013
27992W        W43886   4.399  13.341  13.121  0.0614 -0.0050 -0.0255
27993W        W43887  12.307  12.329  14.929  0.0387 -0.1990 -0.1308
27994W        W43888  10.536  10.788   2.550  0.1657  0.3073  0.4671
27995W        W43889  14.488  15.451  12.440 -0.2498  0.0336 -0.1339
27996W        W43890  12.239   0.176  10.306  0.2029  0.2591  0.2292
27997W        W43891   1.641  12.885   4.903  0.0212  0.0075  0.0415
27998W        W43892  11.576   8.072  13.065  0.2910  0.0373 -0.1426
27999W        W43893   8.179   7.868   1.560 -0.2151  0.2020 -0.1720
28000W        W43894  14.636  14.958   1.963 -0.0192 -0.1067 -0.3294
28001W        W43895   2.476   3.828   3.064  0.0783 -0.1005  0.3520
28002W        W43896   4.779   1.204   5.925 -0.0212 -0.4555 -0.1087
28003W        W43897   2.360  16.255   4.581  0.1225  0.1804 -0.0514
28004W        W43898   4.475  10.640   0.441 -0.2975  0.2982 -0.0742
28005W        W43899   8.359   4.756  14.751 -0.0361 -0.0599  0.1922
28006W        W43900   9.120  11.389  12.244  0.1038 -0.2679 -0.3237
28007W        W43901   3.137   2.818  13.049 -0.0434  0.1758 -0.0933
28008W        W43902   6.211  10.580  11.517 -0.0090 -0.3460  0.0467
28009W        W43903   6.327  10.137   2.524  0.0809 -0.2587  0.4264
28010W        W43904   1.679   2.495  14.584  0.3641  0.1625  0.1809
28011W        W43905  12.042   8.115  11.248  0.2115 -0.0271  0.1563
28012W        W43906  14.740   8.005   2.578  0.2301 -0.0612 -0.1456
28013W        W43907   3.698  15.799   2.545  0.0810  0.0498  0.0223
28014W        W43908  10.725   7.730   1.166 -0.0296 -0.3171 -0.1634
28015W        W43909  14.252  15.006  12.448 -0.3363 -0.0239  0.0794
28016W        W43910   0.673   6.538   3.721 -0.2506 -0.1013  0.3144
28017W        W43911   3.838  18.800  10.343  0.2506 -0.2305 -0.4077
28018W        W43912   3.281  15.272   1.973  0.0171  0.1077 -0.2581
28019W        W43913   2.982  16.085   9.391 -0.2739  0.1209  0.0575
28020W        W43914   9.510   0.366   2.094 -0.1592 -0.2627 -0.1456
28021W        W43915   8.170  15.570  13.792 -0.0029 -0.1493 -0.1565
28022W        W43916  11.597  13.411   3.044  0.2069 -0.0256 -0.0382
28023W        W43917  15.069  11.943   3.022 -0.0605 -0.1669 -0.0392
28024W        W43918   8.362   4.103  12.213 -0.0188  0.2318 -0.1480
28025W        W43919   2.726   7.832   1.385 -0.0713 -0.0480 -0.1508
28026W        W43920   4.345   5.091  13.325  0.1467 -0.0352 -0.4699
28027W        W43921   8.483   3.893   6.177 -0.1779 -0.0221  0.2188
28028W        W43922   2.856  10.323  14.904  0.1311 -0.2517 -0.0016
28029W        W43923  14.569  18.130  11.060  0.1366  0.2180  0.2382
28030W        W43924  15.286  10.954  12.757 -0.1704  0.2313 -0.0202
28031W        W43925   1.202   1.074   3.253 -0.1517  0.3807 -0.1738
28032W        W43926  18.515  16.694   3.138  0.0878 -0.0344 -0.3282
28033W        W43927   3.866  12.180   9.377  0.1062  0.0950  0.0505
28034W        W43928   0.671   1.180  13.432  0.1367  0.0758 -0.3606
28035W        W43929   2.738   2.649   1.813 -0.1082  0.6959  0.1913
28036W        W43930   5.010  15.319   0.048  0.3825 -0.2767 -0.3586
28037W        W43931   4.655  10.861  13.903 -0.2802  0.0905 -0.0595
28038W        W43932  19.095   2.098  13.755  0.0989  0.1623  0.1452
28039W        W43933  16.851   7.538   4.326 -0.1150 -0.0116 -0.0350
28040W        W43934   1.653   8.871   4.517 -0.0069  0.3393  0.1251
28041W        W43935  14.609  13.102   3.849 -0.1615  0.1621 -0.0837
28042W        W43936   3.031  14.452  14.326  0.1496  0.1690 -0.3500
28043W        W43937  18.131  15.558  12.088 -0.0038 -0.1293 -0.2337
28044W        W43938   5.623  15.856  13.823  0.1401  0.0827 -0.0670
28045W        W43939   6.584  11.593   3.964  0.1688  0.1448  0.0321
28046W        W43940   0.042   4.217   5.008 -0.1241 -0.2023 -0.1224
28047W        W43941   3.738  15.851   0.309 -0.1730 -0.1658  0.1834
28048W        W43942  18.615   9.198  14.361  0.0228  0.0216 -0.1642
28049W        W43943   5.177  15.405  14.672 -0.1871  0.2838  0.0430
28050W        W43944  15.805   1.275   2.970  0.2391  0.0770  0.0317
28051W        W43945   8.037  18.177   4.393  0.2563 -0.1325 -0.2449
28052W        W43946   3.814   0.236  12.454  0.0370 -0.0114  0.3312
28053W        W43947  10.256   5.730   2.990 -0.2412  0.1948  0.0419
28054W        W43948   9.082   3.964  13.567 -0.1574  0.0670 -0.0324
28055W        W43949   9.517   8.355  12.510 -0.0460 -0.2417  0.0833
28056W        W43950   8.052  14.768   4.006 -0.0565 -0.0444 -0.3095
28057W        W43951  17.187  14.918  14.952 -0.1908  0.0032 -0.2623
28058W        W43952  13.734   2.567  10.771 -0.0065  0.0872 -0.0702
28059W        W43953  13.475   2.199  10.949 -0.1330 -0.0072  0.1948
28060W        W43954   5.106   3.362   4.539  0.0738 -0.0566  0.0193
28061W        W43955   9.097  17.695  12.691  0.1656 -0.1877  0.2433
28062W        W43956   4.477   2.567   4.164  0.2479 -0.1746  0.0742
28063W        W43957   7.040   7.855  12.445  0.0895  0.1506  0.1352
28064W        W43958  17.117   9.069  12.498  0.0990  0.4533  0.0667
28065W        W43959   9.913  16.764   3.832 -0.2344  0.1333  0.0433
28066W        W43960   0.305  14.913   4.250  0.0821  0.3004 -0.1424
28067W        W43961   3.045  17.676   5.546 -0.1836 -0.0936  0.3173
28068W        W43962  19.173   9.995   2.308 -0.4373 -0.0169 -0.0641
28069W        W43963  16.203  14.510  13.393 -0.3515  0.1843  0.0774
28070W        W43964  15.434  15.620  13.548  0.1055  0.3962 -0.1066
28071W        W43965  11.039  11.886  13.442 -0.0773  0.0797  0.0545
28072W        W43966   3.313  18.895  11.710 -0.0025  0.0143  0.3594
28073W        W43967   8.137  14.230   1.274  0.0462  0.3327 -0.1821
28074W        W43968   2.589   6.791  14.742  0.2312  0.2099  0.1447
28075W        W43969   4.966   4.408   5.268 -0.2164  0.0689  0.4574
28076W        W43970   1.631   1.367  12.187  0.0037  0.1221  0.3857
28077W        W43971   2.746   4.922  13.009  0.2115 -0.3454 -0.0656
28078W        W43972  10.302  16.757  14.941  0.3270 -0.0346  0.1273
28079W        W43973  12.900  14.243  10.411 -0.1251 -0.1675  0.1183
28080W        W43974   7.587  14.585  14.001 -0.1075 -0.4432  0.1905
28081W        W43975  11.989   9.337  10.757 -0.0255 -0.1728 -0.0547
28082W        W43976  15.857  14.166   3.121  0.0613 -0.2146  0.1746
28083W        W43977   2.215   9.163   0.384 -0.0287 -0.1321  0.4466
28084W        W43978  11.600  10.297  13.101  0.1518 -0.1225 -0.1271
28085W        W43979   2.343   9.681   1.729  0.0001  0.1530  0.4386
28086W        W43980  14.664   7.156   0.932 -0.0944 -0.0389 -0.3991
28087W        W43981  18.492  11.486   0.090  0.0000  0.2261 -0.1601
28088W        W43982  13.436  11.548   0.545 -0.3688 -0.2463 -0.2452
28089W        W43983  18.109   9.826   2.607  0.0125 -0.1451  0.0548
28090W        W43984  16.341   4.830  12.718 -0.0085  0.3618 -0.0258
28091W        W43985   4.658  16.616   3.125 -0.1465  0.0038  0.1431
28092W        W43986   3.977  19.220   1.171 -0.2511  0.4556 -0.1300
28093W        W43987  13.135   4.440   0.979 -0.1216  0.2579  0.1526
28094W        W43988   0.319   6.457   2.745  0.0970 -0.0702 -0.2314
28095W        W43989   3.393   9.845  10.796  0.1045 -0.2314 -0.0986
28096W        W43990  18.213   5.845  14.328  0.1671 -0.1511 -0.0677
28097W        W43991  10.465   6.036   4.372 -0.3242 -0.1425 -0.1355
28098W        W43992   8.235   1.312  12.035  0.0913 -0.1687 -0.0014
28099W        W43993   4.541  12.796   0.471 -0.1145 -0.2565 -0.2408
28100W        W43994  18.348  18.115   4.744  0.0970  0.1159 -0.1147
28101W        W43995   1.655   4.902   3.710  0.1294 -0.1907 -0.1635
28102W        W43996   5.374  18.695  13.754 -0.1025 -0.0437  0.1497
28103W        W43997  12.764  17.128   3.803 -0.2060 -0.1314  0.0393
28104W        W43998   5.237   4.704   1.441  0.0096  0.0834  0.1119
28105W        W43999  14.719   9.058  14.094 -0.1023 -0.1012  0.2312
28106W        W44000   6.266   0.663  13.541  0.5119  0.2255 -0.1906
28107W        W44001   9.290   9.312   5.030  0.0379 -0.3153  0.3749
28108W        W44002   0.091   1.551   0.872  0.2166 -0.2730  0.0785
28109W        W44003   4.303   8.298   1.209  0.0923 -0.1623  0.1016
28110W        W44004   2.993  16.538  13.819  0.1303  0.4057 -0.2190
28111W        W44005   2.208   8.911   4.885 -0.1138 -0.0280 -0.0151
28112W        W44006   1.982  17.871   3.568  0.1120  0.1324 -0.2236
28113W        W44007   9.457  18.434  14.900  0.0050  0.2272 -0.1555
28114W        W44008   3.729   1.195  14.592 -0.1564  0.0317  0.1056
28115W        W44009   4.215   6.599  13.612 -0.1532 -0.1418 -0.2352
28116W        W44010  12.742  18.086  14.748  0.3017  0.3506 -0.2357
28117W        W44011   6.682   7.337  12.027  0.0430 -0.0180 -0.1245
28118W        W44012   9.060   0.047   2.980 -0.1111  0.2132  0.1347
28119W        W44013   9.322  16.944  13.700  0.1988 -0.1473  0.0498
28120W        W44014  12.221  11.417   5.176  0.1605 -0.0044  0.0309
28121W        W44015   0.356  15.211   5.410  0.0226  0.1484  0.7922
28122W        W44016  15.092   4.737   4.164 -0.0697  0.0334  0.1095
28123W        W44017   2.356  14.335   3.410  0.2470 -0.3708 -0.0898
28124W        W44018   6.853  12.147   1.530 -0.2312 -0.0708 -0.0172
28125W        W44019   0.588   5.921   1.244 -0.2159  0.0708 -0.2124
28126W        W44020   2.617   0.539   4.920 -0.1104 -0.0786 -0.0930
28127W        W44021   4.331   4.096   2.491 -0.2098 -0.1869 -0.2360
28128W        W44022   8.198  14.201  13.847 -0.0283 -0.0834  0.1700
28129W        W44023  15.014  12.831   3.908 -0.1512 -0.0547  0.1776
28130W        W44024   0.222   9.268  12.760  0.1264  0.1088  0.0114
28131W        W44025   1.025  16.250   1.211 -0.1591  0.2406  0.1164
28132W        W44026   9.594   4.379  13.432 -0.3345  0.0071  0.3325
28133W        W44027   8.159  15.744  13.058  0.0125  0.1432 -0.1637
28134W        W44028   7.792  10.587   0.651 -0.2690  0.0890 -0.3113
28135W        W44029   9.517   5.250   0.483 -0.1107 -0.2475  0.0290
28136W        W44030   5.383   4.099   2.262 -0.3873  0.1490 -0.2198
28137W        W44031   8.529  17.346   2.730 -0.3349 -0.0495 -0.3186
28138W        W44032   3.867   0.251   2.588 -0.0662 -0.2507  0.3337
28139W        W44033  18.113   9.740  11.984  0.0195 -0.3487 -0.0382
28140W        W44034  16.016  17.283  10.974  0.3003  0.1629  0.0220
28141W        W44035   6.975   5.199   0.232 -0.0648  0.1118  0.1327
28142W        W44036   7.607   2.835   2.352 -0.1679  0.1855 -0.0844
28143W        W44037  18.318  12.073   3.684  0.0549  0.2475 -0.3546
28144W        W44038   7.842   7.478   5.055 -0.2153 -0.0796 -0.1335
28145W        W44039  13.974  17.061   1.188  0.1438  0.0695  0.2221
28146W        W44040   0.895  17.090   4.366 -0.2434  0.2272  0.0262
28147W        W44041  14.343  10.388   0.733  0.2760  0.1958 -0.1916
28148W        W44042  10.483   7.218   9.934  0.0558 -0.2125  0.0893
28149W        W44043   7.454   2.546   5.296  0.3978 -0.1249  0.1094
28150W        W44044  12.222   5.208  12.078  0.1836  0.0652  0.0736
28151W        W44045  17.072  17.764   3.346  0.2522  0.1880  0.1116
28152W        W44046  10.081   4.658   1.195  0.0439 -0.3732 -0.2635
28153W        W44047   1.699   5.772   1.255  0.1656  0.1482 -0.0100
28154W        W44048   0.624  18.100   1.009 -0.0366 -0.2437 -0.0719
28155W        W44049  11.375  12.765  10.388  0.0681 -0.0333  0.3121
28156W        W44050   3.362  14.477  10.357  0.2246  0.3917  0.0311
28157W        W44051   0.877  11.456   0.634  0.2142 -0.0084 -0.1674
28158W        W44052   3.567   3.004   5.339  0.0573 -0.1674 -0.0848
28159W        W44053  11.778   8.049   1.091  0.2345 -0.0458  0.0073
28160W        W44054   6.900   5.607  14.979 -0.3566  0.2601 -0.3935
28161W        W44055   7.823   1.406  10.706 -0.2565 -0.0688  0.0391
28162W        W44056  18.098  12.830   5.597 -0.2103 -0.1246 -0.1829
28163W        W44057   0.868   4.846   3.958  0.2537 -0.2056 -0.1374
28164W        W44058   9.667  11.365   1.806 -0.2532 -0.0379  0.2107
28165W        W44059   2.897  13.964  13.350  0.2758  0.3226  0.2148
28166W        W44060  13.417   2.461  14.157 -0.0375  0.0176  0.2161
28167W        W44061  14.933  18.860  10.655  0.2179  0.1479  0.2604
28168W        W44062   7.280   6.732  12.325 -0.2397  0.2496  0.0671
28169W        W44063   9.321  13.334  11.705  0.0837  0.1454  0.1419
28170W        W44064   6.545   0.274  13.442  0.1721  0.1588  0.1240
28171W        W44065  13.868   1.490  14.686 -0.0245  0.0910  0.0174
28172W        W44066   6.724   7.799   2.268 -0.2884  0.1789 -0.1742
28173W        W44067  14.609   0.388  11.112  0.2010  0.0966  0.1551
28174W        W44068  15.955   9.000   3.295 -0.0685  0.1733  0.2041
28175W        W44069   5.406  18.460  14.998 -0.2152  0.1692  0.0787
28176W        W44070  16.347   4.158  13.576 -0.1530  0.1324 -0.1230
28177W        W44071   8.353   7.714  10.392 -0.1567  0.0992  0.0161
28178W        W44072   5.640  10.794   4.234  0.1936  0.0658  0.4634
28179W        W44073  12.301   2.409  13.757 -0.1059 -0.1320  0.2265
28180W        W44074  15.798   8.465  13.134  0.0193 -0.3139  0.0604
28181W        W44075   4.314  10.214  13.257  0.1616 -0.0121  0.1774
28182W        W44076   5.762  14.460   1.222  0.0220 -0.0111  0.1133
28183W        W44077   4.683  18.998   2.284  0.1628 -0.2165  0.5060
28184W        W44078  14.211  18.619  15.103  0.0650 -0.1630 -0.1126
28185W        W44079   0.884  18.484   1.935  0.1510 -0.0878  0.0018
28186W        W44080  12.267  10.201   4.650  0.2764  0.2873 -0.0530
28187W        W44081   0.739  11.920   1.945  0.0931  0.3453 -0.1090
28188W        W44082   2.597  11.551  14.084 -0.1090 -0.2262  0.2049
28189W        W44083  13.228   3.496  10.948 -0.0497 -0.0594 -0.2323
28190W        W44084   0.749  18.851  11.598  0.2246 -0.3020 -0.0296
28191W        W44085   7.627   2.549   1.459  0.3012  0.0423 -0.0955
28192W        W44086   9.293   6.071  10.641 -0.1480 -0.0803 -0.1090
28193W        W44087   1.190   0.898  12.801  0.0855 -0.0258 -0.0733
28194W        W44088   9.616   9.288  11.210 -0.1180  0.0922 -0.1568
28195W        W44089   7.304  11.047  10.538 -0.0301  0.0850  0.1913
28196W        W44090   3.080   6.174   2.436  0.2088 -0.2334 -0.1008
28197W        W44091   7.403   4.529   2.168 -0.2220 -0.1053  0.2875
28198W        W44092  12.518   3.397   0.755  0.2681  0.1964  0.2384
28199W        W44093  18.987  10.166  14.468  0.1948 -0.0765 -0.1961
28200W        W44094   6.572   1.086  14.568  0.0169 -0.1145 -0.0993
28201W        W44095   0.208  18.062  11.345 -0.1661  0.0605  0.0153
28202W        W44096  15.118  15.182   1.171  0.0977 -0.3359  0.2694
28203W        W44097  11.480  11.040   3.759  0.3016  0.2188  0.3660
28204W        W44098   9.808  14.702   0.798 -0.1690 -0.6510 -0.0164
28205W        W44099   2.070   8.065  13.538 -0.0977 -0.1645 -0.0287
28206W        W44100  11.993  19.223   9.889 -0.0163 -0.2317  0.1655
28207W        W44101  11.437  11.822  12.396 -0.1622 -0.3276  0.1562
28208W        W44102  18.032   3.215   1.248 -0.2971 -0.2869 -0.3001
28209W        W44103  18.381  15.612  13.127 -0.0871  0.1323  0.5516
28210W        W44104  16.841  14.323   1.136  0.0173 -0.0440 -0.0845
28211W        W44105  16.246  11.844  11.641 -0.1100  0.1864  0.1770
28212W        W44106  18.115   6.581  11.582 -0.0423  0.0640  0.3521
28213W        W44107  10.736  14.473   0.566 -0.0606 -0.1405  0.0762
28214W        W44108  11.893   5.382  12.917 -0.1895  0.1391  0.0477
28215W        W44109   0.771   1.894   1.410 -0.0383 -0.0686 -0.1431
28216W        W44110  14.966   4.327  11.282 -0.0559 -0.1243 -0.4838
28217W        W44111  12.671   7.871  15.077  0.1821 -0.0417  0.0202
28218W        W44112   1.961  14.220   2.992  0.1061 -0.2280  0.0559
28219W        W44113   0.059   5.848  12.523  0.0655  0.3069  0.0636
28220W        W44114  10.449  11.402  12.197  0.0503  0.0278  0.3402
28221W        W44115  10.584   1.343   2.862  0.0536 -0.0817  0.1487
28222W        W44116  12.141   0.937  12.987  0.5366  0.1563 -0.1033
28223W        W44117   6.369  11.569  11.673  0.2083 -0.0584  0.1290
28224W        W44118   6.790   7.020  13.519  0.0572 -0.1264 -0.2575
28225W        W44119   8.612   6.526   3.162 -0.0271  0.1774  0.0111
28226W        W44120   8.432  14.613   1.477  0.1412  0.0989 -0.1511
28227W        W44121  10.196   9.712   2.606  0.3817 -0.0569 -0.0004
28228W        W44122  16.665   3.717  15.049  0.0746 -0.0932  0.0201
28229W        W44123   8.675   8.606  12.636  0.0129 -0.1871  0.1447
28230W        W44124   9.448   1.057  10.966 -0.0950 -0.1730  0.0919
28231W        W44125  11.463   5.187  12.733  0.0775  0.5038 -0.2262
28232W        W44126   2.735  19.186  11.616 -0.0820  0.0991 -0.1389
28233W        W44127  18.022  17.617   1.159 -0.1778 -0.1951  0.0653
28234W        W44128   2.934   7.257  12.607 -0.1653 -0.4077  0.1749
28235W        W44129  16.516  16.956  12.029  0.4988 -0.1097 -0.0475
28236W        W44130  12.305  14.652  13.776  0.0079 -0.2081 -0.3521
28237W        W44131  10.310   5.759  10.941  0.2708 -0.3275 -0.4691
28238W        W44132  18.518   9.198   2.646  0.0536  0.1915  0.0435
28239W        W44133   9.496   1.126   4.523 -0.1222  0.1995 -0.1013
28240W        W44134  18.723  15.590   0.715 -0.1908 -0.0547  0.1300
28241W        W44135  16.511  12.909   0.778 -0.2879 -0.0765 -0.2093
28242W        W44136   6.015   8.517  14.324  0.0765 -0.1679 -0.0370
28243W        W44137   1.013  12.697  10.451  0.2438 -0.1968 -0.0530
28244W        W44138   1.679  18.657  11.162  0.0978 -0.0063  0.3090
28245W        W44139   1.594  12.448   3.404 -0.0961  0.0462 -0.0754
28246W        W44140  12.795  11.332  11.427  0.2803  0.2813 -0.2816
28247W        W44141  13.074   6.456   5.199  0.1644 -0.0407 -0.1636
28248W        W44142   0.481  16.181   1.467 -0.3342 -0.0940  0.3378
28249W        W44143   0.066   9.731   2.788 -0.1132  0.2105 -0.1278
28250W        W44144   5.760   2.426   3.784 -0.1781 -0.1369  0.3071
28251W        W44145   5.676  18.297   4.602 -0.0229 -0.2541 -0.0899
28252W        W44146   8.508  18.498  10.549  0.1457 -0.2454  0.0556
28253W        W44147   7.675  14.513   3.731 -0.1525  0.1749  0.1639
28254W        W44148  18.930   9.859   3.718 -0.5033  0.3001 -0.2585
28255W        W44149   6.288   8.904   2.173 -0.2052 -0.0317 -0.1147
28256W        W44150  15.321   0.564  13.313  0.1717 -0.0286 -0.1965
28257W        W44151   9.491   7.357  11.295 -0.0785  0.1189  0.0879
28258W        W44152  14.471  14.348  13.738 -0.0243 -0.3327  0.0345
28259W        W44153  12.242  16.297  13.159 -0.0771 -0.0429 -0.3969
28260W        W44154   1.381  17.781  10.627 -0.2220 -0.1406  0.0191
28261W        W44155   0.303  11.382  13.926 -0.0687  0.1786  0.2830
28262W        W44156  11.234  16.155  10.249 -0.1770 -0.0239 -0.1655
28263W        W44157  14.240   7.578  12.173  0.0445 -0.0128  0.0523
28264W        W44158   3.616   1.886   5.345  0.0836 -0.4829  0.0048
28265W        W44159  16.056   4.364  10.798  0.0645 -0.1272 -0.1411
28266W        W44160   3.728  10.609  14.414 -0.1031 -0.2281  0.0268
28267W        W44161  18.858  15.567   3.705  0.0236 -0.1917 -0.0232
28268W        W44162   6.737  18.207   1.412  0.2789 -0.5762 -0.1880
28269W        W44163  16.469  15.114  11.303 -0.0508 -0.4115 -0.0541
28270W        W44164  16.652  18.233   4.433 -0.2012 -0.1678 -0.4784
28271W        W44165   0.049   8.884  10.825 -0.2543  0.0038  0.0001
28272W        W44166   6.729  16.296  12.683 -0.3765 -0.2683  0.0742
28273W        W44167   7.793   6.019   3.417 -0.1270 -0.1237 -0.1362
28274W        W44168   9.994   3.792  11.927  0.0744  0.0511 -0.3206
28275W        W44169   6.814  10.151  13.764  0.3150  0.2097 -0.0556
28276W        W44170   8.913   3.511   4.127  0.3087  0.0690  0.1037
28277W        W44171  16.096  10.011  12.038  0.1224 -0.0149 -0.0849
28278W        W44172   6.946   8.512   0.462 -0.2504  0.0071  0.0593
28279W        W44173   5.067  15.050  13.169 -0.0629  0.2818 -0.1366
28280W        W44174   6.827  17.404  14.875  0.1348  0.0520 -0.0886
28281W        W44175   6.055   6.357   4.957  0.0959  0.1600 -0.0914
28282W        W44176  14.586  11.916   2.821  0.0447  0.0199 -0.2746
28283W        W44177  14.781   2.083   2.901  0.0574  0.0380 -0.3851
28284W        W44178   9.677   9.404   3.795  0.1603 -0.1301 -0.0798
28285W        W44179   6.523  13.528   4.959  0.2899 -0.3750  0.4098
28286W        W44180   9.208   2.217   3.201  0.0719  0.1054  0.0153
28287W        W44181  11.574  14.725   3.387 -0.3574  0.3790  0.0768
28288W        W44182   6.885  12.029  14.139  0.2549 -0.1394 -0.1290
28289W        W44183  15.886  17.438  13.623 -0.0633 -0.1447 -0.2563
28290W        W44184   6.240  18.990  14.804  0.1256 -0.1893  0.0708
28291W        W44185   3.592   5.684  11.419  0.0016  0.0501  0.2202
28292W        W44186  15.864   1.515   4.950  0.2383 -0.0334  0.1559
28293W        W44187   8.394  16.304  13.878 -0.2629  0.0013  0.3593
28294W        W44188   3.504   8.613  12.910 -0.0534 -0.3041  0.2280
28295W        W44189   9.319  18.771   4.707  0.0279  0.1316  0.1262
28296W        W44190  12.722   9.454  12.978 -0.2670 -0.2566 -0.0222
28297W        W44191  18.886  11.464   1.502  0.1006 -0.0101 -0.0163
28298W        W44192   9.502  16.253  12.497 -0.0831  0.2098  0.8085
28299W        W44193  12.852  18.186   3.534  0.0834 -0.0924 -0.3914
28300W        W44194   0.925  14.511   3.209  0.0127  0.0717 -0.2764
28301W        W44195   9.313   1.492   0.840  0.1536  0.0551 -0.1070
28302W        W44196  11.741  11.376   3.376  0.0082  0.1172  0.0103
28303W        W44197   0.682  12.063  11.889 -0.0297 -0.2925 -0.1661
28304W        W44198  11.141   3.028  13.677  0.0285 -0.0330  0.4519
28305W        W44199   6.403   2.893  10.843 -0.1225  0.0921 -0.0103
28306W        W44200  12.850  16.118   2.177  0.0474  0.2538  0.1994
28307W        W44201   8.732   4.221   4.317 -0.0476 -0.0638 -0.0047
28308W        W44202   8.213  19.218   2.560 -0.0431 -0.0552  0.1095
28309W        W44203   3.261  11.166  14.220 -0.1114  0.0180 -0.1431
28310W        W44204   4.560   0.350   0.093 -0.0570  0.5055  0.0135
28311W        W44205  10.053  12.860   1.360  0.0908  0.0074  0.3160
28312W        W44206   5.738   9.755  14.370  0.0952  0.0794  0.1029
28313W        W44207   7.909   6.487  13.664 -0.2397  0.2589  0.2911
28314W        W44208  15.201   6.603   5.084 -0.1263 -0.1579 -0.3317
28315W        W44209   3.104  17.945  13.293 -0.0650 -0.1049  0.0202
28316W        W44210   4.444   7.420   2.398  0.1029 -0.1879  0.1005
28317W        W44211   9.031   8.267   3.285 -0.2156  0.1790 -0.3723
28318W        W44212  10.283  17.655  13.606  0.0743  0.1697  0.0165
28319W        W44213  11.770   1.352   1.378 -0.1620 -0.6209 -0.0030
28320W        W44214  13.044  16.460  11.856 -0.3266  0.0255 -0.0545
28321W        W44215   4.294  14.220   4.369 -0.1058  0.2551  0.1986
28322W        W44216  13.810  12.003  11.914  0.1551  0.1871  0.0390
28323W        W44217  18.633   5.449   2.255 -0.2416  0.1247  0.2965
28324W        W44218  13.268  17.059   3.793 -0.1970 -0.2173  0.0390
28325W        W44219   8.453  18.659  13.616 -0.1304  0.2490  0.0498
28326W        W44220   7.109  13.728   3.686 -0.1793 -0.0355  0.0853
28327W        W44221   1.868  12.036   1.707 -0.0004  0.1221  0.1549
28328W        W44222   6.834  13.878   4.972 -0.2382 -0.4997  0.1416
28329W        W44223  13.097   2.374  11.341 -0.1358 -0.0644  0.1500
28330W        W44224   6.580   3.403   5.006 -0.3767 -0.0456  0.1502
28331W        W44225  11.025  14.656   4.705  0.2671  0.2795  0.1098
28332W        W44226   7.877  14.691  14.496 -0.1791  0.1078  0.0219
28333W        W44227   7.376   8.610  12.151  0.1487  0.0576 -0.1683
28334W        W44228  10.579  18.429   3.614 -0.4005  0.1849 -0.2606
28335W        W44229   3.995   5.318   0.395  0.2001  0.0808  0.1372
28336W        W44230  14.995   8.480  14.048  0.0677  0.0083  0.1115
28337W        W44231  13.893   6.015   2.451  0.0589  0.1160  0.1539
28338W        W44232   2.847   7.307  13.090  0.1187 -0.2804  0.3410
28339W        W44233   3.669  17.988   0.869  0.1479  0.2351  0.1806
28340W        W44234  16.002  13.019  10.347 -0.1167 -0.1286  0.1345
28341W        W44235   1.201   3.788  11.521  0.0510  0.4003 -0.0325
28342W        W44236   3.979  10.265   2.708  0.1257  0.2707 -0.4505
28343W        W44237   0.146  13.016   4.846 -0.1667 -0.0055  0.0919
28344W        W44238   4.560  16.257   2.486 -0.1308  0.1173 -0.1544
28345W        W44239  15.692   6.542  11.301  0.3349  0.0376  0.1567
28346W        W44240   5.019   6.320   4.105  0.1463  0.0775  0.2628
28347W        W44241   3.888  12.051  14.268 -0.1922 -0.0299 -0.0209
28348W        W44242  13.076   4.589   3.743 -0.1036  0.1953  0.0295
28349W        W44243  14.398  19.169   1.655  0.0234  0.0604  0.1763
28350W        W44244  14.455  16.068   0.437 -0.2239  0.1462 -0.1227
28351W        W44245   9.036  18.552  12.516  0.1113 -0.0437 -0.1588
28352W        W44246  16.302   4.090   2.309  0.2441 -0.1957  0.1467
28353W        W44247  16.355   2.701   3.528  0.1956 -0.5592  0.0712
28354W        W44248   8.285  17.844  14.054 -0.0779 -0.1448 -0.1631
28355W        W44249   8.218  16.497  13.412 -0.0311  0.1913  0.1359
28356W        W44250   9.996   9.357   3.368 -0.3264  0.0551  0.3477
28357W        W44251   6.958  13.384   0.818 -0.0502 -0.1666  0.1835
28358W        W44252   3.349  11.770  12.848 -0.2571  0.2055 -0.2660
28359W        W44253   6.724  12.089   2.348  0.0769  0.3730  0.3223
28360W        W44254  16.529   1.824  13.866  0.1565  0.1249  0.3007
28361W        W44255  12.363  18.600   8.922  0.3806  0.2425 -0.2115
28362W        W44256   5.793  14.762   0.732 -0.1486 -0.0631 -0.0433
28363W        W44257  17.259   9.761   2.048  0.0281 -0.1716 -0.1372
28364W        W44258   5.259   2.032  12.336  0.2964 -0.0211 -0.0746
28365W        W44259   8.012   0.170  10.596  0.5548  0.0184  0.0593
28366W        W44260  11.522   2.045  13.625 -0.2547  0.2230 -0.0968
28367W        W44261  17.083   3.432  11.158 -0.2290 -0.0547 -0.1572
28368W        W44262   8.246   3.502   0.005 -0.0035 -0.0373 -0.2803
28369W        W44263   9.874   1.661   4.490 -0.7163 -0.0793  0.1047
28370W        W44264   0.575  17.871   0.186 -0.0463 -0.1670  0.1322
28371W        W44265  16.588  13.392   4.271 -0.1260  0.2675  0.0930
28372W        W44266   8.588   5.388  14.170  0.0669  0.2118 -0.0281
28373W        W44267  11.831   6.615  13.311  0.2914 -0.1382  0.0221
28374W        W44268   2.925  16.764   1.935 -0.1925  0.0089 -0.3751
28375W        W44269  13.304  16.584  11.422 -0.2525  0.0627 -0.0037
28376W        W44270   3.222  10.673   4.973 -0.0744 -0.1182  0.0130
28377W        W44271  10.483   3.443  12.688 -0.4071  0.1108  0.0685
28378W        W44272  17.067   3.873   2.210  0.1090  0.1531 -0.2890
28379W        W44273   2.616  13.082   1.376  0.1058 -0.2464 -0.1705
28380W        W44274  16.778   6.864   1.551  0.2869  0.1803 -0.1591
28381W        W44275   2.388  15.778  14.254  0.1762 -0.0911 -0.0563
28382W        W44276  16.009  12.669  13.281  0.1081 -0.1554 -0.1435
28383W        W44277  18.835  10.815   1.849  0.3119 -0.2780 -0.0711
28384W        W44278  11.460   3.844   0.063  0.2799 -0.2493 -0.0989
28385W        W44279   2.449  13.181   2.217 -0.0743 -0.1065  0.0895
28386W        W44280   9.302   4.831  10.923  0.1448  0.0240  0.3405
28387W        W44281   5.329  14.678   1.533  0.0193  0.2010 -0.1622
28388W        W44282  12.016   1.147   4.646  0.1430 -0.0783 -0.2610
28389W        W44283  16.690   8.621   4.174  0.3231  0.1590 -0.1264
28390W        W44284   3.169  12.729   4.352  0.1922 -0.0832 -0.2638
28391W        W44285  11.371   7.538   4.298  0.1924 -0.1185 -0.0450
28392W        W44286   7.720   4.831  10.662 -0.3820  0.5351  0.0834
28393W        W44287  12.015  10.453   4.328 -0.0782 -0.1573  0.1561
28394W        W44288  10.202   6.744   3.927 -0.0657  0.2278 -0.1581
28395W        W44289   7.892  13.301  13.801  0.0056  0.1488 -0.1008
28396W        W44290   3.281   9.386  14.809  0.0083  0.2055  0.0495
28397W        W44291   2.180  13.141   4.607 -0.2087  0.2054  0.1072
28398W        W44292   2.334   9.628  11.740  0.0498 -0.0297 -0.0513
28399W        W44293   9.226  11.142  10.597  0.1711 -0.1174  0.3056
28400W        W44294   6.189   6.043   6.121 -0.4322 -0.0834  0.0564
28401W        W44295   8.044  14.098  12.171  0.2404  0.0639 -0.3093
28402W        W44296   9.513   8.439   5.727  0.0389 -0.3519 -0.1678
28403W        W44297  12.413  19.048  11.566 -0.2891  0.1976 -0.0305
28404W        W44298   1.131  14.469  11.506 -0.0512 -0.0986 -0.3020
28405W        W44299  18.538  14.669   3.136  0.0441  0.1038 -0.0519
28406W        W44300   9.438  11.871   1.054 -0.1368 -0.2611  0.2345
28407W        W44301   0.328   4.475  13.646  0.0820 -0.4202 -0.0950
28408W        W44302   0.300   2.478   0.189 -0.2864 -0.3500  0.1552
28409W        W44303   3.028   9.193   2.351  0.1739 -0.0061 -0.0410
28410W        W44304   3.417   9.288   2.046 -0.0708 -0.0793 -0.2201
28411W        W44305  13.789   5.764   0.529 -0.0850  0.3257  0.3196
28412W        W44306  12.293   3.127   1.813  0.0850 -0.0808  0.1371
28413W        W44307  11.905   4.241  11.063  0.0060 -0.2394 -0.3792
28414W        W44308  17.562  19.072  14.304 -0.0387  0.3192 -0.3855
28415W        W44309   4.053  14.451   5.065 -0.0771 -0.1995 -0.2616
28416W        W44310   8.470  14.989   2.878  0.1357 -0.1738  0.1078
28417W        W44311   2.083  14.406   4.723  0.1936 -0.0497 -0.2726
28418W        W44312  14.839  17.487  10.544  0.1532 -0.2352  0.1366
28419W        W44313  11.268  15.412   4.071  0.2667 -0.0355 -0.1694
28420W        W44314  18.068   9.354   0.058 -0.2681  0.2727 -0.1260
28421W        W44315  14.875   0.636   4.964 -0.1378  0.0109  0.0085
28422W        W44316   2.551   5.014  12.555 -0.0657 -0.0156  0.2694
28423W        W44317  17.103  17.712   1.390  0.0757 -0.0679 -0.0087
28424W        W44318   2.802  15.836  12.819 -0.0555 -0.2867 -0.0442
28425W        W44319   2.937  18.403   3.945 -0.2987  0.2867  0.0276
28426W        W44320   4.392   2.625   5.062  0.2790 -0.3050  0.3323
28427W        W44321   4.514  14.496   4.808 -0.0485  0.2209  0.0230
28428W        W44322   6.106   2.299   4.700 -0.1087  0.0467 -0.0875
28429W        W44323  11.415  13.576   1.285  0.0026  0.6333  0.1783
28430W        W44324   1.540  13.032  11.876 -0.0755 -0.2220 -0.1039
28431W        W44325   6.053   3.401   3.864  0.0954  0.1877  0.3843
28432W        W44326   7.954   5.112  12.486 -0.1000 -0.0373 -0.1025
28433W        W44327   3.888  12.724   0.223 -0.0747  0.1137 -0.3144
28434W        W44328  18.051  13.645   4.530  0.3955  0.2465 -0.2946
28435W        W44329  14.656   1.178   0.130 -0.0002 -0.0312  0.1011
28436W        W44330  16.202  10.904   3.127  0.0955  0.1894  0.0531
28437W        W44331   9.095   8.282   4.914  0.2458 -0.0895  0.3915
28438W        W44332  14.107  15.345  10.034  0.0025  0.2943 -0.1565
28439W        W44333  16.126  13.763   1.372  0.1913  0.0939 -0.4310
28440W        W44334   1.937   4.709   5.433 -0.0590  0.0553 -0.0120
28441W        W44335  16.744   0.116   0.237 -0.1473 -0.3657  0.0759
28442W        W44336   7.190   4.403  11.161 -0.2045  0.1953 -0.0050
28443W        W44337  17.088   7.635  12.482 -0.0425  0.0591  0.0856
28444W        W44338   5.208   6.788  13.799 -0.0244  0.0263  0.0124
28445W        W44339   1.274   2.547   4.311 -0.1135  0.1904 -0.1804
28446W        W44340  10.228   1.289   1.395  0.0265  0.0844  0.0733
28447W        W44341   7.133   1.101  13.270  0.1075 -0.0190 -0.1253
28448W        W44342   1.828   2.697  11.753 -0.0398  0.2184 -0.1052
28449W        W44343   1.245   9.082   0.468 -0.2097 -0.2004  0.1633
28450W        W44344  15.241   9.624  14.391  0.0253 -0.0865  0.2089
28451W        W44345  11.025  16.061   1.918 -0.3605  0.0782  0.1119
28452W        W44346   1.853  12.376  10.823 -0.0346 -0.2867 -0.3542
28453W        W44347  16.652  11.468  13.235 -0.0805  0.0248 -0.1018
28454W        W44348   4.489  14.518   1.330 -0.0528 -0.1548 -0.3303
28455W        W44349  15.243   1.324  13.572 -0.2797 -0.0410  0.0312
28456W        W44350   8.864   8.568  11.592 -0.1577 -0.3366 -0.3824
28457W        W44351   6.468   9.885  14.092  0.0887 -0.0209  0.4099
28458W        W44352  12.551  17.343   9.262 -0.4569  0.2402  0.3080
28459W        W44353   7.804   6.876   1.910  0.3046 -0.1768 -0.1019
28460W        W44354   7.154  17.199  11.086  0.2127 -0.1921 -0.0206
28461W        W44355  16.121   6.337   2.479  0.0333  0.1393 -0.0102
28462W        W44356   8.895  11.402  13.238  0.1093 -0.0309 -0.1679
28463W        W44357  11.369   3.443   0.379 -0.0243  0.0148 -0.2094
28464W        W44358   0.808   3.160  13.799 -0.4929 -0.1380  0.2072
28465W        W44359  13.537   7.774  13.807 -0.4783 -0.1268 -0.1387
28466W        W44360   3.412  17.216   0.270  0.3022 -0.0478 -0.0153
28467W        W44361  14.818   6.687  14.570 -0.2779  0.0939 -0.0753
28468W        W44362  18.702  18.555   3.849 -0.1350  0.2208 -0.0103
28469W        W44363  10.157   7.854   1.121  0.3860  0.3304 -0.2573
28470W        W44364  16.126   2.505   4.105  0.0250  0.2136 -0.1123
28471W        W44365  16.870  18.676  13.540 -0.2950  0.1698 -0.0536
28472W        W44366  15.228   4.212  12.450  0.0370  0.0903  0.0402
28473W        W44367  18.800  13.108  10.677  0.1623 -0.0210 -0.3019
28474W        W44368   9.799  14.313   4.108  0.0556 -0.0925  0.1349
28475W        W44369  10.974   4.169   2.203 -0.1384 -0.3190 -0.1877
28476W        W44370  13.955  19.172   1.240 -0.1419  0.1399  0.4192
28477W        W44371  12.428  12.397   3.388 -0.0087  0.1384  0.0762
28478W        W44372   5.233  12.595   3.773 -0.0409  0.0706 -0.3564
28479W        W44373  19.039   3.631  11.514  0.3557  0.1919  0.2996
28480W        W44374  16.617   5.883  11.502  0.4586  0.1222  0.2982
28481W        W44375  14.995   2.354   3.227  0.1788  0.0265 -0.2422
28482W        W44376  15.685  15.811   1.644  0.1170  0.0302 -0.1524
28483W        W44377  10.847   6.054  14.235 -0.0028  0.1101  0.1563
28484W        W44378   6.844   3.873   2.182 -0.0627  0.2749 -0.2221
28485W        W44379  13.223   2.519  12.662  0.0387  0.0842 -0.1678
28486W        W44380   0.214   8.163  11.810  0.1600  0.1994 -0.2754
28487W        W44381  14.831   8.791   1.882  0.0299 -0.3161 -0.0697
28488W        W44382   6.216   9.440   1.324  0.0949  0.0677 -0.0860
28489W        W44383   0.237   4.094   3.015 -0.0258  0.1141 -0.3145
28490W        W44384   4.015  10.488  12.895 -0.0398 -0.2512  0.1584
28491W        W44385  14.783  12.422   3.149 -0.0085  0.0057 -0.2660
28492W        W44386   0.383  17.572  11.463  0.0305  0.0003 -0.0505
28493W        W44387   6.833  13.421   0.346 -0.0953 -0.0580 -0.2406
28494W        W44388   0.994   3.717   2.841  0.0590  0.0745  0.3455
28495W        W44389   5.027  11.142  13.767 -0.1809  0.1722 -0.0632
28496W        W44390  15.765   9.008   5.694  0.1656  0.2090  0.1642
28497W        W44391  14.415  16.259   4.456  0.0735 -0.0103  0.1646
28498W        W44392  16.083   3.809  10.673 -0.3092 -0.1557  0.1287
28499W        W44393  15.537  14.575   4.635 -0.4035 -0.1199 -0.0876
28500W        W44394   1.860   3.788   3.919  0.2297 -0.3601  0.0454
28501W        W44395   1.470  16.939   0.281 -0.0601 -0.2682 -0.3258
28502W        W44396  14.530  14.799   0.882 -0.0904  0.0871  0.1953
28503W        W44397  14.793   5.407   4.296 -0.0891  0.0144  0.3498
28504W        W44398   9.537  17.247  11.546 -0.3385  0.3570 -0.0115
28505W        W44399   0.317   8.623  11.605 -0.1133  0.0829  0.3303
28506W        W44400   2.408  14.185   1.142 -0.1146  0.2560 -0.1620
28507W        W44401   1.532   7.016   4.013 -0.2292  0.0157  0.3981
28508W        W44402  17.010  18.125  12.809  0.3565 -0.0303  0.1937
28509W        W44403   7.710  12.020  10.562 -0.3467  0.0871 -0.4176
28510W        W44404   8.447  18.218   4.087  0.2025 -0.1170  0.0874
28511W        W44405  10.053  17.343  11.114 -0.0521  0.0049 -0.0319
28512W        W44406   9.791  10.293  10.790 -0.3889  0.0877 -0.0299
28513W        W44407  17.615  11.368   2.489 -0.3230  0.2521  0.1462
28514W        W44408  10.980   4.944  12.531  0.0390 -0.0751  0.0264
28515W        W44409  19.051  17.448   2.790 -0.0454  0.2307  0.0103
28516W        W44410   9.913  15.586  10.523  0.0094  0.1349 -0.1845
28517W        W44411  10.260   4.286   0.344 -0.3156 -0.2063  0.1008
28518W        W44412  15.812  12.568   0.426  0.2207  0.2334 -0.2487
28519W        W44413  14.694  12.468  12.043 -0.1958  0.4544 -0.2201
28520W        W44414   2.089   9.961   2.051 -0.0224 -0.0137  0.1748
28521W        W44415   0.463   3.664  12.317 -0.1859  0.2885 -0.1319
28522W        W44416  11.635  10.512  12.592  0.1010  0.0399 -0.1291
28523W        W44417  13.778  13.876   4.385  0.2001  0.2248  0.0430
28524W        W44418  11.902   2.676  12.053 -0.1175  0.4046 -0.0460
28525W        W44419   1.504   9.514  14.546 -0.0208 -0.0067  0.0592
28526W        W44420  10.154   4.976  13.201 -0.3550 -0.1713  0.0161
28527W        W44421   8.582  14.489  13.777 -0.1536 -0.1161  0.0925
28528W        W44422  14.608  19.159  14.420 -0.2585 -0.0196 -0.1520
28529W        W44423   6.719   2.573  15.004  0.0200 -0.2199 -0.0209
28530W        W44424   7.537   5.195  11.705 -0.3315 -0.2525 -0.1391
28531W        W44425  13.398  11.708   2.289  0.1549 -0.0298  0.4122
28532W        W44426   9.229   4.268   0.087 -0.0566  0.0387 -0.1245
28533W        W44427   1.290   0.224   4.327 -0.1593 -0.2406 -0.0884
28534W        W44428  16.947   0.457   4.991  0.3809 -0.1212  0.1625
28535W        W44429  12.108   8.890   0.505  0.3310 -0.3246  0.2008
28536W        W44430  16.611   5.497   3.544 -0.0844  0.1709  0.0526
28537W        W44431  13.047  14.488   0.541  0.2152 -0.2625 -0.1075
28538W        W44432  11.200  11.282  14.710  0.0939 -0.0795  0.3056
28539W        W44433  10.559   0.917   1.545  0.1242  0.0553 -0.1617
28540W        W44434  15.029   9.455   2.848  0.3722 -0.1863  0.2103
28541W        W44435   4.576   4.585   2.554  0.5839 -0.0841  0.1308
28542W        W44436  14.824   1.338   2.401 -0.1433 -0.4086  0.0755
28543W        W44437   3.458   6.271   3.041  0.1706  0.0141 -0.2072
28544W        W44438  15.378  14.717  13.102 -0.1147  0.1954 -0.0809
28545W        W44439  18.146  17.725   0.580  0.1984 -0.2661  0.0862
28546W        W44440  11.775  18.846   1.414 -0.0796  0.1502 -0.0064
28547W        W44441  10.763  12.169  10.572 -0.1428 -0.3525  0.0880
28548W        W44442   0.502  13.420   3.711  0.1901 -0.0694  0.2351
28549W        W44443   0.307  10.333  12.163  0.1492  0.0365 -0.2388
28550W        W44444  14.786  11.532   0.154 -0.1363 -0.0956  0.0195
28551W        W44445  14.849  15.375   1.599  0.0021 -0.1736 -0.0288
28552W        W44446   2.213   5.663   1.263 -0.1184  0.4157 -0.0598
28553W        W44447  18.651   0.753  13.242  0.0638  0.1006  0.1368
28554W        W44448   8.166   1.385  13.926 -0.2390  0.0920  0.5596
28555W        W44449  17.400  13.027   1.876  0.0012  0.0142  0.1322
28556W        W44450   2.977  15.774  10.932 -0.0426 -0.2486  0.1857
28557W        W44451   0.536   7.807   3.503  0.0288 -0.1724  0.1051
28558W        W44452  15.677  11.182   1.954  0.0044  0.0355 -0.1207
28559W        W44453  11.111   7.039  12.265  0.2187  0.3430 -0.3852
28560W        W44454  11.498   2.873  14.009 -0.0100 -0.1362 -0.2478
28561W        W44455  15.340   3.688   6.054  0.0204  0.3045  0.0133
28562W        W44456  16.978   6.863  13.024  0.0978  0.2712 -0.1525
28563W        W44457   0.925  12.353   1.775  0.0738 -0.0028 -0.2193
28564W        W44458   3.167   4.414   1.496 -0.0611 -0.0531  0.3390
28565W        W44459   8.142   7.386   0.464 -0.1517 -0.0831  0.0167
28566W        W44460   1.227   0.920   9.722 -0.1033  0.2539 -0.1232
28567W        W44461  14.513   9.324   0.003  0.0633  0.0061  0.2959
28568W        W44462   7.749   9.383  14.826  0.0171  0.2851  0.2810
28569W        W44463   5.840  17.678  10.655 -0.2009 -0.3007 -0.0335
28570W        W44464   0.478  15.107  12.724  0.2463  0.0273  0.0029
28571W        W44465  13.847   1.876   0.508  0.1293  0.1809 -0.0095
28572W        W44466   3.565   4.083   1.426 -0.2038  0.1464  0.5108
28573W        W44467   4.506   5.969   3.158 -0.0639 -0.0825  0.1330
28574W        W44468   2.445  13.000   0.035 -0.1080  0.1530  0.1613
28575W        W44469   4.246  17.372  10.338 -0.1783 -0.0476  0.1135
28576W        W44470   4.626  10.327  12.810 -0.1529 -0.1297  0.1610
28577W        W44471  12.320   7.790   2.065 -0.0418  0.1480  0.0943
28578W        W44472  13.378   0.791   5.001 -0.2599 -0.1065 -0.2096
28579W        W44473   4.644   4.254  15.047 -0.1096  0.1986  0.1373
28580W        W44474  14.961  16.616  13.068 -0.1077  0.2043  0.3607
28581W        W44475   9.525   5.597  11.134  0.1920  0.0140  0.0069
28582W        W44476   3.902   2.239   4.841  0.0682  0.0945  0.2583
28583W        W44477  11.150  11.973   3.984  0.0711 -0.3668 -0.1133
28584W        W44478   1.043  16.171   4.530  0.2832 -0.2994 -0.1120
28585W        W44479   1.242   8.984   4.746  0.2587 -0.0244 -0.3595
28586W        W44480   9.150  10.544   2.304 -0.0507 -0.0743  0.3715
28587W        W44481   9.125  10.313   2.995  0.2813  0.1912 -0.0717
28588W        W44482   1.390   5.398   6.013  0.2676  0.1378  0.1291
28589W        W44483   4.045  18.808  13.810 -0.2531 -0.0021 -0.0863
28590W        W44484   5.401   4.011   4.692  0.0606  0.1371  0.2149
28591W        W44485   6.300   0.273  11.212  0.0657  0.1087  0.0346
28592W        W44486   9.880  14.706  13.156  0.1264 -0.0532 -0.1831
28593W        W44487  15.490   7.393   3.513 -0.0650 -0.0870 -0.3123
28594W        W44488   6.323  12.193   3.254 -0.0654  0.1261 -0.1893
28595W        W44489   1.909  14.671  10.615  0.0141 -0.1196  0.3074
28596W        W44490  18.132  15.967   2.550 -0.2834 -0.0747 -0.1554
28597W        W44491   3.154   8.744   2.644 -0.1286  0.1159 -0.1666
28598W        W44492   8.935   1.705  10.450  0.0831 -0.1659 -0.1245
28599W        W44493  16.851   1.699   1.276  0.0451  0.1322 -0.0261
28600W        W44494  14.713   0.809   4.432  0.0731  0.0714  0.2524
28601W        W44495   4.953   4.033   1.370 -0.2869  0.3098  0.2448
28602W        W44496  16.750  17.003  13.581 -0.2032 -0.0166  0.0014
28603W        W44497  11.584   1.016   1.042 -0.0235  0.3629 -0.0979
28604W        W44498   9.366   5.353   2.829  0.0832 -0.0246 -0.0186
28605W        W44499  16.888  17.871   4.140 -0.3820  0.0649 -0.1775
28606W        W44500   2.342  16.398   5.098  0.1369 -0.0897 -0.1460
28607W        W44501  11.548  10.919  13.396 -0.1019 -0.1426  0.0145
28608W        W44502   5.755   0.808  13.757  0.0884  0.2474 -0.2455
28609W        W44503  15.853  16.882  11.237 -0.0593 -0.1952 -0.2757
28610W        W44504   5.540   8.781   3.055  0.3394  0.2243  0.0947
28611W        W44505  17.750  12.287   0.800  0.0220 -0.1229  0.0252
28612W        W44506  12.363  10.016  14.811  0.1081 -0.3170 -0.2143
28613W        W44507  16.795   8.419  12.005  0.1214  0.0935 -0.1558
28614W        W44508  16.719   6.532  13.319 -0.0681 -0.1548  0.1414
28615W        W44509  15.431   7.029  11.259  0.1093 -0.1679  0.1869
28616W        W44510   6.022  10.082   4.616 -0.0432 -0.0685 -0.4010
28617W        W44511   5.062   4.516  14.925  0.0315 -0.0520  0.0123
28618W        W44512  16.095   1.129   9.976  0.0247  0.4177 -0.3950
28619W        W44513  10.845   6.478   1.816 -0.3309  0.0333  0.3606
28620W        W44514  14.657  17.794  14.608  0.1823 -0.0414  0.1352
28621W        W44515   6.851   0.998  14.133  0.0482 -0.4148  0.2582
28622W        W44516   8.987  12.105  11.835  0.0462  0.0926  0.2897
28623W        W44517  17.953   8.969   4.469  0.2236 -0.3538  0.3853
28624W        W44518   4.549  10.614  10.513 -0.0077 -0.3016  0.1760
28625W        W44519  16.078  16.458   0.982  0.0633  0.0920 -0.0892
28626W        W44520   6.053   9.638   2.807 -0.0490  0.1102  0.2480
28627W        W44521  10.563  15.270   2.361  0.0096  0.2930 -0.0159
28628W        W44522  16.515   5.231   2.436  0.0825 -0.2368  0.0369
28629W        W44523  12.913  10.238  12.084  0.3079  0.0795  0.3620
28630W        W44524   8.152   6.294  12.236  0.0896 -0.0882  0.1525
28631W        W44525  18.606  19.135   4.376  0.1881 -0.3181 -0.0077
28632W        W44526  17.451  13.650  11.428 -0.2574  0.1476 -0.1840
28633W        W44527  15.001   3.872  12.192 -0.0975  0.0329 -0.0949
28634W        W44528   9.740   9.232   0.180  0.1301  0.0687 -0.1332
28635W        W44529   0.272  17.119   3.052  0.0038  0.1818  0.0249
28636W        W44530   7.131   2.781  14.740  0.1670 -0.1801  0.2838
28637W        W44531  14.997  11.557   9.581 -0.0772  0.1992 -0.3030
28638W        W44532   7.650  15.164   2.895  0.0606 -0.2440 -0.3041
28639W        W44533   8.830   6.368  10.640  0.2006 -0.2867  0.2959
28640W        W44534   4.108   6.942  14.676  0.3501 -0.0145  0.1933
28641W        W44535   3.506   2.657   1.085 -0.0807 -0.2477 -0.1303
28642W        W44536   2.668  17.568  12.422 -0.4395 -0.2958  0.1688
28643W        W44537  18.969   2.931   4.758  0.2182  0.2342 -0.1826
28644W        W44538   0.217   0.125   3.331  0.2648  0.2389 -0.2065
28645W        W44539   7.457  10.948   0.447  0.0258 -0.0255  0.0526
28646W        W44540   4.987  16.742   1.970  0.1083 -0.0782 -0.3457
28647W        W44541   8.604  10.099  10.962  0.0051 -0.0796  0.0836
28648W        W44542  18.018   3.605  12.100  0.0283  0.0518 -0.2153
28649W        W44543   2.211   5.167  14.359 -0.3492  0.0353 -0.0132
28650W        W44544  13.663  18.398   3.346  0.2475 -0.1175 -0.1623
28651W        W44545  16.740   4.604   1.679 -0.0520 -0.1009 -0.1668
28652W        W44546  13.704  10.853  13.832 -0.2192  0.1732  0.0945
28653W        W44547   8.524   6.368   3.948  0.3360  0.2608  0.1870
28654W        W44548   1.310  17.219   4.648 -0.0468 -0.3288 -0.1037
28655W        W44549  12.275   4.808   0.447 -0.1562 -0.1668 -0.2744
28656W        W44550  10.269  13.502   2.729  0.2691  0.1687 -0.0385
28657W        W44551  13.221   1.715   1.327 -0.0433  0.0363  0.0174
28658W        W44552   2.621   7.631   4.893  0.0349  0.0480 -0.0992
28659W        W44553   2.547   9.712   4.666  0.0387  0.0230 -0.0280
28660W        W44554   6.302  15.545   0.350 -0.3276  0.2496  0.1599
28661W        W44555  11.043   4.980  13.030  0.0140 -0.1162 -0.0861
28662W        W44556  15.187   3.904  11.166  0.2744 -0.0223  0.0167
28663W        W44557   2.420   8.038  12.271  0.1147  0.2027  0.0287
28664W        W44558   7.384  18.054   4.144 -0.1339 -0.1947  0.0602
28665W        W44559  11.971  19.022   0.191  0.1667 -0.0411  0.1974
28666W        W44560   4.338  12.195   3.672  0.0654  0.0570  0.1521
28667W        W44561   4.721   9.486   2.479 -0.1508  0.3996  0.1363
28668W        W44562   3.358   5.958   5.339 -0.1255  0.2349  0.0782
28669W        W44563  13.187  13.274  10.911 -0.5353  0.1611  0.1275
28670W        W44564  18.674  13.323   5.220 -0.0238  0.2201 -0.2059
28671W        W44565  14.853   9.867   3.942  0.0888 -0.1029  0.4356
28672W        W44566   9.241   7.977  12.774  0.3728 -0.0753  0.3069
28673W        W44567  12.649  10.634   2.694 -0.1840  0.1400 -0.6278
28674W        W44568   2.177   8.080   3.661  0.1608  0.1241  0.3393
28675W        W44569   9.281  10.699  11.601  0.3109  0.4884  0.2035
28676W        W44570   1.857  12.498   1.433  0.0534 -0.0338  0.3554
28677W        W44571  15.761  14.859  14.183  0.1393  0.3165  0.0345
28678W        W44572   9.920   5.268  10.632  0.1307 -0.1424  0.2503
28679W        W44573   7.570   3.766  13.015  0.1547  0.0801 -0.0526
28680W        W44574   2.404  12.948   0.906  0.0581  0.2847  0.0226
28681W        W44575   3.599  14.263   0.806  0.0671 -0.1816  0.0505
28682W        W44576  11.762   3.486   0.005 -0.1633 -0.2512  0.0738
28683W        W44577   5.140   7.944   0.967 -0.1081  0.1118 -0.0461
28684W        W44578  10.107  13.479  13.371  0.0835  0.1014 -0.2085
28685W        W44579  17.693  18.513  14.020  0.1988 -0.2822 -0.0180
28686W        W44580   9.140  18.670   9.004 -0.0795 -0.1724  0.1455
28687W        W44581   7.497   8.749   4.844  0.0000 -0.2382 -0.0911
28688W        W44582   5.324   2.407  13.390  0.3838 -0.2379  0.1080
28689W        W44583  16.988  17.009  10.189  0.2539 -0.0878  0.0661
28690W        W44584   2.556   6.282   2.608 -0.2941 -0.1236 -0.0159
28691W        W44585  10.520  18.828   4.340 -0.3434 -0.0808  0.0574
28692W        W44586   9.272   2.117   1.653 -0.1806 -0.2519 -0.0802
28693W        W44587   8.660  14.394   1.082 -0.2964 -0.1825 -0.5007
28694W        W44588  18.381  17.376   1.908 -0.0818 -0.0804  0.0011
28695W        W44589   5.219  15.934  11.515 -0.3028 -0.0560  0.0070
28696W        W44590   4.851   5.895  13.789 -0.3862  0.2927  0.0977
28697W        W44591   5.642  17.828   4.834 -0.1937  0.0130  0.2430
28698W        W44592   5.397   5.662  13.187 -0.0024 -0.0682 -0.3616
28699W        W44593   0.285   7.710   4.225 -0.0263  0.1320  0.1445
28700W        W44594  16.500   2.902   0.645 -0.2535  0.2858  0.2377
28701W        W44595  19.216   7.190   4.194 -0.1595 -0.1977  0.0374
28702W        W44596   8.084  11.642  13.096 -0.0421 -0.2460 -0.3457
28703W        W44597  18.833   0.502   3.122  0.0907 -0.1126 -0.0784
28704W        W44598  16.897   7.060   1.119  0.1882  0.2035 -0.2065
28705W        W44599  12.707   8.388  13.478 -0.1645  0.0767  0.2976
28706W        W44600   9.345  18.945  13.560  0.2058 -0.1567  0.0776
28707W        W44601  17.828  12.715  10.527  0.2478 -0.3046  0.0017
28708W        W44602   0.652  15.753  10.689  0.0769  0.0191  0.0888
28709W        W44603   8.364   4.283   0.672 -0.1809 -0.2986 -0.3462
28710W        W44604   8.613  14.410   4.476 -0.2228  0.0611 -0.3887
28711W        W44605   3.361   6.125  11.381 -0.1196  0.1059  0.2345
28712W        W44606  13.752   1.121   1.641 -0.1616  0.1632 -0.0538
28713W        W44607   1.163  11.591  13.356  0.0639  0.0325  0.1617
28714W        W44608   7.355  10.187  11.018  0.0817 -0.2298 -0.0981
28715W        W44609   4.265  18.330   3.560  0.1684 -0.2428  0.0881
28716W        W44610   0.324   2.520   5.093 -0.0330  0.3056 -0.0572
28717W        W44611  15.236   4.812   2.836 -0.1790 -0.3110  0.1370
28718W        W44612   3.617   5.667   2.444  0.2043  0.3905 -0.1064
28719W        W44613   6.962   7.865  11.311 -0.1877 -0.1071  0.0900
28720W        W44614  14.254  16.976  12.435  0.3316 -0.1894 -0.1797
28721W        W44615   6.858  18.077   9.301 -0.2787  0.2309  0.2207
28722W        W44616  14.906   7.857   1.697  0.0119  0.1895 -0.0624
28723W        W44617   0.041   0.293  13.514  0.2985  0.2143  0.2236
28724W        W44618   6.943  15.494   4.432  0.2675  0.0201 -0.1213
28725W        W44619   0.243   0.998   2.339  0.0162 -0.0453 -0.3254
28726W        W44620   6.729  16.566   2.026 -0.0771  0.2769 -0.2239
28727W        W44621  10.825  18.789   9.714 -0.2319  0.1325 -0.1093
28728W        W44622  11.055   6.152   4.423 -0.0364  0.0334 -0.1185
28729W        W44623  17.801   8.753  13.402 -0.1473  0.1974  0.1448
28730W        W44624  13.577  10.262   1.382 -0.0731  0.0178  0.1045
28731W        W44625  18.884   9.094   3.322 -0.1525 -0.0094 -0.0244
28732W        W44626   5.294  13.135  12.532  0.0502 -0.1021  0.0177
28733W        W44627  12.092   2.209   3.915 -0.0719 -0.2185 -0.3031
28734W        W44628   9.461  16.480   4.092 -0.1588 -0.1211  0.3049
28735W        W44629   5.651   6.737   1.310  0.2271 -0.1923 -0.0279
28736W        W44630  11.404   4.032  14.675  0.1622 -0.0512  0.2586
28737W        W44631  16.864   6.082  11.155 -0.0728  0.1905  0.4316
28738W        W44632  18.453  14.676   3.704  0.1660  0.0628  0.4825
28739W        W44633  18.500  13.418  14.608 -0.0846 -0.6736 -0.1032
28740W        W44634   9.510  19.187  12.766  0.0132  0.1074 -0.3596
28741W        W44635   8.319  11.469   5.041 -0.2012 -0.0265 -0.2763
28742W        W44636  10.462   2.576   0.348  0.0892 -0.2452  0.1393
28743W        W44637  13.587   7.913   3.595 -0.0285 -0.1049 -0.1569
28744W        W44638  16.328   5.732   3.199 -0.0729  0.1418  0.1021
28745W        W44639  18.791   1.468  10.829  0.1190  0.0367 -0.0862
28746W        W44640  18.413   0.477  11.736  0.1816  0.2359 -0.2050
28747W        W44641  18.688   0.340   1.452 -0.3936  0.0460 -0.0929
28748W        W44642   4.381  11.771   4.911 -0.1276 -0.4171 -0.3028
28749W        W44643   2.087  17.755   2.536 -0.2678  0.1481  0.0485
28750W        W44644  13.442  18.461  12.245  0.1830 -0.0599 -0.1677
28751W        W44645   9.901   7.529   0.836  0.1085 -0.5190  0.4118
28752W        W44646  18.800   6.338   3.502  0.1717 -0.1429 -0.0957
28753W        W44647   6.637  15.911   0.295 -0.0247 -0.2901  0.1471
28754W        W44648  10.594  11.400   4.765 -0.4311  0.2162  0.2052
28755W        W44649   1.104  12.877  12.149 -0.0112 -0.1018  0.2557
28756W        W44650  17.299   7.476   1.820 -0.1987 -0.1663 -0.0788
28757W        W44651   7.864   1.253   4.461  0.0486  0.1541 -0.1633
28758W        W44652   4.101  10.602  12.066 -0.1801  0.2699  0.0257
28759W        W44653   3.716  15.368  11.165  0.0194 -0.3222  0.0319
28760W        W44654  12.140  13.670   2.132 -0.0688  0.2744  0.0887
28761W        W44655  16.186   6.882   3.156  0.3957 -0.5734 -0.2529
28762W        W44656  13.156  17.364  12.958 -0.1862  0.0642  0.1241
28763W        W44657   7.729   9.654   0.100 -0.4365 -0.0865 -0.3224
28764W        W44658  10.418   5.598  11.758 -0.2899 -0.0020  0.2002
28765W        W44659  12.607   5.991   4.959 -0.1791 -0.0509  0.3522
28766W        W44660   4.909   4.145   3.209 -0.0544  0.1891  0.2735
28767W        W44661   0.657  14.617  11.855  0.4522  0.1545  0.2324
28768W        W44662  14.288   0.931  11.194 -0.3696 -0.0969  0.1722
28769W        W44663   8.746   4.344  11.180 -0.1029  0.0587  0.0561
28770W        W44664   6.815   7.953   0.154  0.1608 -0.0774  0.0166
28771W        W44665   6.927   3.337   3.300  0.1223 -0.3000  0.0111
28772W        W44666   5.563   8.875   5.034  0.0442 -0.1788 -0.2802
28773W        W44667  17.622   3.577  11.620 -0.2564  0.4702 -0.0314
28774W        W44668  17.692   5.136  13.667  0.1953  0.0195  0.3479
28775W        W44669   4.923   6.757   3.047 -0.0076 -0.3005 -0.0788
28776W        W44670   5.549  15.405  13.387  0.0412 -0.0754 -0.0947
28777W        W44671  10.610   6.512   4.395 -0.1398  0.3030  0.2383
28778W        W44672  16.211   6.328  13.131  0.0925  0.0321 -0.2169
28779W        W44673   3.544   7.617   0.291  0.2655 -0.1009 -0.2695
28780W        W44674  15.561   7.438  11.512 -0.0044 -0.3517  0.1066
28781W        W44675   8.152   2.182   2.651 -0.0820  0.0436  0.1260
28782W        W44676   1.149  13.182  11.630 -0.1841 -0.0822  0.3861
28783W        W44677   6.082   1.725   3.317  0.2156 -0.1823 -0.0468
28784W        W44678   0.355   6.492  13.348  0.0668 -0.1136  0.0456
28785W        W44679   9.795   7.081   5.411 -0.3034 -0.5107 -0.0353
28786W        W44680   7.286   2.748   2.843  0.5342 -0.1453 -0.2636
28787W        W44681  10.900   3.415   2.050 -0.2475  0.0247 -0.2333
28788W        W44682  17.683   7.176  13.672 -0.2588  0.2948 -0.1811
28789W        W44683  15.479  13.025  14.158  0.1466  0.2365  0.0440
28790W        W44684   8.327   0.053   4.504  0.3005  0.1487 -0.4365
28791W        W44685  12.504  14.671  14.715 -0.0090  0.0519  0.0938
28792W        W44686   3.443   4.842  12.694 -0.0171  0.0951 -0.0428
28793W        W44687   2.942   2.583  14.091  0.0815 -0.1330 -0.0894
28794W        W44688  15.746   5.949  11.960  0.1740 -0.1719  0.0076
28795W        W44689   7.539  18.198   2.827 -0.1622 -0.3136 -0.2495
28796W        W44690   4.842  16.356   0.783  0.0296  0.0968 -0.1591
28797W        W44691   1.942   1.410   4.002 -0.0119 -0.1203  0.0910
28798W        W44692   5.346  16.476   3.310  0.0503  0.1496 -0.1743
28799W        W44693   1.446   6.148   1.435  0.1178 -0.0971 -0.2437
28800W        W44694  15.506  15.165  14.544 -0.1181  0.0035  0.4308
28801W        W44695   9.212   4.520  13.735  0.1682  0.1234 -0.0495
28802W        W44696  12.182  10.487   5.125  0.0890  0.0746  0.5617
28803W        W44697   7.221   2.612  11.164  0.0234  0.0917  0.2152
28804W        W44698   3.697  10.249  13.819 -0.2576  0.1392 -0.1205
28805W        W44699  17.069  10.180   2.243  0.3776 -0.1639 -0.3779
28806W        W44700   3.187  14.764   1.217  0.2325  0.0440 -0.2358
28807W        W44701   7.202  13.147   3.867  0.0958 -0.0530  0.0713
28808W        W44702   8.665   6.671  11.462 -0.1368 -0.0059  0.1777
28809W        W44703  10.552  13.068   2.667 -0.2590 -0.1610 -0.0265
28810W        W44704   6.868   8.166   1.373  0.2095  0.2594 -0.0342
28811W        W44705  14.281  14.500   2.073  0.1182 -0.0791  0.0600
28812W        W44706   3.052   9.546  12.606 -0.0590  0.0071 -0.1051
28813W        W44707  19.162  12.483   3.646  0.0562  0.0107 -0.2319
28814W        W44708  17.629   1.542   3.775 -0.0141 -0.2971  0.0572
28815W        W44709  17.999  15.636  10.643  0.0130 -0.1115  0.0168
28816W        W44710  14.046  18.186   0.233 -0.2999  0.0494 -0.2120
28817W        W44711  18.819  16.899  12.592  0.2050 -0.0556  0.0588
28818W        W44712   9.927   0.683   0.624 -0.2495  0.2602 -0.0388
28819W        W44713   8.686   2.182  11.886 -0.2395  0.2461 -0.2526
28820W        W44714  15.429  15.345   1.545 -0.0624  0.0241  0.0974
28821W        W44715   9.090   1.463   3.800 -0.0014 -0.1059  0.2901
28822W        W44716  14.621  13.638  13.443  0.2205 -0.0090  0.2299
28823W        W44717  14.724  18.461  14.741  0.0065  0.0534  0.2065
28824W        W44718   2.188  11.796  11.991  0.0268 -0.0781 -0.2765
28825W        W44719  18.856   1.400  14.633  0.1966 -0.1723 -0.1350
28826W        W44720  16.861   5.850   1.743 -0.1348  0.4332  0.2177
28827W        W44721   9.991  13.884   2.384 -0.6297  0.0692 -0.1049
28828W        W44722   5.377  10.233  10.837 -0.2573  0.3615  0.1437
28829W        W44723   2.304  13.208  11.224 -0.0816 -0.2469 -0.0210
28830W        W44724   6.735   7.366  11.260  0.0272  0.1862 -0.2607
28831W        W44725   5.922  16.477   1.428 -0.1741  0.3308  0.0326
28832W        W44726  12.903  10.724   0.752  0.2853  0.0549  0.2303
28833W        W44727  18.701   1.007  11.401 -0.3885  0.0021  0.0134
28834W        W44728   6.231   4.144   1.707  0.0481  0.2020 -0.4237
28835W        W44729  10.607   5.022   2.832  0.0734  0.0975  0.2703
28836W        W44730  18.533   1.279   3.388  0.3563 -0.1962  0.0612
28837W        W44731   0.823   7.635   2.221 -0.1173  0.0821  0.1115
28838W        W44732   6.365  14.458  13.592 -0.0797  0.1987  0.0516
28839W        W44733   6.705   7.955  13.748  0.0829 -0.2463 -0.1482
28840W        W44734  11.754  16.099  11.047 -0.1385  0.3224 -0.1987
28841W        W44735   0.436  11.449   3.183 -0.1110 -0.1617 -0.0020
28842W        W44736  12.219  17.342   0.708  0.1573 -0.0273  0.0649
28843W        W44737  11.403   0.540  13.888  0.1529  0.0887 -0.0601
28844W        W44738   5.093   3.372   0.716 -0.0645 -0.2269 -0.1730
28845W        W44739  12.649  12.513  13.521 -0.0242 -0.3516 -0.1250
28846W        W44740   3.551   3.563   1.829  0.2854  0.2497 -0.1181
28847W        W44741   4.187  10.024  12.829 -0.1023  0.4376 -0.2879
28848W        W44742   5.303  19.040   1.279 -0.2598  0.2527  0.2783
28849W        W44743   9.187   1.741  12.169  0.2070  0.1711 -0.0777
28850W        W44744   3.647  14.919  15.052  0.0759 -0.1134  0.1295
28851W        W44745  11.769  13.789   3.997  0.0047  0.5585 -0.1428
28852W        W44746  18.967  14.219  11.467  0.1563 -0.0141  0.0093
28853W        W44747   7.782   9.505  10.823 -0.0906  0.0097 -0.1728
28854W        W44748  15.099  13.717   0.096 -0.1235 -0.3091  0.1939
28855W        W44749   6.913   6.794  10.964  0.0314  0.2077  0.0940
28856W        W44750   4.206   5.118   3.721 -0.1954  0.0638 -0.1801
28857W        W44751   5.533   8.252   2.555 -0.4178  0.2894  0.1214
28858W        W44752   6.216  14.245   1.177 -0.2932  0.1320  0.0287
28859W        W44753  18.284   6.414  12.637 -0.0217 -0.1776 -0.0736
28860W        W44754   8.271   8.396  14.000  0.1552  0.1228 -0.0279
28861W        W44755  18.527   7.077  14.084  0.1946 -0.0638 -0.2570
28862W        W44756   5.269   9.164   5.288  0.1961 -0.0971 -0.2033
28863W        W44757  14.145   8.388  10.076  0.1015 -0.1496  0.2312
28864W        W44758   3.930   9.483  14.429  0.1436 -0.1658  0.1830
28865W        W44759   6.192   8.733  11.561 -0.3022 -0.3269 -0.3277
28866W        W44760  19.081   0.042  11.727 -0.0835 -0.0605  0.1757
28867W        W44761   9.724   8.746   3.312 -0.1957 -0.1872 -0.3803
28868W        W44762  11.326  18.684  11.696  0.0882 -0.0493 -0.0508
28869W        W44763   4.975   0.176  14.934 -0.0108 -0.0152  0.1580
28870W        W44764   4.546  18.443   1.285  0.1198  0.0984  0.2304
28871W        W44765   6.153  14.876   0.199 -0.2562 -0.1147  0.1795
28872W        W44766  16.117  15.903   5.181 -0.1415 -0.2653 -0.0028
28873W        W44767   2.148  11.189   2.422 -0.4204 -0.0641 -0.1768
28874W        W44768   8.713   5.826   3.860  0.2748 -0.1883 -0.1320
28875W        W44769  18.255   5.155  12.202 -0.2534  0.0099  0.1378
28876W        W44770   1.865  15.152   0.698  0.1023  0.3103 -0.2271
28877W        W44771   4.375   7.544  12.639  0.0433  0.0930 -0.0296
28878W        W44772   0.553   7.992  12.976  0.0109  0.2432  0.0331
28879W        W44773   4.967   4.662  13.346 -0.2086 -0.0236  0.0930
28880W        W44774  17.680   6.625   3.475  0.1804  0.3827 -0.3163
28881W        W44775   0.740  16.102  13.130 -0.0119 -0.1793 -0.3335
28882W        W44776  13.981  18.237  14.245 -0.0592 -0.4372  0.1218
28883W        W44777   9.016  15.477  10.002  0.0972 -0.0242  0.0978
28884W        W44778   6.834  12.846   2.859  0.0071  0.1490 -0.2431
28885W        W44779  14.994  10.332   3.924  0.1878 -0.1428  0.0959
28886W        W44780   8.186  16.545  11.562 -0.0315 -0.1181  0.0608
28887W        W44781  13.609   4.561   3.514  0.2342  0.2242  0.2666
28888W        W44782   6.683   2.951  12.238  0.0871  0.1234 -0.0067
28889W        W44783  11.453   1.619   3.729  0.3001 -0.0223 -0.3545
28890W        W44784  12.316   4.983   3.331  0.1259 -0.1513 -0.2677
28891W        W44785  15.754  18.287   5.612  0.1886 -0.0096  0.1782
28892W        W44786   6.225   9.916   1.685 -0.0280  0.0774 -0.2188
28893W        W44787   2.774   5.467   1.850  0.0678 -0.1473  0.0813
28894W        W44788  10.237   8.832   3.427  0.1842 -0.2175 -0.3062
28895W        W44789  14.390  12.573   2.142  0.3372 -0.4278 -0.0078
28896W        W44790  18.820  17.437   4.782  0.1210 -0.2573  0.1161
28897W        W44791  13.419  11.121   0.346  0.2181 -0.2731  0.2382
28898W        W44792  12.958   0.819   0.205 -0.2661  0.0674  0.0854
28899W        W44793   9.785  18.642  12.144  0.0828 -0.3822 -0.0949
28900W        W44794  17.550  14.017  13.798 -0.0340 -0.0272 -0.0771
28901W        W44795  19.026   5.574   6.107  0.1766  0.1407  0.1556
28902W        W44796  12.195  10.476  14.790  0.1691 -0.2172  0.1408
28903W        W44797   7.520  17.752  11.143 -0.1072  0.4233  0.1407
28904W        W44798  16.229   7.953  12.220 -0.0129 -0.1162 -0.2263
28905W        W44799   4.254  16.905  11.282 -0.0587 -0.1365 -0.1615
28906W        W44800  10.150   6.935  15.062  0.2094 -0.0338 -0.1585
28907W        W44801  15.106  18.017  12.551 -0.2733 -0.2045 -0.1808
28908W        W44802  15.878   9.652   0.806 -0.2051 -0.2655 -0.0479
28909W        W44803  13.731  15.980   2.929  0.0407 -0.2781  0.3220
28910W        W44804  10.594  17.643   2.568 -0.0016  0.1821  0.2461
28911W        W44805  18.755   6.678   0.684  0.0408 -0.0576  0.2734
28912W        W44806  18.329   6.126   3.459  0.0629 -0.0666  0.2861
28913W        W44807  12.771   7.051  12.620 -0.0799  0.1820 -0.0503
28914W        W44808  11.338  17.548   4.500 -0.0019 -0.3591 -0.2524
28915W        W44809   1.804  16.085   0.111  0.1278  0.2444  0.2136
28916W        W44810   9.032   8.209   3.924  0.3433 -0.1166 -0.1823
28917W        W44811  11.714  18.864  10.627  0.2499  0.0136 -0.0763
28918W        W44812  15.918  12.600  12.054  0.0487 -0.2946  0.0155
28919W        W44813   3.791  10.918  12.941 -0.2749  0.1341  0.1116
28920W        W44814  11.689   1.916   5.127 -0.4892  0.4678 -0.3010
28921W        W44815  10.435  14.745   2.805 -0.0735 -0.1891  0.0429
28922W        W44816   5.661  15.817   2.496  0.1501  0.0353 -0.1939
28923W        W44817  12.901  10.743   4.743 -0.3743 -0.2133 -0.0456
28924W        W44818   7.822  14.448  13.043  0.1427 -0.3501  0.2143
28925W        W44819   1.951  16.700   4.004  0.0353 -0.1339 -0.0800
28926W        W44820   1.639   8.944   0.809  0.1771  0.2006  0.1880
28927W        W44821   3.368   8.994  11.001 -0.3106  0.1818 -0.1888
28928W        W44822   2.920   9.376   1.009  0.1952 -0.4860 -0.1019
28929W        W44823  11.105   0.744   3.359 -0.0131 -0.0046  0.1006
28930W        W44824  11.598  13.503   4.843  0.0498  0.3199  0.3838
28931W        W44825  10.581   9.423  14.273  0.0888 -0.0938 -0.0826
28932W        W44826   2.375  19.015   2.702 -0.0678 -0.1896 -0.6105
28933W        W44827  15.101  13.769  11.721  0.0319  0.0894  0.0602
28934W        W44828   1.209   9.950   9.690 -0.1693  0.2705  0.0845
28935W        W44829  12.264  18.531  11.390 -0.3792 -0.0260  0.0891
28936W        W44830  11.578   7.171  12.128  0.1961  0.1139 -0.1350
28937W        W44831  17.956   7.497   2.733 -0.1594 -0.4495  0.0308
28938W        W44832  17.587   2.064   4.730  0.0678  0.0501 -0.0515
28939W        W44833   3.774   6.485   3.954 -0.1515  0.0662 -0.0707
28940W        W44834  17.002  12.646   3.162 -0.2377  0.3590  0.1011
28941W        W44835   7.172   1.799  12.615 -0.1665 -0.1216  0.5046
28942W        W44836   5.006  13.900  10.809 -0.0301  0.4120 -0.2146
28943W        W44837  14.841  18.901   1.188  0.0431 -0.0246 -0.0744
28944W        W44838   7.780  17.517   3.268 -0.0949 -0.1998 -0.1135
28945W        W44839  19.090   5.684   3.109 -0.1503 -0.0042  0.3696
28946W        W44840  17.514  17.302  11.840 -0.2494 -0.1137 -0.4503
28947W        W44841  11.180  17.674   3.520  0.0977  0.1605 -0.0384
28948W        W44842  12.781  18.423   4.935 -0.0009 -0.0413  0.2886
28949W        W44843  13.570  15.616   4.882  0.0979 -0.0687 -0.0288
28950W        W44844   6.715   7.818   3.671 -0.1472 -0.0335 -0.0480
28951W        W44845   6.324   0.949  10.727  0.3318  0.1324 -0.2153
28952W        W44846   4.792   5.413  12.990  0.2961 -0.3755 -0.2539
28953W        W44847   5.837  13.409  12.718  0.1311 -0.2241  0.0553
28954W        W44848  15.280  13.245   0.548  0.0839 -0.0700  0.0548
28955W        W44849  15.637  11.266   2.474  0.1010 -0.0027  0.0148
28956W        W44850  16.979   3.340  12.488 -0.6249  0.2519  0.0901
28957W        W44851   9.759   5.090   2.544 -0.2970 -0.1038 -0.1249
28958W        W44852   2.492  10.595  10.694 -0.2175 -0.1850 -0.2638
28959W        W44853   7.043  10.219   2.882  0.3001 -0.2591  0.2749
28960W        W44854   4.142   6.087  14.232 -0.3627  0.1733 -0.2105
28961W        W44855  11.383   7.488   2.899 -0.0491  0.2389 -0.1226
28962W        W44856  11.010  14.692  14.356  0.2981  0.1185 -0.0608
28963W        W44857   1.011  10.618  10.815  0.0327  0.0937 -0.1205
28964W        W44858   9.917   5.843   5.784  0.0210 -0.2608 -0.2831
28965W        W44859   4.154  10.001  11.563  0.0108  0.2355 -0.0674
28966W        W44860   5.358  11.323   0.394 -0.0442 -0.2220 -0.0746
28967W        W44861   9.789   8.826   5.020 -0.3281  0.0353 -0.0864
28968W        W44862   9.399  18.736  14.051  0.1960 -0.0571 -0.1728
28969W        W44863  11.494  11.502   1.828 -0.1367 -0.1625 -0.2264
28970W        W44864   1.537   3.479  11.345  0.0892 -0.1059 -0.0594
28971W        W44865   8.947  12.599  11.638 -0.2852  0.2818  0.4055
28972W        W44866   3.477   7.311   5.323 -0.0918 -0.1566 -0.0595
28973W        W44867   3.440   4.075   0.190 -0.0518  0.1684  0.1017
28974W        W44868   6.302  10.792  11.945 -0.0417 -0.1426 -0.0152
28975W        W44869   5.437  18.306  11.769 -0.2158 -0.1782 -0.2939
28976W        W44870   9.690  10.950  13.076  0.1448  0.2716 -0.0014
28977W        W44871   2.638  14.692  14.089 -0.1612 -0.3828  0.0435
28978W        W44872   1.354  11.519   0.435  0.1172 -0.1986 -0.2314
28979W        W44873   0.542  17.829  14.757  0.0631  0.1022  0.2519
28980W        W44874  18.838   3.178   1.362 -0.1780  0.0742  0.1302
28981W        W44875  11.024   4.560  13.430  0.0309  0.0025  0.2274
28982W        W44876   1.625   8.348  13.757  0.0591 -0.1897 -0.1594
28983W        W44877  12.988  10.454   4.007 -0.0479  0.0023 -0.2049
28984W        W44878  16.316   5.366  10.873 -0.1204  0.0826  0.1207
28985W        W44879   3.272   6.528   3.812  0.0779 -0.1212  0.1120
28986W        W44880   5.217   3.061  13.973 -0.1663  0.0313 -0.3724
28987W        W44881  11.404   9.322   0.953 -0.3560 -0.4374  0.0073
28988W        W44882  15.511  10.622  12.160 -0.1927  0.0660 -0.1103
28989W        W44883   0.652  10.977  11.708 -0.2101  0.2417  0.1055
28990W        W44884  12.089  18.593  11.907 -0.2241  0.0189  0.0984
28991W        W44885   6.298  17.414  14.819 -0.3306  0.0332 -0.0010
28992W        W44886   0.412  17.514   4.070 -0.0855  0.0745  0.0869
28993W        W44887   2.907  12.233  13.599 -0.4269 -0.2510  0.1566
28994W        W44888   3.740  15.458   2.974  0.2534  0.2175  0.1556
28995W        W44889   8.962   0.659   1.733 -0.0290 -0.0191 -0.1131
28996W        W44890   1.270   9.516   0.315  0.1093 -0.1363  0.1051
28997W        W44891   9.069  18.869  11.177 -0.1049  0.0359 -0.3043
28998W        W44892  12.364  13.663  12.921  0.2526  0.4038  0.1641
28999W        W44893   0.314  16.281  14.421  0.0377  0.0173  0.0919
29000W        W44894  15.404  15.629  12.061 -0.2192  0.2237 -0.0664
29001W        W44895  11.843  13.756  14.919  0.2654 -0.2199  0.1508
29002W        W44896   0.350   9.943  13.632 -0.2003  0.0233  0.1330
29003W        W44897   7.318   9.117   9.731  0.2087 -0.2808  0.0016
29004W        W44898   7.224   9.871   0.753  0.0294 -0.4607 -0.0265
29005W        W44899  15.112  15.499  13.092 -0.1318  0.1292  0.0434
29006W        W44900  11.349   6.096   9.576 -0.0811  0.3836  0.1138
29007W        W44901  14.146  10.804   3.554  0.1806 -0.0588  0.2357
29008W        W44902  13.955   8.610   2.110 -0.0262 -0.0021  0.0704
29009W        W44903   9.061  10.414  13.368  0.2550  0.2237 -0.4211
29010W        W44904   0.920   6.882   0.744 -0.4583  0.1512  0.3451
29011W        W44905  17.630   0.252  13.457 -0.0658  0.2090 -0.0733
29012W        W44906  17.356   7.301  10.670 -0.2716 -0.2096 -0.1903
29013W        W44907   7.021  16.607  14.999  0.2485  0.2970  0.0688
29014W        W44908   5.315  17.842  14.009 -0.3706  0.1243 -0.0523
29015W        W44909  11.336  15.434  13.124 -0.0774 -0.0017 -0.0143
29016W        W44910  13.486   4.711  14.302  0.0674 -0.1562  0.0777
29017W        W44911  12.249   4.836   2.473  0.2284 -0.1213 -0.0702
29018W        W44912  13.317  14.319  13.624 -0.1363 -0.0468  0.0586
29019W        W44913   5.533   0.966   3.100  0.1370 -0.0186  0.0729
29020W        W44914   4.312  13.854   1.425  0.1982  0.1089 -0.0112
29021W        W44915   8.514  11.909   0.409  0.3691 -0.0535  0.0658
29022W        W44916  18.551  16.099  11.111  0.3172  0.3121  0.2700
29023W        W44917  12.487  13.757   4.547 -0.1199  0.1257 -0.1085
29024W        W44918  11.744  15.877  10.303 -0.2129 -0.1093 -0.4360
29025W        W44919  11.978  10.978  13.616  0.1508 -0.0704  0.1232
29026W        W44920  12.403  10.752   4.114  0.4006  0.1248  0.3273
29027W        W44921   2.001  12.751   9.523 -0.0223  0.1968  0.0283
29028W        W44922   4.557  17.718   0.960 -0.0310  0.0535 -0.2063
29029W        W44923  12.659   7.567   0.814  0.1381  0.0834  0.2945
29030W        W44924   9.539  11.362   5.170 -0.0312  0.6302  0.0392
29031W        W44925  10.577  17.746  13.099  0.1329  0.1406 -0.0649
29032W        W44926   0.625  17.168   1.777  0.2685 -0.0956 -0.2471
29033W        W44927  14.138  11.895   9.782  0.3701  0.1733 -0.2364
29034W        W44928   6.741   1.073  12.084 -0.2386 -0.2027  0.2501
29035W        W44929  13.061   4.059   2.776 -0.1756  0.0126  0.3629
29036W        W44930  14.637  14.188   1.341  0.3252  0.3604  0.0346
29037W        W44931  16.361  10.854  12.099 -0.1341  0.3290 -0.1388
29038W        W44932   8.535  11.146   2.748 -0.3165  0.2044  0.2862
29039W        W44933   8.275  12.788   0.030  0.0484  0.0094  0.2142
29040W        W44934   1.050   8.993   2.029 -0.1665  0.1182  0.1640
29041W        W44935   6.228   9.393   2.393  0.0738 -0.1613  0.1689
29042W        W44936   6.038  10.504   5.393  0.0526  0.1435 -0.1230
29043W        W44937   2.027  14.183  12.972  0.2362  0.1230  0.1517
29044W        W44938   8.782   2.790  14.022  0.1112  0.2132 -0.1885
29045W        W44939   7.915   2.764  12.141  0.4472 -0.1799 -0.1164
29046W        W44940  10.524   1.015  11.485  0.0298  0.0558 -0.0077
29047W        W44941   9.420  13.425  12.573 -0.0551  0.1407  0.0397
29048W        W44942  12.401   2.732   2.160 -0.2044 -0.3531  0.1681
29049W        W44943  10.706   1.368  12.574  0.0788 -0.3088 -0.0687
29050W        W44944   0.531  12.357   3.528  0.2220 -0.0965 -0.0481
29051W        W44945   6.111  15.661  12.544 -0.1701 -0.1583  0.0263
29052W        W44946   6.362  14.586   1.596 -0.3840 -0.0130 -0.1858
29053W        W44947   0.183  11.748  10.740 -0.2452 -0.0533 -0.1137
29054W        W44948   7.293   9.628  10.737  0.0386  0.1694  0.1266
29055W        W44949  17.077  18.275  14.631  0.3293 -0.1986  0.2405
29056W        W44950  16.502  14.855   3.611 -0.1942 -0.2005 -0.0359
29057W        W44951  18.155   8.789   1.140 -0.1840 -0.3025  0.1497
29058W        W44952  10.243   1.210  11.858  0.2415 -0.0601  0.0314
29059W        W44953   4.569   1.600   4.405 -0.2849 -0.0186 -0.1501
29060W        W44954   5.199  16.630  12.389 -0.0360 -0.2432 -0.1291
29061W        W44955   4.823   8.490  11.743  0.0826  0.1134 -0.1258
29062W        W44956   7.814  11.569  11.918 -0.1596  0.2367  0.1650
29063W        W44957   0.746   9.178   0.557 -0.1364  0.1189  0.2164
29064W        W44958   0.153   0.274   0.255  0.0510 -0.0400  0.0381
29065W        W44959  13.711  16.337  11.769  0.0862  0.1455  0.0162
29066W        W44960   1.245  16.587  12.575  0.2104  0.2778 -0.0478
29067W        W44961  14.297  13.158  11.282 -0.0635  0.3037  0.3136
29068W        W44962  14.217   1.032  14.588 -0.0083  0.0897  0.0793
29069W        W44963  18.127  13.318   3.563 -0.3656  0.2406  0.2109
29070W        W44964  10.202   8.693  11.841 -0.2412  0.0526  0.1692
29071W        W44965   1.810  16.679   2.997 -0.1315 -0.1126 -0.0412
29072W        W44966   9.119   4.317   1.399 -0.1261 -0.2603  0.0934
29073W        W44967  13.337   1.273  13.906  0.1840 -0.0712 -0.1870
29074W        W44968   7.221   4.736  14.046 -0.1152  0.1904 -0.0043
29075W        W44969  17.171   4.101  12.338  0.1280  0.1645  0.3084
29076W        W44970   5.440   3.246  11.577  0.1072 -0.0023  0.0994
29077W        W44971  13.684   9.365   4.433  0.1159 -0.1337 -0.0445
29078W        W44972   2.282   4.622  12.412 -0.0579  0.0150 -0.0329
29079W        W44973  13.326  10.628   1.090  0.0320  0.1504 -0.1535
29080W        W44974   6.969  16.455  14.291  0.1301  0.1239 -0.2177
29081W        W44975  17.756   7.696   1.918  0.1815 -0.0340  0.0511
29082W        W44976  12.323  18.913  10.200  0.1308 -0.0320 -0.4638
29083W        W44977   7.594  16.503   3.618  0.1782 -0.0799  0.1493
29084W        W44978  15.627   8.553  10.045  0.1130  0.1461  0.2394
29085W        W44979  18.875  12.650  10.609 -0.0184  0.0804 -0.0844
29086W        W44980  17.562   2.488   3.719 -0.2544  0.1588  0.0566
29087W        W44981   0.652  14.388  13.295  0.0982  0.0455 -0.1571
29088W        W44982   1.537  15.856   4.052 -0.0414 -0.0927  0.3380
29089W        W44983  17.858   0.859  10.999 -0.0231  0.2273 -0.1040
29090W        W44984   4.877   7.314   3.181  0.3286 -0.1269 -0.3781
29091W        W44985   0.994  14.780  14.929 -0.2098  0.0073  0.4237
29092W        W44986  10.693   2.495  13.696  0.2978 -0.1945 -0.4139
29093W        W44987  14.514   2.764  13.018 -0.1898 -0.1881  0.1398
29094W        W44988   9.790  15.794  14.750 -0.0805  0.2278 -0.0001
29095W        W44989   5.676  13.314   9.761 -0.2730  0.0458  0.0396
29096W        W44990  18.157  11.766  12.147 -0.2446 -0.3595  0.1706
29097W        W44991  17.451   1.558  10.778  0.1385 -0.3856  0.2426
29098W        W44992   7.401  17.574   4.331 -0.0920  0.3138 -0.2974
29099W        W44993  14.784  18.353   1.357 -0.1748  0.0886  0.1876
29100W        W44994   6.385   4.578  14.005 -0.1394  0.1486  0.3300
29101W        W44995  13.943  11.782   4.429 -0.2078  0.1599 -0.0778
29102W        W44996  11.865  12.881  12.313  0.2336 -0.0534 -0.1679
29103W        W44997  12.110   3.547  12.199  0.1057 -0.2802 -0.2452
29104W        W44998  19.184  16.291  14.122 -0.1072 -0.2315  0.3904
29105W        W44999  15.465  14.111  13.688  0.0336 -0.0341  0.2623
29106W        W45000  10.015   2.097   3.621 -0.2190 -0.1208 -0.2331
29107W        W45001  18.489   2.342  11.465 -0.0240  0.0982 -0.1358
29108W        W45002   5.490  13.197  13.011 -0.2051 -0.0389 -0.0306
29109W        W45003   4.071   0.606   0.398 -0.1116 -0.1605 -0.1348
29110W        W45004  18.245   5.030  11.267 -0.1971  0.2612 -0.1124
29111W        W45005   8.405  12.446   1.806  0.0801  0.0419 -0.1230
29112W        W45006   7.595   7.125  14.265 -0.1279  0.1835  0.0995
29113W        W45007  11.397   8.969  11.432  0.1941  0.3568 -0.0875
29114W        W45008  19.012  11.839  13.088  0.0509  0.1453  0.1711
29115W        W45009  15.752   9.626  12.219  0.0122  0.0747 -0.0416
29116W        W45010   3.156   8.976  12.681 -0.6037  0.0472 -0.0402
29117W        W45011  10.025  10.617   2.645  0.2229  0.0059  0.3583
29118W        W45012  18.128   8.714   3.050  0.0966 -0.0466  0.1993
29119W        W45013   4.072  16.686   5.823 -0.0224 -0.1879 -0.4530
29120W        W45014   6.554  11.517  12.218 -0.1629 -0.0199  0.3438
29121W        W45015  13.814   3.069   2.543 -0.1538  0.4466  0.4142
29122W        W45016   2.565   9.283  10.869 -0.0500 -0.1918 -0.0947
29123W        W45017   5.578   0.694   0.089 -0.3090  0.2379  0.2306
29124W        W45018  11.351  13.740  14.138 -0.0049 -0.2837  0.2918
29125W        W45019   5.945  15.202   1.042 -0.2688 -0.1866 -0.0029
29126W        W45020  17.948  18.690  12.092  0.0305  0.1402 -0.1023
29127W        W45021  13.604  12.157   0.306 -0.0728 -0.1279 -0.0094
29128W        W45022   0.075   4.536  12.904  0.0871  0.0850  0.1753
29129W        W45023  17.125   0.903  14.679 -0.1901 -0.0829  0.3018
29130W        W45024   4.261  14.359   3.698 -0.2248 -0.3389  0.2713
29131W        W45025  12.584   9.419  11.517 -0.1274  0.0767  0.0353
29132W        W45026   2.522  18.986   2.106  0.0919 -0.2141 -0.0136
29133W        W45027  17.926  13.714  10.640  0.1512  0.1964 -0.0306
29134W        W45028  12.558  15.447  13.034  0.2245  0.0726 -0.1069
29135W        W45029   7.099   7.466   0.178  0.1766  0.0963 -0.0291
29136W        W45030   8.302  15.847  11.122  0.0275 -0.0538  0.2925
29137W        W45031  13.389  14.918   2.535 -0.5565 -0.0255 -0.3738
29138W        W45032   5.911   2.233  11.208  0.0075  0.1697 -0.0582
29139W        W45033  17.788  17.636   4.070  0.1201  0.0238 -0.0718
29140W        W45034  16.663  11.085  14.977  0.0640 -0.1036  0.1478
29141W        W45035  13.849  16.437   3.014 -0.0556  0.1931  0.5128
29142W        W45036   3.643  10.398   3.408 -0.0034  0.0253 -0.2108
29143W        W45037   2.564  13.978  14.318  0.0935  0.2057 -0.1225
29144W        W45038   6.586   2.119   0.466  0.0943 -0.3361  0.1876
29145W        W45039  13.589  12.214  13.987 -0.0969 -0.1634  0.0559
29146W        W45040   9.701   6.491   2.400 -0.1345  0.3079 -0.0260
29147W        W45041  18.847  11.311   2.795 -0.0855  0.3037  0.0351
29148W        W45042  17.795  16.752  10.777  0.3106 -0.0522  0.0472
29149W        W45043   7.373  18.888  11.787  0.0773 -0.0650 -0.0391
29150W        W45044   8.193  12.146  10.382 -0.0527  0.0862  0.0973
29151W        W45045   2.073   3.279   1.049 -0.3109 -0.1724  0.1225
29152W        W45046  18.688  10.367   3.518 -0.1049  0.1997 -0.0259
29153W        W45047  11.645   2.002  12.838  0.3106 -0.1361  0.0595
29154W        W45048   1.508  16.407  11.746  0.0484 -0.2034  0.1802
29155W        W45049   0.838  14.279  14.514  0.2433 -0.1064 -0.1296
29156W        W45050  10.359   6.947   3.434 -0.0208 -0.2642  0.2164
29157W        W45051  16.865   9.841  12.640  0.0249  0.0464  0.0241
29158W        W45052   2.829   3.533   3.108 -0.1951  0.0665  0.1937
29159W        W45053  15.787   3.758   3.012 -0.0856  0.0490 -0.0249
29160W        W45054  18.888   3.282   2.841 -0.1902 -0.1492  0.2509
29161W        W45055   5.571  18.815   2.052 -0.1973 -0.0863  0.3117
29162W        W45056   7.048  15.176   1.639 -0.3011  0.1511  0.2093
29163W        W45057  14.830   0.951   5.619 -0.0474 -0.4403  0.1171
29164W        W45058  11.042  17.979   4.632  0.0496 -0.0718  0.2203
29165W        W45059   1.111   0.103  14.936 -0.3372  0.0429  0.1968
29166W        W45060   6.505  17.090  14.427 -0.2632 -0.0014 -0.3103
29167W        W45061   7.768   4.152  13.846 -0.0541  0.1102 -0.2380
29168W        W45062   6.680  13.681  12.418 -0.0987 -0.3867 -0.1372
29169W        W45063  11.614   1.527  12.391  0.2882 -0.1946 -0.2054
29170W        W45064   8.350  18.793  11.969 -0.0948  0.2451 -0.3470
29171W        W45065  14.226   0.832   0.840  0.2537 -0.0388  0.0600
29172W        W45066  17.067   7.785   6.074  0.1206  0.2398 -0.1673
29173W        W45067   7.586   2.905  14.309 -0.5739 -0.1706 -0.1420
29174W        W45068   0.980  11.326  11.626 -0.0545  0.1153  0.0091
29175W        W45069   0.303   3.511   3.900 -0.4341  0.1713 -0.2972
29176W        W45070  14.932   5.884  14.420 -0.1047  0.0319  0.1726
29177W        W45071   9.857   1.752   1.945 -0.0271 -0.0816  0.1304
29178W        W45072  15.393  13.529  14.853 -0.3418 -0.0957 -0.0438
29179W        W45073   9.331   0.128   2.505 -0.1161 -0.0024 -0.0812
29180W        W45074  17.826   9.265  11.228 -0.1891  0.2140 -0.1197
29181W        W45075  13.950   5.427  13.369 -0.5190 -0.0753  0.0783
29182W        W45076  12.372   8.313  13.934 -0.0582 -0.1713 -0.0120
29183W        W45077  17.952   3.722   2.408  0.1449 -0.0777  0.3116
29184W        W45078  18.095  13.820  14.743 -0.2383 -0.2230 -0.2055
29185W        W45079   2.615   1.548   5.810  0.1892  0.1080 -0.1899
29186W        W45080  12.116  17.667  10.940 -0.2139  0.0147 -0.1344
29187W        W45081  14.232  17.238  13.231 -0.3188  0.0818 -0.2938
29188W        W45082  11.091   6.504   4.786 -0.1712 -0.0677 -0.1398
29189W        W45083  12.430   1.966   4.858  0.4271 -0.0761  0.0617
29190W        W45084  14.038  14.706   1.678 -0.0435  0.2095  0.5273
29191W        W45085   4.812  16.326  11.941 -0.2568  0.1236 -0.0530
29192W        W45086   7.707   5.750  11.397 -0.1226 -0.0501 -0.3297
29193W        W45087  13.054  13.047   2.825  0.0164  0.2643 -0.0169
29194W        W45088  18.889   3.791  13.169  0.0095 -0.1120  0.2333
29195W        W45089  17.490   9.195   4.312 -0.0790  0.1934 -0.0548
29196W        W45090  19.178  10.341   3.608 -0.0785  0.2562 -0.0840
29197W        W45091  11.349  19.162   4.441 -0.0944 -0.0283 -0.0203
29198W        W45092  17.568   2.037   4.105  0.0007  0.3507 -0.4768
29199W        W45093  16.309   0.829  10.358 -0.0566 -0.3823 -0.1824
29200W        W45094  12.581   4.428   0.906  0.2129  0.2154 -0.0789
29201W        W45095   1.691   5.215  14.083  0.2047 -0.0647 -0.1846
29202W        W45096   1.829   0.547  10.799  0.1262 -0.3013  0.2442
29203W        W45097  15.044  11.729   1.392 -0.3514  0.0371  0.2399
29204W        W45098   9.531   3.983   2.534 -0.1636 -0.0256  0.0888
29205W        W45099  11.915  10.407   1.738  0.0312 -0.1096 -0.1487
29206W        W45100   4.950  14.096   2.425 -0.1962 -0.4222  0.1461
29207W        W45101   4.022   3.667   4.185  0.0982 -0.1730  0.2776
29208W        W45102   4.683  12.966   5.620  0.0201  0.3312 -0.0237
29209W        W45103   4.782  10.579  11.972 -0.0619 -0.0680 -0.0878
29210W        W45104   2.257   4.297   3.200 -0.1505  0.0519  0.2370
29211W        W45105  11.934   9.717  13.115 -0.0952 -0.1524 -0.1204
29212W        W45106  13.096   3.835  10.497  0.2054  0.1948  0.2949
29213W        W45107  18.381   3.050  12.246  0.1887  0.1019 -0.2082
29214W        W45108   1.608   8.107   2.030 -0.0865  0.0229 -0.0143
29215W        W45109   9.180   7.457  10.824  0.1540  0.0158  0.1909
29216W        W45110  14.032  18.166   2.637 -0.0058 -0.4953  0.0840
29217W        W45111   3.321   0.999  13.342 -0.3120 -0.3142  0.2511
29218W        W45112  17.365  13.157  14.300 -0.1441  0.0554 -0.0039
29219W        W45113  15.848   8.722  14.510  0.1068  0.3078 -0.1450
29220W        W45114   3.581   4.933   0.387  0.0100 -0.0836  0.0481
29221W        W45115   7.075   9.594  13.898 -0.0453  0.2783  0.0612
29222W        W45116   6.611   4.519   2.466 -0.0808 -0.1334  0.0480
29223W        W45117  18.230  14.509   4.511  0.1582 -0.0623  0.2198
29224W        W45118   9.232  17.552   1.919  0.0699 -0.1337 -0.2194
29225W        W45119   2.298   2.252  11.068 -0.4113 -0.0329 -0.1305
29226W        W45120   5.572  12.654   3.264  0.0692  0.0256  0.4208
29227W        W45121   1.506  17.589   2.697 -0.0560 -0.0056 -0.1231
29228W        W45122  13.603   2.099  11.478 -0.3259 -0.1627  0.2109
29229W        W45123  15.756  17.901  13.844 -0.0320 -0.2856 -0.2018
29230W        W45124   5.233   3.046   3.930 -0.0522  0.5935 -0.0384
29231W        W45125  16.500   1.906   2.841  0.1392 -0.2233 -0.0498
29232W        W45126  16.590   9.100  14.068 -0.2304 -0.0655  0.1672
29233W        W45127  10.159   5.321  15.047 -0.4111  0.3730 -0.0936
29234W        W45128  17.550  13.544  10.939 -0.2856  0.0112 -0.1128
29235W        W45129   4.937  12.213   1.127 -0.1605  0.0941  0.2637
29236W        W45130   8.983   7.448   0.093 -0.0504 -0.2264 -0.0225
29237W        W45131   7.758   6.146  15.108 -0.0213 -0.0038  0.3098
29238W        W45132  19.130   6.642   5.643  0.2458 -0.1832  0.1274
29239W        W45133  17.898   3.284  12.463  0.1284  0.0616 -0.0171
29240W        W45134   1.583   2.756  10.858  0.1231 -0.1086 -0.2542
29241W        W45135  18.304  10.707   0.672  0.0017 -0.0381  0.1134
29242W        W45136   9.991  10.461   2.058  0.0205  0.1095 -0.3802
29243W        W45137  18.980   9.614  12.842 -0.0459 -0.0515  0.0126
29244W        W45138  17.619  10.448   3.084 -0.0106 -0.1340 -0.0672
29245W        W45139   7.344  16.243   4.294 -0.3565 -0.1785 -0.0569
29246W        W45140  13.437  11.562  12.789  0.0928 -0.2387 -0.0984
29247W        W45141  15.384   0.339  10.635 -0.1355  0.0309  0.0601
29248W        W45142   2.770  14.638   1.431 -0.0376 -0.1506  0.0012
29249W        W45143  13.219  13.062   4.222 -0.0645 -0.0490 -0.4282
29250W        W45144  16.721   7.976   4.825  0.1736  0.1747  0.0859
29251W        W45145   2.568   3.014  14.999  0.1899  0.3214 -0.0189
29252W        W45146   3.511   3.738   3.346 -0.2542  0.1961 -0.0509
29253W        W45147  16.166   3.011   3.869  0.1943  0.2510  0.1222
29254W        W45148   5.236   1.114   4.823  0.0246 -0.2429  0.3911
29255W        W45149   8.905   5.536  15.052  0.0608 -0.3570 -0.2283
29256W        W45150  12.360   1.948  10.953  0.0239  0.2315  0.2620
29257W        W45151   5.291   5.768   0.091  0.0167  0.0917  0.1292
29258W        W45152  17.783  15.055   4.867 -0.2931 -0.2249 -0.2163
29259W        W45153   4.212   7.302  11.310 -0.4346  0.1379  0.0110
29260W        W45154  18.609  12.601   0.338 -0.3551  0.2022 -0.3933
29261W        W45155   5.092   1.011  11.772 -0.1597  0.0111 -0.0016
29262W        W45156   2.020  17.628  11.994  0.0664 -0.0793 -0.0780
29263W        W45157   9.416  15.070   5.152  0.0260 -0.0375 -0.1585
29264W        W45158  10.506  16.501  10.897  0.0483  0.1891  0.5787
29265W        W45159   0.899  15.689   0.313  0.2331 -0.1735 -0.2167
29266W        W45160   3.892   3.105   3.626 -0.0967  0.0160 -0.4188
29267W        W45161   7.178  16.611   9.077 -0.2537 -0.0552  0.0456
29268W        W45162  10.189  15.344   3.439 -0.0677  0.1512  0.2350
29269W        W45163  10.029   3.722  15.001 -0.0110  0.2415 -0.1752
29270W        W45164   3.469   8.058  10.240  0.0144  0.3608 -0.3115
29271W        W45165  17.931   5.126   4.439  0.3474  0.1184 -0.0231
29272W        W45166   3.397  10.174   4.270  0.1218  0.0952  0.0271
29273W        W45167   3.507   2.458   0.425  0.3959  0.3552  0.0383
29274W        W45168   4.426   7.318  13.792 -0.1561  0.0686  0.0020
29275W        W45169   0.179   4.792   2.851  0.1343  0.0082  0.4068
29276W        W45170  18.695  10.556  14.437  0.3878  0.4592  0.0526
29277W        W45171  10.493  12.330   2.105 -0.0330 -0.0059 -0.0222
29278W        W45172   0.541  14.882  13.261 -0.1051  0.0934  0.1693
29279W        W45173   5.574   0.302  11.954 -0.0105 -0.1122  0.0189
29280W        W45174   9.761  11.704  15.103  0.0412  0.0349  0.0312
29281W        W45175  11.570   6.559  14.480  0.1646 -0.1971  0.0546
29282W        W45176   9.087   1.052   4.055 -0.1041  0.0630 -0.2743
29283W        W45177  17.930   2.841   4.256 -0.0840 -0.1731 -0.0100
29284W        W45178  11.320  18.491   1.465  0.3696  0.0768 -0.0881
29285W        W45179   9.864  14.449   2.423  0.0882  0.4720 -0.0892
29286W        W45180   0.686   4.855  13.881  0.0619 -0.1216 -0.2491
29287W        W45181   7.018   2.886   3.639  0.0256 -0.1925 -0.1229
29288W        W45182  15.091   7.034   1.246  0.2743  0.0617 -0.2517
29289W        W45183  12.660  10.391   4.982 -0.0482 -0.1459 -0.1194
29290W        W45184   6.778   4.805   2.906 -0.2654 -0.1580 -0.0981
29291W        W45185  10.313   0.985  12.299  0.0467  0.0347  0.1843
29292W        W45186   1.760   2.860   0.468 -0.4810 -0.0146  0.0570
29293W        W45187  14.178  13.581  11.782 -0.2306  0.0888 -0.0046
29294W        W45188   1.284   8.275  13.246 -0.0172 -0.0836 -0.0818
29295W        W45189   8.964   9.573  14.844 -0.1684 -0.1527  0.0938
29296W        W45190  16.765  17.590   3.687 -0.2700  0.1571 -0.2836
29297W        W45191  14.801   5.101   2.930  0.1436  0.0526  0.3850
29298W        W45192   2.057  17.143  12.054  0.4478  0.1816 -0.1959
29299W        W45193   8.387  14.638  12.046  0.0569  0.0740 -0.4832
29300W        W45194  14.537   8.601  14.251 -0.2097  0.2117  0.2637
29301W        W45195   3.403   8.577   3.268  0.1472  0.0957  0.0767
29302W        W45196   0.603  16.203  13.595  0.1083  0.0839 -0.0752
29303W        W45197  16.196  13.556  13.757 -0.1017 -0.0422  0.0370
29304W        W45198   9.882   5.162  13.951  0.0053  0.0073 -0.0487
29305W        W45199   1.009  16.860   0.931 -0.1700 -0.1824  0.2236
29306W        W45200  16.468   4.231  11.100 -0.2054  0.1017 -0.0315
29307W        W45201   8.428   8.962  11.459  0.1746  0.0673 -0.0766
29308W        W45202   8.004   7.088   2.301 -0.1384  0.2714  0.1333
29309W        W45203  17.106  11.333  14.869  0.0666  0.0441 -0.0646
29310W        W45204  10.973   4.372   4.731  0.1960  0.2337  0.1011
29311W        W45205  19.179  16.178   4.592 -0.0669 -0.1667  0.3519
29312W        W45206  13.838   2.099  11.998 -0.3167 -0.3443 -0.3115
29313W        W45207  12.128  13.559  11.589 -0.2465 -0.0247 -0.0071
29314W        W45208  12.942  17.736   1.436 -0.0174 -0.2310 -0.4258
29315W        W45209   4.484  13.954  10.726 -0.0293  0.0496 -0.0889
29316W        W45210  15.446  11.091  10.830  0.1598  0.0467  0.0144
29317W        W45211  11.304   9.078  14.980  0.1117 -0.0923 -0.1099
29318W        W45212  14.409   5.803   2.464  0.0911 -0.0386 -0.0678
29319W        W45213   7.622   9.391  13.821  0.3078  0.0988  0.4379
29320W        W45214  16.652   9.697  11.852 -0.1709  0.1096 -0.1868
29321W        W45215   4.412  18.393   0.071 -0.0257 -0.0558 -0.1194
29322W        W45216  10.571  12.823   4.566 -0.2313 -0.1576 -0.0282
29323W        W45217   2.493  16.232  10.942  0.1341 -0.0580 -0.2710
29324W        W45218  13.226   2.551   4.794  0.0796  0.0905 -0.0866
29325W        W45219   3.732   4.422  12.831 -0.3162  0.0011 -0.1203
29326W        W45220   8.539   8.624  13.228  0.1666 -0.1286 -0.2570
29327W        W45221  18.269   2.774  13.732 -0.2092  0.1982  0.2178
29328W        W45222   1.253  14.816   2.507 -0.0068  0.1374  0.0193
29329W        W45223  13.008   8.215  11.071  0.0060 -0.0698 -0.2605
29330W        W45224   9.962  16.295  14.840 -0.0107 -0.1624  0.0706
29331W        W45225   4.740   9.875   4.848 -0.3242  0.0464  0.1493
29332W        W45226   0.387  10.401  10.195 -0.0513 -0.0848  0.1297
29333W        W45227  15.804  16.832  13.855  0.0341  0.2229 -0.2040
29334W        W45228  17.097  12.366   9.859  0.0165  0.3722 -0.0702
29335W        W45229  16.708   1.490   2.307 -0.0113 -0.1199 -0.1801
29336W        W45230  14.750   7.242  10.736  0.0423 -0.0654  0.1455
29337W        W45231   8.896  11.047   1.304 -0.3872  0.3354 -0.0833
29338W        W45232  12.857   9.011   3.298 -0.1513 -0.1992 -0.1459
29339W        W45233  14.022   2.183  13.505 -0.3543  0.0163  0.2547
29340W        W45234  17.191   6.602  11.206 -0.3220  0.0494  0.1797
29341W        W45235   1.375  10.669  14.136 -0.0932 -0.4051  0.4454
29342W        W45236  17.409  12.649  11.529 -0.0667  0.2889 -0.0443
29343W        W45237   1.851   3.401   3.562  0.0786  0.2226  0.1191
29344W        W45238   5.709   3.235   2.548  0.0642 -0.0041 -0.5346
29345W        W45239  15.608  12.906   4.959 -0.2332  0.2982 -0.1046
29346W        W45240   0.758  11.227  14.212 -0.1553 -0.1777  0.3059
29347W        W45241  11.685  18.717   3.723 -0.1129 -0.0267 -0.1211
29348W        W45242  11.772   3.135  11.320  0.2103  0.0518 -0.0775
29349W        W45243   5.509  14.028  13.458 -0.2363 -0.1182 -0.3466
29350W        W45244   5.373   8.919   2.565 -0.4714  0.4181 -0.1101
29351W        W45245  16.031  11.833   0.083  0.0336 -0.1858 -0.1290
29352W        W45246   4.363   9.415  14.786 -0.0792  0.1759  0.3228
29353W        W45247   4.183   1.125   4.192 -0.1257  0.0670  0.4284
29354W        W45248  18.333  16.432   0.167  0.3493  0.1965 -0.1947
29355W        W45249  17.931   0.456  14.825 -0.2524  0.2744 -0.1422
29356W        W45250   3.525  18.361  11.545 -0.2292 -0.0995  0.1146
29357W        W45251  15.787   6.229   3.722 -0.1165 -0.0713 -0.1090
29358W        W45252   8.914  18.189  14.785  0.2569  0.0559 -0.3416
29359W        W45253  14.753   0.341   2.871 -0.2724 -0.2132 -0.1480
29360W        W45254   2.856  12.203   3.673  0.0677  0.1707 -0.2851
29361W        W45255   9.124   3.757   2.687 -0.0096 -0.1468 -0.1487
29362W        W45256  11.424  11.928  10.733 -0.5364 -0.1691 -0.2129
29363W        W45257  15.451   6.093  14.330 -0.0355  0.0494  0.1205
29364W        W45258   4.490   8.135  11.537  0.3171  0.0472  0.1706
29365W        W45259  14.572  13.225   0.821  0.2831  0.2720  0.0333
29366W        W45260  19.130  15.329  11.232  0.3059 -0.1826  0.0009
29367W        W45261   3.152  12.413   1.520 -0.4098 -0.0276  0.3325
29368W        W45262   4.865   3.517   3.294  0.0425  0.1597  0.0685
29369W        W45263  13.384   8.375  10.810  0.0244  0.1700  0.1342
29370W        W45264  14.716  15.238  11.550 -0.0821  0.0536  0.2243
29371W        W45265  15.622  11.543  11.026  0.2436  0.0215  0.3453
29372W        W45266  10.565  13.659   0.731 -0.2514 -0.3579 -0.0836
29373W        W45267  15.601  16.960  10.260  0.1330 -0.3052  0.0772
29374W        W45268  16.636   9.435   2.301  0.1875 -0.1168 -0.1009
29375W        W45269  15.007  14.727  14.926  0.1760  0.1287 -0.1464
29376W        W45270  10.071  14.280  10.506  0.4635 -0.0908  0.3260
29377W        W45271  14.054   6.647  11.268  0.2209  0.1572 -0.1270
29378W        W45272   8.258  13.129  14.772  0.2456  0.1531  0.3132
29379W        W45273  19.042   3.783   5.118  0.1839  0.1921 -0.2207
29380W        W45274   3.106  12.689  13.319 -0.0392 -0.1568  0.1351
29381W        W45275  18.282   2.738  11.279  0.0773 -0.0487 -0.1068
29382W        W45276   5.270  11.371   3.592  0.2949  0.0561 -0.0244
29383W        W45277   7.811  16.204   1.637 -0.0265  0.2782 -0.0899
29384W        W45278  15.268   4.641  13.377 -0.0683 -0.1945 -0.1445
29385W        W45279   1.193   7.475  10.092 -0.2128  0.0469  0.1432
29386W        W45280   6.846   5.262   1.334  0.0334  0.1353 -0.2293
29387W        W45281  13.397  14.836   4.286 -0.1422  0.0442  0.1964
29388W        W45282   3.485   4.202  14.064 -0.1058  0.1234 -0.0194
29389W        W45283   0.244  15.244   0.929 -0.1082 -0.2070 -0.0714
29390W        W45284  14.457  14.026   0.400 -0.0604  0.0780 -0.0220
29391W        W45285  11.658   0.145   2.092 -0.0713 -0.3441  0.1954
29392W        W45286  11.159   8.865   0.358  0.2194 -0.1570  0.1765
29393W        W45287  12.829   7.596   3.362  0.0234  0.1760 -0.1980
29394W        W45288  10.730  17.972   0.300 -0.0057 -0.4797  0.1539
29395W        W45289   6.185  18.394   9.594 -0.1002  0.0056  0.1952
29396W        W45290  17.415  17.619  13.614  0.0004  0.1268  0.0649
29397W        W45291  14.911  11.707  14.382  0.2281 -0.2278  0.1500
29398W        W45292  11.076   1.433   0.200 -0.0591  0.0775 -0.4480
29399W        W45293  11.339   7.353  11.354 -0.2716 -0.2891  0.0840
29400W        W45294  11.933  16.329   0.327 -0.2538  0.1172  0.0040
29401W        W45295  13.603   3.266  12.566  0.0038 -0.1517 -0.0995
29402W        W45296   8.519  14.119   3.451  0.2757  0.0484 -0.0254
29403W        W45297   8.788   0.686  10.661  0.1129 -0.0262 -0.2617
29404W        W45298  16.767   2.641   3.269 -0.1621  0.0752  0.2867
29405W        W45299  16.976   4.523   0.613  0.0825 -0.2549  0.0668
29406W        W45300  14.993  18.312  12.113  0.0057  0.1374 -0.2608
29407W        W45301   6.155  18.558  11.302  0.2002  0.0506  0.1625
29408W        W45302   5.355  16.402  10.663 -0.1758  0.1461  0.2182
29409W        W45303  15.694   7.637  12.285  0.1194  0.1017 -0.4013
29410W        W45304  13.878  19.113  11.515  0.0868  0.0571  0.4009
29411W        W45305  13.113  11.421  13.365 -0.1195  0.0737  0.1590
29412W        W45306  17.783  18.593   3.697  0.1963 -0.0269  0.0236
29413W        W45307   0.200   8.247   3.028 -0.0005  0.0554 -0.0263
29414W        W45308   1.695   5.793  13.201 -0.2211  0.2307 -0.1074
29415W        W45309   7.865  18.275  12.441 -0.4557  0.1215 -0.3389
29416W        W45310  14.524  10.333   3.669 -0.1465 -0.0805 -0.3919
29417W        W45311   1.268   1.859  13.353 -0.2212 -0.1908  0.1300
29418W        W45312   7.089  11.689   3.810  0.1974 -0.2725  0.0394
29419W        W45313  16.130  10.585   2.166 -0.1135  0.1625 -0.1272
29420W        W45314   9.622  16.108   1.281 -0.2127 -0.1053 -0.0458
29421W        W45315  12.051   0.215   4.272  0.0342  0.0031 -0.0027
29422W        W45316  16.699  16.265   3.369  0.3979  0.1030 -0.1553
29423W        W45317   4.895   8.006   0.381 -0.1278 -0.0040  0.0317
29424W        W45318   7.341  11.444   1.792  0.1557 -0.0540  0.1474
29425W        W45319  13.901  16.435   3.508 -0.3608  0.3717  0.0772
29426W        W45320  12.578   4.531   2.151 -0.0394 -0.1525 -0.0455
29427W        W45321  15.245   4.895   1.211  0.4446 -0.0169  0.0000
29428W        W45322   9.756  17.732  11.540 -0.2326 -0.4237 -0.2083
29429W        W45323  10.409  15.781   2.516 -0.0057  0.2433  0.2257
29430W        W45324   2.449  15.469   0.862  0.2853  0.2426  0.2968
29431W        W45325  15.302  16.086   0.233  0.2311  0.1648  0.1108
29432W        W45326  17.781   7.056   5.273  0.0855  0.2042 -0.1739
29433W        W45327   1.648  12.969   2.509  0.0164 -0.1222  0.0936
29434W        W45328  16.790   7.150  12.262 -0.0209  0.3385  0.0487
29435W        W45329   1.345   0.421  13.078 -0.3363 -0.1303  0.1466
29436W        W45330   2.554   7.794   0.388  0.0540  0.2402 -0.1230
29437W        W45331   1.921  18.474  11.645  0.1161  0.0488  0.0888
29438W        W45332  17.166   9.034  14.196 -0.2393  0.1486 -0.2667
29439W        W45333   0.785   3.108   2.055 -0.0918 -0.2544 -0.1629
29440W        W45334   5.617   7.509   2.520  0.2912 -0.0130 -0.0121
29441W        W45335  19.150   4.579  12.054  0.0017 -0.0527  0.1670
29442W        W45336   2.071   1.042  13.849 -0.0210  0.2341 -0.4388
29443W        W45337   5.106   2.059  10.113  0.3758  0.0430 -0.0272
29444W        W45338  12.677   3.606   4.233  0.1904 -0.0094 -0.0392
29445W        W45339   3.311  18.129  11.157  0.0357  0.0941 -0.1878
29446W        W45340  12.934  14.047   0.164 -0.1367  0.0569 -0.0112
29447W        W45341  14.001  13.622  11.271 -0.1638 -0.1862  0.0232
29448W        W45342  16.089  12.765   1.752 -0.0928  0.0931  0.2501
29449W        W45343   0.980  11.640  12.711 -0.2808 -0.0451  0.0844
29450W        W45344   5.623   6.818  11.348  0.2572 -0.1516  0.1936
29451W        W45345  15.322   7.636  13.919 -0.1810 -0.1063 -0.1049
29452W        W45346  16.609   8.678  13.319  0.0532  0.1429  0.1636
29453W        W45347  10.870   7.649  11.399  0.3053  0.3270  0.0448
29454W        W45348   3.012  10.696  11.323  0.1362  0.1567 -0.1196
29455W        W45349   6.819  18.356   5.219 -0.2008 -0.1532  0.0133
29456W        W45350  18.547  14.339  11.098  0.2272 -0.4247  0.0472
29457W        W45351   3.448   2.519  13.346  0.0471 -0.0810  0.1015
29458W        W45352   0.503  14.288  14.966  0.1204 -0.0686  0.1964
29459W        W45353   2.189  13.279  14.486 -0.0465 -0.2231 -0.1461
29460W        W45354  12.665   8.837  12.366  0.0231  0.0909  0.0830
29461W        W45355  15.220  18.327  14.958  0.2205 -0.3309  0.1886
29462W        W45356  11.737  12.406  10.395  0.1939 -0.1061  0.0924
29463W        W45357   7.672  17.910  10.485  0.0941  0.2870  0.0459
29464W        W45358  14.490   1.730  13.208 -0.2225 -0.1479 -0.1442
29465W        W45359  14.061  15.663   4.693  0.1920  0.2753  0.3057
29466W        W45360  10.472   7.985  14.527 -0.3169  0.0666 -0.0592
29467W        W45361   8.077  11.541   2.263 -0.1056  0.1122  0.0386
29468W        W45362  16.423  13.858  12.642  0.2374  0.0436 -0.0519
29469W        W45363   3.010   3.547   2.580  0.3182  0.0182  0.0849
29470W        W45364  14.756  18.697   4.971 -0.1807 -0.0493  0.0994
29471W        W45365   7.868   4.258   4.855 -0.3558 -0.0486  0.2297
29472W        W45366  18.002   7.099  12.492  0.2354 -0.0636  0.0374
29473W        W45367  10.299  15.192   4.292 -0.0114 -0.0459 -0.0135
29474W        W45368   8.631  18.526   3.365  0.4412 -0.1747 -0.1318
29475W        W45369   0.295   3.839   5.253  0.0034  0.4903 -0.0655
29476W        W45370  17.477  17.877   3.014  0.0368  0.0851 -0.1319
29477W        W45371   1.268  18.787   1.052  0.1792 -0.0639 -0.0551
29478W        W45372   4.229  16.158  14.235  0.2144 -0.1308 -0.0085
29479W        W45373  10.784   6.541  13.487  0.2101 -0.1194 -0.2191
29480W        W45374   4.634   7.705   0.686 -0.2166  0.2427 -0.3302
29481W        W45375   2.605   3.369  13.813  0.0528 -0.1262  0.3544
29482W        W45376  16.786   4.207   5.563 -0.0175  0.0674 -0.1908
29483W        W45377  10.530   0.255  14.149  0.0978  0.4362 -0.2520
29484W        W45378  17.237  15.133  14.457 -0.1862  0.1389  0.0127
29485W        W45379  15.629   7.658   0.226  0.1177 -0.1333  0.0895
29486W        W45380   0.576   7.398   3.963 -0.0054 -0.1434  0.5536
29487W        W45381  10.890  12.376   1.776  0.1044 -0.1687  0.1613
29488W        W45382   5.668   9.212   0.048  0.0405  0.1051 -0.0974
29489W        W45383  15.773  11.344  14.221  0.0056  0.4043 -0.2192
29490W        W45384  16.605  11.731   9.183  0.1622 -0.0556  0.3555
29491W        W45385   7.105  14.469  15.000  0.0690  0.2597  0.2930
29492W        W45386  14.459   3.485  14.679  0.0443 -0.2160  0.0664
29493W        W45387   3.319   4.406  13.625  0.0148  0.0223 -0.1147
29494W        W45388   0.465  14.535  13.826 -0.2323 -0.0795  0.1038
29495W        W45389   0.383   1.350  14.321  0.0209  0.1366 -0.1629
29496W        W45390  16.607   4.987  11.741  0.1372  0.0419  0.0033
29497W        W45391   4.142  19.043  13.194  0.0113  0.0142 -0.0953
29498W        W45392   3.068   7.555  13.562  0.0322  0.3455 -0.0508
29499W        W45393   1.423   5.411   3.764 -0.2482  0.3561  0.0017
29500W        W45394   5.110  11.296   1.911  0.1753 -0.1841 -0.0670
29501W        W45395   7.390  18.557  13.979 -0.0034 -0.0019 -0.1402
29502W        W45396  10.243  15.607  12.490 -0.2599 -0.1744 -0.0232
29503W        W45397   5.672  14.774   2.296  0.1369 -0.2363 -0.0846
29504W        W45398  10.382   1.407  11.167 -0.1510 -0.0709  0.2183
29505W        W45399   6.799   1.130  12.845  0.2635  0.0434  0.2004
29506W        W45400   1.599   5.502  11.351 -0.1694 -0.1106  0.0230
29507W        W45401   0.715   3.399   2.484 -0.1008  0.0642 -0.4803
29508W        W45402   5.201  18.063   1.502 -0.0794  0.0659 -0.1475
29509W        W45403   1.264   2.690   3.586 -0.2804  0.0692  0.2554
29510W        W45404   0.329  15.650  12.475 -0.2377 -0.3134 -0.1119
29511W        W45405  16.922   4.142  11.825 -0.0564  0.2358  0.1577
29512W        W45406  15.157  16.714  14.512 -0.0254  0.0934 -0.2178
29513W        W45407  12.464   8.010  12.711 -0.4167  0.4114  0.0948
29514W        W45408  15.518   8.310  11.693  0.0651  0.0429  0.3049
29515W        W45409  17.057  18.613   0.947 -0.1858  0.0601  0.2700
29516W        W45410  17.754   5.695   9.915  0.0056 -0.1524 -0.1234
29517W        W45411  11.794  12.649   0.929  0.2253  0.2133 -0.0625
29518W        W45412  19.015   6.935   2.045 -0.2048  0.0009 -0.0533
29519W        W45413   3.758  12.433  14.003  0.1015 -0.5115  0.1823
29520W        W45414  16.294  10.024  13.517 -0.1491 -0.3360  0.1286
29521W        W45415   8.561   4.730   0.564  0.0232  0.1018 -0.0464
29522W        W45416   3.850  11.436   1.996 -0.1039  0.0105  0.0274
29523W        W45417  13.963  13.490  14.371 -0.0368  0.1235  0.0376
29524W        W45418   4.613   2.492   3.424 -0.0657 -0.2529  0.0939
29525W        W45419  17.613  10.886  11.705 -0.1340 -0.2021 -0.1467
29526W        W45420  18.714  18.517  11.697 -0.0577 -0.1550  0.0221
29527W        W45421   6.704   5.599  11.437  0.1780  0.0370 -0.0430
29528W        W45422  13.592  17.629   3.985 -0.1128 -0.1848 -0.2759
29529W        W45423  13.485  16.814  13.771  0.1680 -0.0101  0.0338
29530W        W45424  15.006   1.878   1.248  0.1260  0.2430  0.0700
29531W        W45425   3.537   7.774  11.482  0.1514 -0.0064 -0.2088
29532W        W45426  10.312   6.438  13.622  0.0219  0.1152 -0.0242
29533W        W45427   7.285   9.601   3.372 -0.0973  0.0958 -0.0080
29534W        W45428  14.465   5.744  11.499 -0.1022 -0.2552 -0.1415
29535W        W45429   4.240  15.365   4.272 -0.0431  0.1169 -0.1322
29536W        W45430   4.616  17.276   5.434 -0.0143  0.2477 -0.1786
29537W        W45431  17.453   5.909  12.831 -0.0017 -0.2885 -0.2521
29538W        W45432   3.921   9.399  13.520 -0.0672 -0.0765 -0.3813
29539W        W45433   5.832  10.206   2.532  0.2613 -0.1565  0.1082
29540W        W45434  12.595   6.011  13.789 -0.0973  0.1988 -0.0826
29541W        W45435   3.393   9.580  12.089  0.2491  0.0578 -0.3316
29542W        W45436  14.438  16.805   1.192  0.1022  0.0801  0.0238
29543W        W45437  12.336   9.987  12.314 -0.0656 -0.1546 -0.1867
29544W        W45438   3.186   6.618  13.566  0.1216 -0.0877 -0.1577
29545W        W45439   1.903  12.163   2.202 -0.1235  0.2776  0.2527
29546W        W45440   4.775  15.102   5.378  0.3748 -0.3885 -0.0313
29547W        W45441  10.596  10.640  13.611  0.1043 -0.2612  0.2418
29548W        W45442   5.529   7.990  13.116 -0.3099 -0.2100 -0.1658
29549W        W45443  15.296   8.139  14.134 -0.2796  0.0672  0.1230
29550W        W45444   9.266  12.682  13.444 -0.0304  0.0271 -0.1264
29551W        W45445   5.865  14.621  12.514 -0.0281  0.0560 -0.5131
29552W        W45446   3.920   9.751  13.977  0.3503  0.2837 -0.3842
29553W        W45447   5.839   0.457   1.731  0.0683 -0.0993 -0.0559
29554W        W45448  11.092  11.335   3.973 -0.0003  0.1762 -0.0618
29555W        W45449   5.717  18.023   1.556  0.1774  0.2184  0.1178
29556W        W45450   8.957   5.731  10.356  0.0205  0.3712  0.0567
29557W        W45451  14.799  10.789   4.662 -0.1061 -0.0299 -0.0098
29558W        W45452   7.217   3.098  13.588  0.4041 -0.0535  0.0321
29559W        W45453  16.119  14.294  10.641  0.1053 -0.1310 -0.2791
29560W        W45454   6.011  10.471   9.275  0.2155  0.2351 -0.0074
29561W        W45455   6.111   0.162   2.414 -0.1220 -0.1149 -0.0234
29562W        W45456   1.004  11.913   0.485 -0.1948 -0.2035 -0.0544
29563W        W45457  14.673   1.305  13.474  0.1295 -0.1717  0.1511
29564W        W45458  15.354  10.634   4.694 -0.1667 -0.3335 -0.0099
29565W        W45459  18.215   4.544   2.391 -0.2193 -0.0612  0.1409
29566W        W45460   6.947  14.902   0.137 -0.1221  0.1448 -0.1198
29567W        W45461  17.690  11.395  14.668  0.1021  0.0642  0.0545
29568W        W45462   2.806  18.114  10.652 -0.1132  0.0472 -0.0727
29569W        W45463   2.292   7.692   4.479 -0.1961 -0.2095  0.0984
29570W        W45464   1.340   3.547  12.553 -0.0532 -0.2167 -0.3258
29571W        W45465  15.378   6.723  14.292 -0.0056  0.0708  0.0367
29572W        W45466   2.004   8.592   1.779  0.0733  0.2823 -0.2080
29573W        W45467  16.164   1.795   3.180  0.0710 -0.0180  0.1033
29574W        W45468  14.076   3.248   1.433 -0.0301  0.0602 -0.0266
29575W        W45469   8.487   2.864   0.769  0.3450  0.3150  0.0204
29576W        W45470   3.216  14.151   4.313  0.2957 -0.4878  0.0378
29577W        W45471  13.474  14.324  14.722 -0.0305 -0.7395 -0.2337
29578W        W45472   0.605   9.460   5.120 -0.0294 -0.0039 -0.3473
29579W        W45473   3.542   1.895  11.035  0.1718  0.1568 -0.2203
29580W        W45474  10.875   5.365   3.662  0.1266 -0.0708  0.1051
29581W        W45475   1.646   7.889  13.235 -0.0331  0.0956 -0.0600
29582W        W45476   5.712  14.350   2.623  0.7555 -0.1215 -0.0109
29583W        W45477  10.848  19.116   3.529 -0.1794 -0.1490  0.1726
29584W        W45478   8.026   7.486  14.124  0.2606 -0.0358 -0.2581
29585W        W45479  18.855  12.324   4.895  0.2984  0.0486 -0.1186
29586W        W45480   2.952   5.769   5.621  0.1343 -0.2462 -0.1035
29587W        W45481   5.081   9.041  12.623 -0.2189  0.5053  0.1162
29588W        W45482   1.341  10.073   4.233 -0.0398  0.0507 -0.1907
29589W        W45483   0.282  17.989   5.296 -0.0959  0.1043 -0.3278
29590W        W45484   1.919  19.173   2.571 -0.0524  0.2302 -0.0372
29591W        W45485   5.289   4.461   3.409  0.0869  0.1141  0.2429
29592W        W45486   4.091  10.930  12.579 -0.2094  0.1273  0.1771
29593W        W45487  18.035   2.245   2.376  0.0773 -0.1027  0.1022
29594W        W45488   7.421   8.097  10.997  0.1980 -0.0895  0.1595
29595W        W45489  18.594  15.010   2.441 -0.2346 -0.0177  0.1370
29596W        W45490   5.850   6.416  11.571  0.1496  0.0693 -0.0199
29597W        W45491   8.602   1.897   2.406 -0.1871  0.2290 -0.2415
29598W        W45492   1.812   1.921  11.793 -0.2100 -0.0364 -0.1372
29599W        W45493   1.751   9.773   2.376 -0.0161 -0.3958 -0.1434
29600W        W45494   0.474  18.530   3.342 -0.0883 -0.4003 -0.0965
29601W        W45495   8.502   3.808   4.342  0.0816  0.0518  0.2909
29602W        W45496  14.765  16.310   4.047 -0.0096 -0.0360  0.0731
29603W        W45497  16.609  15.203   1.335 -0.1762 -0.1208  0.1991
29604W        W45498  10.586  17.225  12.170  0.0015 -0.1165  0.4789
29605W        W45499   7.029  16.794  10.219  0.3299  0.2699 -0.0983
29606W        W45500  14.270   6.318  13.188 -0.1319  0.1675  0.0186
29607W        W45501   9.419  17.503   3.962  0.4587  0.0118  0.1210
29608W        W45502  12.578  12.330   5.006 -0.2364  0.3012  0.3729
29609W        W45503   2.754   7.711  12.503 -0.2785 -0.1913 -0.0131
29610W        W45504   1.258  16.919  13.105 -0.5268  0.5445 -0.0602
29611W        W45505   1.079  16.057   2.733 -0.1646  0.3973  0.0104
29612W        W45506   6.384   7.577  14.652 -0.0085 -0.2299 -0.4076
29613W        W45507  13.631  10.564  13.395 -0.0433 -0.2401  0.4406
29614W        W45508   6.665  17.848   0.885  0.1151  0.3916 -0.2247
29615W        W45509   3.640  18.749  14.673  0.0508 -0.2383 -0.2136
29616W        W45510   1.286  11.540   4.565 -0.1650  0.3825  0.1190
29617W        W45511   7.063  15.882   0.539  0.1215  0.3439 -0.1531
29618W        W45512   1.737   1.050   3.344  0.0747 -0.1657 -0.1551
29619W        W45513  14.306  13.036  10.291 -0.0413 -0.0827 -0.0954
29620W        W45514  10.944   1.362  14.867  0.1648 -0.2960 -0.1335
29621W        W45515   7.741   8.588   4.458 -0.3361 -0.0798 -0.1526
29622W        W45516   7.748  17.193  11.944 -0.0696 -0.0294 -0.2321
29623W        W45517  15.824  11.845   4.317  0.2455  0.0236  0.2828
29624W        W45518  12.237  11.778   2.350 -0.1705 -0.2513 -0.2114
29625W        W45519  13.489  13.062  14.996 -0.0873  0.0830 -0.1635
29626W        W45520   1.220  14.308   2.820  0.0077  0.2400 -0.0572
29627W        W45521   1.403   9.152  12.067 -0.2605  0.0541 -0.0760
29628W        W45522   6.287  16.103  11.780 -0.1902 -0.1724  0.0769
29629W        W45523   9.400   6.266   1.399  0.0414 -0.1442 -0.0098
29630W        W45524  17.852   1.678   1.714 -0.2032  0.0299  0.0338
29631W        W45525  13.408   8.689   1.850  0.1300 -0.1535 -0.0456
29632W        W45526   3.691  15.508   0.828  0.4623  0.1977  0.0173
29633W        W45527   4.149  10.466   3.773 -0.2064  0.1745 -0.1171
29634W        W45528   8.318   6.204  13.872  0.0602  0.3212  0.4229
29635W        W45529   6.055  11.764   1.435  0.0351  0.1379 -0.4409
29636W        W45530  17.822  10.336  14.858 -0.1131 -0.2372  0.0482
29637W        W45531   9.066  17.381  13.087  0.1519  0.2088  0.1759
29638W        W45532   7.989  18.014   3.893 -0.4354  0.0049  0.3328
29639W        W45533  13.748   6.634  13.849 -0.2042  0.0380 -0.4199
29640W        W45534   0.393  13.226  11.609 -0.1246  0.0731 -0.0557
29641W        W45535   7.150  11.599  11.403  0.1502  0.3486  0.4937
29642W        W45536   1.541   1.743   5.367 -0.2982 -0.1196  0.0650
29643W        W45537   7.476  17.288   2.855 -0.1044  0.0662  0.3082
29644W        W45538   2.138   8.878   4.321 -0.0785  0.3110 -0.1341
29645W        W45539   2.901   3.071  14.120 -0.0991  0.2342 -0.1615
29646W        W45540   0.631   3.823   4.303 -0.1092 -0.0073  0.1446
29647W        W45541   7.031  15.643   1.660  0.2094  0.0489  0.0875
29648W        W45542  13.006  17.807   4.774  0.4580 -0.0519 -0.1659
29649W        W45543   4.895   8.522  12.738  0.2998 -0.0558  0.0237
29650W        W45544  10.190   4.665  11.745  0.2189 -0.0804  0.2864
29651W        W45545   4.826   5.470  13.940  0.1553  0.3346 -0.0258
29652W        W45546   7.091  17.886  11.963 -0.2306 -0.1319 -0.3178
29653W        W45547  12.429   6.392   2.608  0.0533  0.0091 -0.0504
29654W        W45548   7.598  18.335   1.405 -0.1612  0.1932 -0.0477
29655W        W45549  10.551   9.570  12.395 -0.1100 -0.1195 -0.3785
29656W        W45550   8.598   7.899   5.081 -0.2249  0.0935 -0.3037
29657W        W45551   8.014  13.570   4.103 -0.0954 -0.0337 -0.0797
29658W        W45552  18.260  18.110   9.961  0.4332 -0.0120  0.1222
29659W        W45553  17.832  13.194   0.943  0.1036  0.0724  0.1126
29660W        W45554  18.656  19.153  14.571  0.0385  0.3366  0.2309
29661W        W45555   8.385   8.137   3.100  0.1718  0.2020  0.0765
29662W        W45556   6.463  16.354   2.800 -0.1421  0.1554  0.1409
29663W        W45557   4.545   7.519  14.700  0.0897 -0.3517 -0.0358
29664W        W45558   0.148  11.437   0.143  0.0724 -0.2928  0.0356
29665W        W45559  12.490   9.121  14.227  0.0909  0.0107  0.3057
29666W        W45560  10.446   2.879  12.683  0.1402  0.1891 -0.0751
29667W        W45561   9.133  16.148   1.640  0.0830 -0.2003 -0.1227
29668W        W45562  12.768   4.983  13.661  0.1889  0.0967  0.1981
29669W        W45563  11.128  11.676   5.034 -0.1332 -0.2820 -0.4046
29670W        W45564  16.657   0.609   2.033 -0.0992  0.0982 -0.2298
29671W        W45565   4.936   7.528  11.480  0.1270 -0.3400 -0.1761
29672W        W45566   2.166  18.558  13.083 -0.2924 -0.0276  0.2377
29673W        W45567  17.382   2.095  12.360 -0.0096 -0.0846  0.2157
29674W        W45568  11.782   5.756  13.785 -0.0717  0.0914 -0.1511
29675W        W45569   0.149  15.842   3.743 -0.0881  0.0220 -0.0145
29676W        W45570  18.146  19.112  14.668 -0.0809 -0.0908  0.0654
29677W        W45571   8.477  17.097  13.873 -0.1012 -0.2490 -0.4189
29678W        W45572  18.510   9.577   0.145  0.0174  0.0437  0.0675
29679W        W45573   5.666  17.022   1.457 -0.3302  0.0933 -0.1808
29680W        W45574  11.239   0.939   2.076  0.0829  0.1067 -0.4454
29681W        W45575  14.763   0.301   4.492 -0.0851  0.0190  0.0716
29682W        W45576   6.305   1.928   4.963 -0.0769 -0.2324  0.1049
29683W        W45577  14.205  16.187  10.239 -0.3007 -0.2657  0.0512
29684W        W45578   3.936  15.721  14.354 -0.1421 -0.0820  0.0031
29685W        W45579   2.476   6.391   2.118 -0.1151  0.1578 -0.1068
29686W        W45580   7.473   7.224  11.804  0.1674 -0.0632 -0.0950
29687W        W45581  18.118  10.840   4.011  0.1245  0.0150 -0.1170
29688W        W45582   6.840   4.698   1.176  0.0949  0.1364 -0.1376
29689W        W45583   5.298  16.482  13.301  0.1248 -0.0980 -0.0190
29690W        W45584  17.449  18.445  10.087 -0.0341 -0.1826 -0.0950
29691W        W45585  17.774  17.811  14.008  0.0836  0.1848 -0.3885
29692W        W45586  16.388  10.756  13.651  0.0937 -0.2089  0.0272
29693W        W45587  17.586   3.362  13.638 -0.1732 -0.1080 -0.0763
29694W        W45588  15.610  13.493  11.624 -0.0899  0.1510 -0.0907
29695W        W45589  11.912  14.148   2.058  0.2659  0.2716  0.0122
29696W        W45590  14.644   1.784   3.523 -0.1269  0.1994  0.1171
29697W        W45591  19.080   1.391   5.769 -0.2004 -0.1427 -0.1606
29698W        W45592   6.232   7.012   4.871  0.1442 -0.4804 -0.0067
29699W        W45593  15.856  12.371  11.054  0.2229 -0.3754 -0.0414
29700W        W45594   7.590   5.600   5.699  0.1686 -0.0382  0.0384
29701W        W45595  11.527  14.051   1.625 -0.0829 -0.3199  0.3087
29702W        W45596  10.420   5.351   1.749  0.0751 -0.3858  0.1271
29703W        W45597  12.275  11.913   1.819 -0.2419  0.1313  0.2092
29704W        W45598  17.030   0.127  11.550 -0.1148  0.3990  0.0138
29705W        W45599   5.532   0.758   1.407 -0.4281 -0.0202 -0.4901
29706W        W45600  12.645   1.067   1.333  0.0725  0.0674  0.1450
29707W        W45601  16.369   1.335   3.215 -0.1587 -0.1085 -0.0601
29708W        W45602  13.933  16.613  15.008  0.1216 -0.0813  0.1344
29709W        W45603   5.659  18.231  11.213 -0.0013  0.1054 -0.2952
29710W        W45604   1.737  14.273  14.534  0.2262 -0.0790  0.1237
29711W        W45605   1.411   8.608   2.114 -0.1703  0.1052 -0.1440
29712W        W45606   1.696   2.910   1.193 -0.1822  0.3140  0.1564
29713W        W45607  11.284   3.490   1.746  0.1623 -0.1515 -0.0205
29714W        W45608  16.624   1.380  14.841  0.0658  0.1094 -0.2947
29715W        W45609  18.343  11.903   5.178  0.2004 -0.1211 -0.0672
29716W        W45610   7.086  10.751   3.875 -0.1061 -0.1352  0.3708
29717W        W45611  13.132   7.628   4.473  0.1087  0.0752  0.1219
29718W        W45612   7.919   7.827  10.128 -0.2927 -0.1776  0.0499
29719W        W45613   8.883  14.834  14.877 -0.1083 -0.0247  0.0322
29720W        W45614  16.663   4.982   0.052  0.1490 -0.2217  0.1846
29721W        W45615   4.511   2.337  12.820 -0.1547 -0.3939 -0.0216
29722W        W45616   6.919  18.376   5.760 -0.0807  0.4928 -0.1522
29723W        W45617  15.002  11.603  12.236 -0.4177  0.2604 -0.2853
29724W        W45618   8.386  19.215  12.348 -0.1455  0.1365  0.2595
29725W        W45619   1.282  19.012  10.883 -0.2609  0.2612 -0.1277
29726W        W45620  13.823   2.939  11.122 -0.0424 -0.2282  0.0472
29727W        W45621  12.452  17.848   4.851 -0.2705 -0.3012  0.1183
29728W        W45622   7.519  14.251   2.798 -0.4037  0.3556  0.2682
29729W        W45623   0.532   4.465   0.004 -0.0446  0.5516  0.2435
29730W        W45624   7.768   5.906  13.785 -0.1268  0.2854  0.0701
29731W        W45625   2.697   3.693   2.133  0.1194  0.2342 -0.1535
29732W        W45626  10.308  18.739  13.748 -0.1174 -0.2515  0.3603
29733W        W45627   3.274   4.190   1.030  0.5372  0.1610 -0.3540
29734W        W45628   7.769   5.744   9.806  0.0258  0.2786  0.1448
29735W        W45629  19.034  10.818  11.830  0.2010 -0.1673  0.2321
29736W        W45630  14.483  14.001  10.820 -0.0262  0.0125  0.0522
29737W        W45631  18.576   3.956   3.632  0.1527  0.1542 -0.2993
29738W        W45632   2.202  17.369   0.648 -0.2463  0.3015 -0.0417
29739W        W45633  14.403   0.627  14.955 -0.1453  0.1356 -0.0060
29740W        W45634  17.359   1.340   5.371  0.1429 -0.2210 -0.2731
29741W        W45635  14.462   9.037   0.474 -0.0762  0.1059  0.1068
29742W        W45636  14.551   1.279  11.531 -0.1637  0.0185 -0.1300
29743W        W45637  13.476  11.095   0.859  0.1372 -0.3953 -0.0523
29744W        W45638  17.264  17.689   3.907  0.2617 -0.0699  0.2885
29745W        W45639  17.265   9.207   3.217 -0.1841 -0.1102  0.1062
29746W        W45640   3.526  12.703   1.334  0.0176 -0.0515  0.1236
29747W        W45641   8.192  10.363   3.787 -0.0681 -0.1991  0.1306
29748W        W45642  17.885  16.355   0.694  0.1617  0.1863 -0.2403
29749W        W45643  19.003   1.297   2.667  0.1477  0.2086  0.2580
29750W        W45644   9.966   4.285  10.543 -0.0649  0.2539 -0.0858
29751W        W45645  19.184   9.621   4.146 -0.2598 -0.2078  0.1146
29752W        W45646   3.223   9.138  12.201 -0.1756 -0.0325  0.0409
29753W        W45647  17.263  15.248   2.565 -0.1309  0.0042  0.1924
29754W        W45648   7.770   0.445   5.190  0.1378  0.0163 -0.0533
29755W        W45649   4.980   1.970   2.223  0.2160  0.4135 -0.1869
29756W        W45650  13.239  12.810  10.475 -0.0089  0.2350  0.3611
29757W        W45651   3.700   1.333   4.326 -0.0334  0.0719  0.2859
29758W        W45652   5.956   8.473   1.581  0.0976  0.0530  0.0374
29759W        W45653  18.804  11.288   4.645  0.2411 -0.3534  0.0629
29760W        W45654   6.809  12.279  13.205  0.0528 -0.1442  0.1386
29761W        W45655  13.364  11.988  13.014 -0.0891 -0.1667 -0.0834
29762W        W45656  16.866  12.294   2.591  0.1682  0.1558  0.1619
29763W        W45657   7.221  14.758   3.445 -0.1829 -0.0139  0.2751
29764W        W45658  11.778  16.005   3.936  0.0964  0.0012  0.0508
29765W        W45659   2.999  13.196  11.535 -0.1732  0.2466  0.1319
29766W        W45660  11.818   9.149   4.786 -0.0240  0.1796  0.0956
29767W        W45661   1.150  16.107  14.837 -0.1619 -0.0978 -0.0220
29768W        W45662   1.732   2.807   3.406  0.1476 -0.2558  0.0564
29769W        W45663   3.860   4.330   1.770 -0.0886 -0.1641 -0.1543
29770W        W45664   5.612   0.300   1.253  0.1656 -0.0137  0.3107
29771W        W45665  13.409  12.294  14.446  0.4162 -0.1733 -0.0570
29772W        W45666   7.097   8.890   3.845 -0.0980 -0.2176 -0.2524
29773W        W45667  17.493  10.944   4.442 -0.1755  0.3853  0.0567
29774W        W45668   2.815   5.007   3.415  0.2954  0.0565  0.3205
29775W        W45669   5.158  12.980   2.985  0.3941  0.1291 -0.0984
29776W        W45670   7.986   2.416   1.116  0.5519 -0.0989  0.1097
29777W        W45671  18.045   0.401  12.066 -0.1976 -0.2743  0.0979
29778W        W45672  12.098   9.957  14.453 -0.1203  0.1067  0.1032
29779W        W45673   6.269   2.396  14.770 -0.3719 -0.0340 -0.0197
29780W        W45674   2.877   7.787   3.104 -0.0423 -0.0820  0.0514
29781W        W45675   8.228   0.483  13.154 -0.3484  0.2313  0.2098
29782W        W45676   2.554  11.588   1.702  0.0902 -0.3353 -0.2552
29783W        W45677   5.604   5.892   0.655 -0.1100 -0.3417 -0.2353
29784W        W45678   8.050  18.175  10.171  0.3221 -0.1599 -0.1314
29785W        W45679  15.609  10.716   0.847  0.3781  0.0958 -0.0663
29786W        W45680   2.948  13.185   4.960 -0.0888 -0.0422  0.1898
29787W        W45681   4.285  13.988   4.791 -0.0705 -0.0388  0.1290
29788W        W45682   0.872  14.547  10.500 -0.0668 -0.1448  0.2601
29789W        W45683   3.407  16.981  10.863  0.2089 -0.1560 -0.0571
29790W        W45684   1.158   4.825   2.246 -0.1951  0.3615  0.5097
29791W        W45685  14.082  18.465   2.227 -0.0760  0.1182  0.2562
29792W        W45686   8.682  16.368   1.763  0.1368 -0.3177 -0.1065
29793W        W45687  10.172  18.258   9.418  0.0431  0.0790 -0.0607
29794W        W45688   8.584  18.058  11.923 -0.1328 -0.0067 -0.0246
29795W        W45689   9.592  13.328   4.557  0.2310  0.2641 -0.0385
29796W        W45690   4.082  18.741  10.777  0.2356 -0.0149  0.0346
29797W        W45691  10.035  17.165  10.395 -0.1677 -0.0915  0.0681
29798W        W45692   1.642   0.436   4.066  0.1048  0.4264  0.1244
29799W        W45693   9.183   7.906   1.163  0.1217  0.2416 -0.2092
29800W        W45694  18.244   0.252   4.813  0.2199 -0.2981 -0.0555
29801W        W45695  10.858   7.621   9.985 -0.1462  0.3332 -0.1510
29802W        W45696  11.663   1.577  13.821 -0.0413  0.0485  0.3393
29803W        W45697   7.895   4.567   6.091  0.2233 -0.0276 -0.1775
29804W        W45698  11.535  11.894  13.282 -0.0734  0.1290  0.0505
29805W        W45699  13.350   3.447   5.051 -0.0072 -0.1584 -0.1751
29806W        W45700   8.493   9.786  15.070  0.0489  0.0983  0.0758
29807W        W45701  18.438   4.066   4.559 -0.1028 -0.2388  0.0339
29808W        W45702   0.645   3.678   1.997 -0.1070  0.0785 -0.1672
29809W        W45703   1.312  13.684  13.784 -0.1935  0.2419 -0.0583
29810W        W45704  17.186   0.788   0.786 -0.3289  0.1372 -0.1824
29811W        W45705   4.444   2.032   2.087  0.0861  0.0506 -0.0770
29812W        W45706  14.984   2.366  13.731  0.1471  0.0678  0.0831
29813W        W45707  17.779   6.647  13.907 -0.3928 -0.0450  0.1763
29814W        W45708  14.219   2.730  10.874 -0.1285  0.0928  0.0020
29815W        W45709   6.297  17.426   3.752  0.2923 -0.2574  0.0741
29816W        W45710   5.600   7.944  11.736 -0.1057 -0.1649  0.0588
29817W        W45711   9.943  17.048  14.722  0.1119 -0.0307  0.1671
29818W        W45712  15.348  12.097  10.306 -0.1052 -0.2752  0.0251
29819W        W45713  19.150   8.882   1.512 -0.1464  0.1732  0.0651
29820W        W45714   3.554  16.992  14.485 -0.0616 -0.3714  0.0366
29821W        W45715  14.024  18.193  12.675  0.3499 -0.0323  0.2146
29822W        W45716   1.260   2.754   0.539 -0.3533  0.3322 -0.0047
29823W        W45717  11.367   0.755  11.942  0.1299 -0.0369 -0.0078
29824W        W45718  17.143   3.357  11.629 -0.3616 -0.1293  0.0315
29825W        W45719   4.902  16.315   4.060  0.0323  0.2400 -0.1054
29826W        W45720   5.525  10.947  12.501 -0.1309  0.2707 -0.2445
29827W        W45721  18.725   2.515  12.638 -0.2836  0.2267 -0.0243
29828W        W45722  12.712   5.061  11.607  0.2003 -0.0558  0.1089
29829W        W45723   4.055  14.114   0.023 -0.2085 -0.0019  0.4373
29830W        W45724   0.725   4.101  12.274  0.1229 -0.0121 -0.0117
29831W        W45725  18.788   2.769  11.214 -0.0286 -0.2883  0.2041
29832W        W45726   8.731   4.965   4.893 -0.0395 -0.1801  0.0304
29833W        W45727  13.805   5.907  12.651  0.1127 -0.1508  0.3321
29834W        W45728   6.730  12.879  11.125 -0.1727 -0.0568 -0.5938
29835W        W45729   0.546  19.105  12.030  0.0358 -0.0979  0.3823
29836W        W45730  15.936  13.155   2.489 -0.2178 -0.1718  0.0711
29837W        W45731  16.501   7.524  11.144 -0.0262 -0.1354  0.2416
29838W        W45732  16.694   2.708   0.085  0.0187  0.0185  0.3163
29839W        W45733  13.873  14.035  12.997 -0.3946  0.2850 -0.1620
29840W        W45734  12.538   0.869  12.551 -0.0037  0.2679  0.2859
29841W        W45735  12.806  16.988  12.915  0.0226 -0.1368  0.0961
29842W        W45736   3.718   6.731  12.284  0.3080  0.0554  0.2313
29843W        W45737   0.638  11.459   1.108 -0.3473  0.0906  0.0414
29844W        W45738  10.234   1.665  11.688  0.0914 -0.0403  0.4332
29845W        W45739   1.713   8.073   3.254 -0.0242 -0.1937  0.0082
29846W        W45740   0.744   3.236   0.820 -0.1269 -0.2234  0.0455
29847W        W45741  15.546  12.190   0.176  0.1319 -0.2072 -0.0140
29848W        W45742   9.703   6.513   0.992  0.0184 -0.1085 -0.3970
29849W        W45743   8.598   8.647  14.658 -0.1464 -0.1588  0.0582
29850W        W45744  15.782  14.299  14.051  0.1593 -0.1768  0.2364
29851W        W45745  18.766   9.672   2.662 -0.0615 -0.0737  0.1140
29852W        W45746  14.130  10.578  10.657 -0.4722 -0.1492 -0.4389
29853W        W45747  18.577  13.186  12.945  0.0783 -0.0109  0.1155
29854W        W45748   4.292  14.493  10.357  0.2647  0.0165 -0.2219
29855W        W45749   9.670   3.153  13.813 -0.4859 -0.1147  0.3227
29856W        W45750   2.445  15.759   0.445  0.0022 -0.1774  0.2297
29857W        W45751   8.865   5.675  12.290  0.0237 -0.1779 -0.0136
29858W        W45752  14.487  10.143  12.813 -0.2032 -0.3558  0.0161
29859W        W45753   3.356   6.465  14.923 -0.0551  0.0515 -0.0881
29860W        W45754   6.153   3.423   2.022  0.1471  0.1935  0.0664
29861W        W45755   2.459   2.474  10.523 -0.0052 -0.2014 -0.1925
29862W        W45756  17.939   7.587  13.821  0.2739  0.1977  0.3927
29863W        W45757   9.187  12.255  13.141 -0.2264 -0.4492  0.3256
29864W        W45758   6.798   2.044   3.104 -0.1751 -0.1704 -0.2245
29865W        W45759   2.731  18.049  14.387  0.0835  0.2672 -0.0877
29866W        W45760  15.578   9.309  10.770 -0.0360  0.0207  0.4354
29867W        W45761   9.471  11.690   3.462  0.1429 -0.2191  0.1848
29868W        W45762   0.154   4.064   4.231  0.1608 -0.2042  0.0076
29869W        W45763   6.457   6.460  13.709  0.3411 -0.1964 -0.3038
29870W        W45764  17.880   6.968  11.328 -0.3956 -0.1121 -0.0640
29871W        W45765   2.769   8.015   5.214  0.1205 -0.4090 -0.1172
29872W        W45766   0.131   8.824   3.513 -0.0407  0.2540 -0.1000
29873W        W45767   1.756  11.869   0.022 -0.2001 -0.0493 -0.0746
29874W        W45768  11.362  18.741   2.785 -0.1531  0.1111  0.0457
29875W        W45769   1.974   7.704  14.160  0.0539 -0.1512 -0.2072
29876W        W45770  17.537   9.931   4.277  0.0559 -0.1089 -0.1664
29877W        W45771  18.074  14.791   3.269 -0.0434 -0.0790  0.3009
29878W        W45772   8.852  12.368   1.313 -0.4937 -0.0743  0.0003
29879W        W45773   8.427  17.522  12.095  0.1468 -0.0341  0.0580
29880W        W45774   2.660  17.622   4.207  0.3152 -0.2054  0.4398
29881W        W45775  19.212  14.643  13.649  0.1557 -0.0241 -0.0284
29882W        W45776   4.160  17.890  13.931  0.0030  0.0561 -0.1165
29883W        W45777  15.045   0.317   3.285  0.0276 -0.2359  0.0850
29884W        W45778  13.330   4.940   3.318  0.1113  0.0144 -0.4442
29885W        W45779   0.500   3.575  13.507  0.1525  0.0624 -0.1097
29886W        W45780  17.343   8.302   4.330 -0.0293 -0.0678 -0.2427
29887W        W45781  13.324  19.147   1.011  0.0594 -0.0615 -0.2930
29888W        W45782  17.483  10.286  10.942  0.1316 -0.3286  0.2179
29889W        W45783  13.606   9.129   2.095 -0.2604 -0.2970 -0.2500
29890W        W45784   6.037   5.879  10.556  0.0323 -0.1279  0.1097
29891W        W45785  13.028  11.120  11.859  0.2499 -0.1743  0.3488
29892W        W45786   5.645  16.801  12.498  0.0369  0.1982 -0.2008
29893W        W45787  12.108  13.301  14.181  0.0703  0.1603  0.1292
29894W        W45788   9.789   6.288  14.090 -0.0580 -0.2079 -0.0431
29895W        W45789   0.339   8.788  13.483  0.3473  0.3521  0.0747
29896W        W45790  15.022  18.001  10.763 -0.1628  0.1577 -0.2051
29897W        W45791   7.133   6.122   4.133 -0.0748  0.0728 -0.1751
29898W        W45792   3.223  15.181   4.391 -0.0957  0.1153  0.0405
29899W        W45793  17.648   9.220   4.793 -0.2129  0.0713  0.2051
29900W        W45794   2.295   3.871   0.829 -0.0009  0.2359 -0.0361
29901W        W45795  16.279  15.534  11.697  0.0203 -0.5082  0.2379
29902W        W45796  13.036  12.748   1.879 -0.2107 -0.0928  0.0956
29903W        W45797  11.162   0.490   2.336 -0.1490 -0.0167  0.0146
29904W        W45798   7.784  10.813   3.164  0.1092 -0.1042  0.0203
29905W        W45799  12.429   3.278   2.544 -0.0055 -0.1586  0.1881
29906W        W45800  14.898  15.407  13.539 -0.4624  0.2840 -0.2878
29907W        W45801   2.909  11.265   0.937  0.1072 -0.0998 -0.0638
29908W        W45802   0.784   0.359  13.865 -0.1040  0.2312 -0.0851
29909W        W45803  10.944  10.150   0.971 -0.1644 -0.1720 -0.1999
29910W        W45804  15.295  10.807   5.254 -0.2749  0.0431  0.3299
29911W        W45805  11.625   0.589   2.507  0.1584 -0.0423  0.1895
29912W        W45806   9.615  16.583  15.008  0.5833  0.3171  0.1179
29913W        W45807  10.779   1.834   1.827  0.2084 -0.1038  0.0706
29914W        W45808   2.114   1.383   0.090  0.3207 -0.0457  0.2402
29915W        W45809   9.953   1.405   3.976  0.2830  0.0910 -0.1024
29916W        W45810   6.850  10.546   3.298  0.0533 -0.1469  0.1078
29917W        W45811  10.985   8.158  10.802 -0.0374 -0.0812  0.0200
29918W        W45812  18.339   6.049  13.753  0.2863 -0.0100 -0.0394
29919W        W45813  13.171   6.708   1.173  0.1486  0.0655 -0.1657
29920W        W45814   2.742  18.120  13.814 -0.3198  0.2759 -0.1234
29921W        W45815   9.332   6.452   2.711  0.0298  0.0188 -0.1968
29922W        W45816   4.625   0.992  14.132  0.0487 -0.2115  0.2171
29923W        W45817   5.783   2.930   3.969  0.1126  0.0655  0.2337
29924W        W45818  11.000   3.059   0.393 -0.1357  0.3175  0.0293
29925W        W45819   0.722  15.720   2.459  0.2577  0.3618 -0.0688
29926W        W45820  11.826  17.757  11.925 -0.1825  0.0981 -0.0255
29927W        W45821   6.186  14.963  12.227  0.1608  0.1937 -0.0895
29928W        W45822  11.102  18.072  12.076  0.0215 -0.3615 -0.0495
29929W        W45823  18.691   1.735   1.801  0.0627 -0.1156  0.0088
29930W        W45824   5.073   0.256   4.410 -0.1343  0.2003  0.1246
29931W        W45825  11.702   2.198   3.193 -0.2128  0.0142  0.1891
29932W        W45826  15.633  15.656   9.605 -0.0392 -0.1322 -0.2578
29933W        W45827   6.251  14.843  13.891 -0.0016 -0.2220 -0.1591
29934W        W45828   3.299  12.361  11.790 -0.1913 -0.0723  0.1540
29935W        W45829  16.947   6.104  12.549 -0.0413  0.3898 -0.2432
29936W        W45830   7.436   3.794   0.495  0.0541 -0.3511 -0.2313
29937W        W45831   4.805  15.078  14.540  0.1829  0.0944  0.0082
29938W        W45832  15.626   5.795  13.769  0.0636 -0.1661 -0.0448
29939W        W45833  11.553   8.968   2.923 -0.1377  0.0344  0.0242
29940W        W45834   7.585  18.403  10.960  0.1101 -0.0890 -0.2326
29941W        W45835   0.505   7.811   2.952  0.2453 -0.0657  0.0476
29942W        W45836   3.087  17.498   3.875 -0.0981 -0.1888  0.2273
29943W        W45837  10.310   4.318   9.988  0.1901 -0.1207 -0.0061
29944W        W45838   9.029   6.814   4.883 -0.0508  0.0688 -0.1742
29945W        W45839  10.489   4.400   3.977 -0.0837  0.3382  0.0491
29946W        W45840  18.266  12.976  10.549 -0.3519  0.0473 -0.0411
29947W        W45841  14.733  12.377   0.719  0.0324  0.2483 -0.1066
29948W        W45842   1.045  17.557   4.013 -0.3973 -0.1185  0.0092
29949W        W45843  11.743  15.817   2.759 -0.0061  0.2834  0.2108
29950W        W45844  15.338  15.691   3.837 -0.2701  0.2630  0.1008
29951W        W45845   6.250   2.086  12.989 -0.0272 -0.0873 -0.3650
29952W        W45846   5.954   9.141  13.290  0.4509 -0.2240  0.1995
29953W        W45847  10.932   4.582  13.910  0.1522  0.3182 -0.0957
29954W        W45848  19.033   9.319   2.865 -0.1486 -0.1572  0.0839
29955W        W45849   9.706  12.416   2.757  0.1012  0.0786  0.0744
29956W        W45850  16.669  12.789   4.377  0.1505 -0.2481 -0.1840
29957W        W45851   7.523   8.374  14.832 -0.0116 -0.2117  0.2172
29958W        W45852  15.786   8.818  12.715  0.0390 -0.1988 -0.1484
29959W        W45853   2.715   6.840   4.261 -0.1580 -0.3118 -0.0628
29960W        W45854  16.803  11.175  14.514 -0.0933  0.3111 -0.1226
29961W        W45855   0.025  13.532   3.053 -0.2641  0.0015 -0.4123
29962W        W45856   9.967   2.752   4.583 -0.0844  0.1522  0.2866
29963W        W45857  10.958  14.875  10.260  0.3450 -0.1200 -0.1251
29964W        W45858   7.678   9.983  10.722  0.0360  0.0250 -0.0714
29965W        W45859  14.439   0.806   3.936 -0.0310 -0.1527 -0.0379
29966W        W45860   2.795   7.191   0.934 -0.0246  0.1285 -0.0377
29967W        W45861   2.509   1.387  12.882  0.1383  0.0112 -0.2471
29968W        W45862  17.668   9.476  11.934  0.1565 -0.0051 -0.0708
29969W        W45863  12.561  17.826   2.663  0.0311 -0.2091 -0.1761
29970W        W45864  17.326  16.087  10.107 -0.4796 -0.0504 -0.3050
29971W        W45865   2.054   6.908  11.742 -0.2068 -0.0412 -0.0897
29972W        W45866  12.668   2.438  11.676 -0.2691  0.1806 -0.0542
29973W        W45867   6.004  16.461  12.067 -0.6392 -0.1000  0.1256
29974W        W45868  11.888   8.896  11.561 -0.0285  0.2905 -0.1914
29975W        W45869  15.589   6.913   5.376  0.1940  0.1812  0.0538
29976W        W45870   0.656   0.552  12.057  0.0157 -0.1720  0.0942
29977W        W45871  14.433  16.421   1.532 -0.2072  0.2585  0.0259
29978W        W45872   6.837   5.804   0.733  0.5821  0.0318 -0.1936
29979W        W45873  14.993  10.051  10.594  0.6185 -0.0871  0.0320
29980W        W45874   7.116   0.340  10.577  0.0720  0.3770  0.3315
29981W        W45875   6.805   4.532   5.654 -0.3789 -0.2275  0.0072
29982W        W45876   8.060  12.426   2.251  0.4325 -0.1202  0.0669
29983W        W45877   4.122   5.044  11.148 -0.0896 -0.2172  0.1330
29984W        W45878  18.242   5.897   0.705 -0.0121 -0.1650  0.1528
29985W        W45879   5.348   1.289   3.843 -0.3400  0.1475  0.1563
29986W        W45880  16.157  18.355   3.616  0.2350  0.1125  0.2464
29987W        W45881   0.036   7.224  11.930 -0.0957 -0.0252  0.0090
29988W        W45882   5.045  15.462   2.441 -0.0041  0.0841  0.5043
29989W        W45883   7.037  16.838   1.106  0.1071 -0.0926 -0.0177
29990W        W45884  12.456  17.429   3.642 -0.0153  0.1050  0.1169
29991W        W45885   2.046   6.545  13.509 -0.3498  0.2544  0.0510
29992W        W45886  17.925   4.117  10.515  0.4266 -0.0226  0.1046
29993W        W45887   4.157   2.278   3.892  0.1554  0.1488 -0.0134
29994W        W45888   1.765  10.351   0.909  0.0524 -0.3945  0.0249
29995W        W45889  13.552   4.127   2.709  0.1174  0.4645  0.3250
29996W        W45890  15.010   9.555  14.934  0.1378 -0.2402 -0.3279
29997W        W45891   1.069   1.527   2.125  0.4308  0.1267  0.0486
29998W        W45892   2.616   0.131   2.464 -0.0512 -0.2479 -0.3396
29999W        W45893   3.870  18.944   2.133 -0.3692  0.0741 -0.0156
30000W        W45894   2.170   4.977   2.539  0.1139 -0.3705 -0.0371
30001W        W45895  18.931  13.780  14.790 -0.1797  0.1442  0.0883
30002W        W45896  12.877   6.603   2.867  0.0218 -0.0324 -0.0014
30003W        W45897  13.041   0.687  12.648 -0.0919  0.2503 -0.3015
30004W        W45898  12.578  15.017   0.093  0.1683 -0.0239  0.0323
30005W        W45899   6.331  11.281   3.693 -0.1024 -0.1972  0.3438
30006W        W45900  12.322   1.028   3.720  0.3826 -0.2915 -0.1985
30007W        W45901  12.187  16.364   1.745  0.2669 -0.4351 -0.2207
30008W        W45902  18.035  13.684  10.158 -0.4707  0.2287  0.2143
30009W        W45903   6.082  17.595   4.955  0.2505  0.0200  0.1449
30010W        W45904  16.263  18.649  12.751  0.0392  0.0749  0.1784
30011W        W45905   1.266  18.007  12.687 -0.1085  0.0330  0.1276
30012W        W45906  10.992   8.681  11.422  0.2562  0.0527 -0.1353
30013W        W45907   8.445   4.886   2.336  0.0136  0.1750  0.0747
30014W        W45908  17.100  13.404  11.902  0.1348  0.2836 -0.2209
30015W        W45909   0.097  16.289   3.479  0.4396 -0.2360 -0.0996
30016W        W45910   8.034  17.065   1.430 -0.1505  0.1442 -0.0130
30017W        W45911   5.354   4.533  12.152 -0.2686  0.2305  0.0688
30018W        W45912   9.472   6.234  12.432 -0.1297  0.2207  0.1775
30019W        W45913   3.564   3.841  10.897  0.4593  0.2060 -0.2355
30020W        W45914   2.895   5.942   1.797  0.4064 -0.0131  0.0579
30021W        W45915  13.378   2.946   0.275 -0.2054 -0.2502  0.0840
30022W        W45916   4.940   9.670  13.926  0.0393  0.2325  0.0287
30023W        W45917   0.282  13.648  14.002  0.3966  0.0515  0.2389
30024W        W45918   1.343   8.947  12.536 -0.2555  0.0870 -0.0125
30025W        W45919   0.766  13.147  11.921 -0.1215 -0.1316 -0.1150
30026W        W45920   2.195  17.974  12.481  0.0638  0.2465 -0.1958
30027W        W45921   7.490   9.611   2.064 -0.1292  0.0140 -0.1603
30028W        W45922  10.304  14.464   3.235 -0.2089  0.1071 -0.0036
30029W        W45923  18.261  15.395   1.497  0.0721 -0.0013 -0.0317
30030W        W45924  18.558  11.503  14.221 -0.5811 -0.2005  0.1291
30031W        W45925  15.185  16.470  14.951  0.3503  0.1070 -0.0423
30032W        W45926  14.914  13.779  10.634 -0.1347  0.4696  0.1211
30033W        W45927  16.507  19.217   4.739  0.1049 -0.0136 -0.2203
30034W        W45928   4.795   9.578   3.007  0.0732 -0.0802 -0.1736
30035W        W45929   3.235   3.166   5.756  0.0300  0.1685 -0.0427
30036W        W45930  11.262  10.830  11.840  0.2364  0.3092 -0.0280
30037W        W45931   4.844   5.440  10.877 -0.1191 -0.1288  0.0155
30038W        W45932  17.862  16.527  14.041  0.0123 -0.0129 -0.3509
30039W        W45933   4.686  12.453  10.011 -0.3775 -0.2209  0.1685
30040W        W45934   9.542   6.216  11.148 -0.1744  0.2646  0.0866
30041W        W45935  14.742  14.393   2.143  0.0369 -0.3466 -0.2337
30042W        W45936   0.106  15.319  12.951 -0.0980 -0.1417  0.1150
30043W        W45937   6.676  13.529  14.953 -0.0815  0.0101 -0.1452
30044W        W45938   5.630  13.705   5.339 -0.2318 -0.0511 -0.2295
30045W        W45939   0.811  16.150  10.324 -0.1563 -0.2715 -0.2005
30046W        W45940   8.718  17.894   4.491 -0.1760  0.1789  0.2325
30047W        W45941  12.325   6.873   1.795  0.1727 -0.1443  0.0745
30048W        W45942  16.300  16.420  10.534  0.2226  0.0591  0.0828
30049W        W45943   8.551   1.790  10.161 -0.1496  0.4280  0.2412
30050W        W45944   0.476   0.278   5.680 -0.1790  0.0959  0.0811
30051W        W45945  12.582   7.357  15.090  0.0715  0.0608  0.0006
30052W        W45946   5.910  17.088  10.413  0.3149  0.0273 -0.1022
30053W        W45947   4.765  11.733  14.488 -0.1779 -0.2318  0.1607
30054W        W45948   9.158  14.834  11.966 -0.2589  0.0694 -0.0133
30055W        W45949   1.848   7.247   2.394 -0.0504 -0.1147  0.2332
30056W        W45950  10.465  15.210  13.846  0.0709 -0.1054  0.0788
30057W        W45951   5.390  12.569   5.028 -0.4113 -0.1752  0.1482
30058W        W45952   7.786  16.315  14.687  0.0045 -0.0607 -0.1180
30059W        W45953  13.867  11.437  12.960 -0.4513  0.1027 -0.1504
30060W        W45954   9.356  19.095   2.002  0.1023  0.1666 -0.1542
30061W        W45955   7.022   9.275  14.979  0.3386  0.2993  0.0319
30062W        W45956   3.569  12.937  13.509  0.0993 -0.0788  0.0095
30063W        W45957   4.354  10.044   1.012 -0.0218  0.1030 -0.0865
30064W        W45958  16.914   3.942  10.956 -0.1443  0.1061 -0.4474
30065W        W45959  12.260  15.881   0.827 -0.1400  0.0225  0.0306
30066W        W45960  13.539   7.522   2.463  0.2399  0.0998  0.1072
30067W        W45961   4.934  15.902  12.133  0.0343  0.1822 -0.1850
30068W        W45962   8.611   1.514  14.841 -0.0674  0.0408  0.0261
30069W        W45963  13.749   7.743   4.518  0.1513  0.1408  0.0494
30070W        W45964   7.546   3.682  13.829 -0.3441  0.0934 -0.1626
30071W        W45965   9.857   3.680  10.930  0.2336 -0.1584 -0.2999
30072W        W45966   8.279  15.351  13.361 -0.2447  0.1092 -0.1490
30073W        W45967   1.562   3.575   5.126 -0.0095 -0.0363  0.5267
30074W        W45968   2.414  11.158   3.770  0.2693 -0.0982  0.3003
30075W        W45969   7.399  14.116   3.938  0.1322  0.0558 -0.2168
30076W        W45970  13.864  12.182   1.737 -0.2739 -0.0932 -0.0981
30077W        W45971   7.801   1.031   1.291 -0.2431  0.2227  0.2909
30078W        W45972   4.168  18.398   0.655  0.2802  0.1788 -0.1519
30079W        W45973  17.874   3.434  10.647 -0.2019  0.1880  0.2350
30080W        W45974  18.768   0.185   0.488  0.2231  0.0705 -0.1067
30081W        W45975  12.135   2.889  14.793  0.1465  0.2144 -0.0267
30082W        W45976  18.212   3.503  11.647  0.1937 -0.1950  0.1822
30083W        W45977   3.639   2.223   2.594  0.1824  0.1582  0.2087
30084W        W45978   6.081   7.068   1.141 -0.2757  0.0556  0.1527
30085W        W45979  11.952   4.974  12.432  0.1076  0.2174 -0.4658
30086W        W45980   2.815   8.466   5.134 -0.1310 -0.2394  0.1922
30087W        W45981   8.359   6.787   0.157  0.0100 -0.0886  0.1075
30088W        W45982   5.330   8.956  13.938  0.0706 -0.0020 -0.1911
30089W        W45983   5.127   1.012  10.997 -0.3594  0.2611 -0.2336
30090W        W45984  15.301  13.643  13.937  0.1044  0.2800 -0.0857
30091W        W45985  14.862   7.155  14.770 -0.0378 -0.2498  0.1317
30092W        W45986  18.717  18.586   1.635  0.0906 -0.1343 -0.1064
30093W        W45987   0.787   6.216  14.185  0.0768 -0.0510 -0.0295
30094W        W45988   0.547   8.500  14.737  0.2971 -0.2424 -0.0966
30095W        W45989  15.357   6.236  12.055  0.1268 -0.2570  0.1316
30096W        W45990  11.337  14.649   2.416  0.0932  0.0106 -0.1743
30097W        W45991  18.767   8.805  13.466 -0.0812  0.0974  0.0047
30098W        W45992   9.676  17.130  12.670  0.2634  0.2175 -0.4647
30099W        W45993  15.489   1.177   4.769 -0.3088 -0.2895 -0.0280
30100W        W45994   7.254  18.239  10.619 -0.1870  0.0858  0.1984
30101W        W45995  11.059  15.125  11.843  0.0118 -0.2316  0.4021
30102W        W45996  15.832   9.056  13.235 -0.1146  0.2850 -0.1998
30103W        W45997   2.460   3.293   2.337  0.1904  0.1505  0.1372
30104W        W45998  11.882   2.889   0.103 -0.0473 -0.2844  0.2687
30105W        W45999   5.228  16.010  13.512 -0.0107 -0.0805  0.1034
30106W        W46000   9.927   9.540   1.774  0.2244  0.5680 -0.1381
30107W        W46001   3.842   1.348  14.146  0.0823 -0.2968 -0.0030
30108W        W46002   7.896  18.057  11.365 -0.2800  0.0019  0.0895
30109W        W46003  12.070   9.931   1.529 -0.3406 -0.1931 -0.0338
30110W        W46004  12.491  14.009   0.253 -0.0689 -0.1812 -0.2200
30111W        W46005   4.528  11.287   5.063  0.1409 -0.1939 -0.2368
30112W        W46006  15.008   9.053   4.888  0.3472  0.0517 -0.0411
30113W        W46007   4.937   9.893   4.129 -0.0512  0.2925  0.1733
30114W        W46008   2.614   5.837  12.550 -0.0547  0.4568 -0.2427
30115W        W46009  19.059   0.444  14.892  0.0704  0.1466 -0.2899
30116W        W46010   9.367   0.502   5.034  0.0054 -0.1928 -0.0074
30117W        W46011  10.122  18.982  14.771 -0.2308  0.0369 -0.0167
30118W        W46012   2.798   9.514   3.214  0.1530  0.2685 -0.1615
30119W        W46013  10.231  16.335  13.610  0.0172 -0.1049 -0.0001
30120W        W46014  10.362   5.935   0.569 -0.0803  0.0511 -0.1135
30121W        W46015   8.931  12.170   3.123 -0.1675 -0.2145 -0.0836
30122W        W46016  18.810  12.891   2.796 -0.0060 -0.0626 -0.1406
30123W        W46017  17.156   4.929   0.308  0.1945 -0.2014  0.1948
30124W        W46018  12.906  15.878   1.727 -0.2033 -0.0023  0.0957
30125W        W46019   7.098  18.204  14.136 -0.2206 -0.0108 -0.1851
30126W        W46020   2.541   1.076  11.515  0.1168 -0.2735  0.2137
30127W        W46021  19.181  17.310  10.645 -0.3410 -0.1176  0.0327
30128W        W46022  17.797  15.816  12.420 -0.2960  0.3078  0.1491
30129W        W46023   1.297  12.545   1.316  0.1723  0.1396 -0.1835
30130W        W46024   6.659   7.011   4.595 -0.0478 -0.2608  0.3077
30131W        W46025   1.798   9.672  14.105 -0.1363 -0.1440 -0.0264
30132W        W46026   1.422  12.317  11.135 -0.2150 -0.0618  0.0560
30133W        W46027  15.095  14.424   0.823  0.0499  0.0427  0.0170
30134W        W46028  12.607   8.740   1.637  0.2046 -0.1073  0.0701
30135W        W46029  13.644  17.508  14.671  0.0123  0.0620 -0.0870
30136W        W46030   5.442   3.619  15.017 -0.2284 -0.3780 -0.1388
30137W        W46031   2.650   5.217   0.430 -0.3038 -0.0440  0.1864
30138W        W46032   2.890  18.604  14.187  0.0942  0.0561  0.5686
30139W        W46033   1.322   1.101   2.767  0.0635 -0.0717  0.1099
30140W        W46034   3.483   7.871   5.842  0.1225  0.2154  0.2961
30141W        W46035   2.861  13.840  12.470  0.5568  0.4465  0.2453
30142W        W46036   1.751  12.577  13.396 -0.0824 -0.0386 -0.1472
30143W        W46037  10.973  16.468  11.954  0.1058  0.0025 -0.0668
30144W        W46038   9.516  17.206   4.476  0.1905  0.0855  0.0104
30145W        W46039   2.037  16.928   0.897 -0.0273 -0.0990  0.0339
30146W        W46040  16.461  15.619  11.207  0.3986  0.1461  0.0313
30147W        W46041   2.513   3.510   4.712 -0.3911  0.0083 -0.0440
30148W        W46042  18.045  16.109   3.451 -0.2831  0.0603 -0.1686
30149W        W46043   1.836   1.940   3.754 -0.0344 -0.0070  0.1774
30150W        W46044   7.754  13.776  11.882  0.0311 -0.1958 -0.0334
30151W        W46045   7.391   0.635   4.334  0.1345  0.0443 -0.4028
30152W        W46046  13.505  17.344  11.497 -0.2436  0.0320 -0.0815
30153W        W46047   7.152   8.838   0.780  0.3226 -0.1002 -0.1201
30154W        W46048  17.384   4.539   3.903 -0.2070  0.1929  0.3905
30155W        W46049  12.948   3.249   0.503  0.2598 -0.0380  0.2490
30156W        W46050   0.430  17.523  13.184  0.1336  0.0320  0.0209
30157W        W46051  14.079   5.169  14.625  0.0951  0.2729 -0.3080
30158W        W46052   9.205   2.283  11.860  0.0958  0.0004  0.1586
30159W        W46053  15.937  16.476   3.958  0.3841  0.0678 -0.0309
30160W        W46054   6.725   6.414   5.233  0.0865  0.2172 -0.1362
30161W        W46055  17.223   0.045   0.293  0.1744  0.0078  0.0613
30162W        W46056   2.191  14.449   1.592 -0.0896  0.2856  0.3122
30163W        W46057   0.805   6.332  13.135  0.3652  0.2007  0.0088
30164W        W46058  12.818  13.550  11.193  0.2727 -0.2340  0.1115
30165W        W46059   6.087  12.126   1.948 -0.0828  0.0461  0.2188
30166W        W46060   9.082   2.065   3.678 -0.2468  0.0226 -0.0092
30167W        W46061  10.626  14.389  13.579 -0.1229  0.3409  0.0367
30168W        W46062  12.103   8.128   2.316 -0.0478  0.0971  0.0295
30169W        W46063  16.481  11.872   1.740 -0.0827 -0.0856 -0.4371
30170W        W46064   2.683   2.235  11.515  0.1067 -0.1564  0.2239
30171W        W46065  10.433   8.282  11.999 -0.2847  0.0071  0.0816
30172W        W46066   2.769   9.699  10.464  0.3000  0.1962  0.2095
30173W        W46067  10.604  12.023  14.898  0.0766 -0.4434 -0.1213
30174W        W46068   4.387  17.101   3.948 -0.2513  0.2374 -0.2292
30175W        W46069  15.710   0.768   4.519 -0.0312 -0.0449 -0.0327
30176W        W46070  11.203   2.369  13.485  0.2491  0.0860 -0.1510
30177W        W46071   7.543   6.801  13.498 -0.3457 -0.3571  0.0373
30178W        W46072   2.865   1.871  12.162  0.2359 -0.2921 -0.2383
30179W        W46073  15.093  13.867  14.720  0.1089 -0.1495 -0.1761
30180W        W46074  12.694  16.665   5.666  0.0758 -0.2070  0.1075
30181W        W46075   8.456   3.645   5.182 -0.1920  0.0089  0.2291
30182W        W46076   9.226   9.354  14.414 -0.2404  0.0901 -0.0825
30183W        W46077   8.937  18.300   4.212  0.1297 -0.0197  0.2087
30184W        W46078   3.887   4.987   1.776 -0.0981 -0.1282 -0.3794
30185W        W46079  14.707  16.121   3.556  0.1650  0.0668  0.2486
30186W        W46080  10.855   9.556  13.293  0.1537 -0.0849  0.1586
30187W        W46081   9.016  16.344   4.601 -0.1462 -0.0221  0.0454
30188W        W46082   9.867  18.207  12.338  0.2514 -0.0266 -0.2816
30189W        W46083  12.217  17.944   4.161  0.3867  0.1429  0.1527
30190W        W46084   9.396  15.723   1.413  0.2329 -0.1734  0.0287
30191W        W46085  17.520   3.962   0.170  0.1028  0.2190 -0.1218
30192W        W46086   0.213  12.517  10.392 -0.0109  0.0564  0.1982
30193W        W46087  15.071   5.699  12.372  0.3694  0.0640  0.0155
30194W        W46088  12.854   9.742   1.069 -0.3644  0.3255  0.1445
30195W        W46089   4.000  17.480  11.295  0.0248 -0.1356 -0.0907
30196W        W46090  15.940  17.749  14.798 -0.1715  0.2468 -0.3146
30197W        W46091   3.062  17.633  12.686  0.2169  0.2436 -0.0815
30198W        W46092   6.870  13.900   1.117  0.0404  0.0249 -0.1723
30199W        W46093   9.068  13.502  12.179  0.3510  0.3388 -0.1892
30200W        W46094   2.394   5.434   0.108  0.0256  0.1223  0.0246
30201W        W46095  18.683  18.345  12.659  0.0114 -0.3052  0.0845
30202W        W46096   5.641  11.515  14.486  0.0437 -0.0057  0.1294
30203W        W46097  12.081   3.890  10.735 -0.0875 -0.3713 -0.0174
30204W        W46098  15.942  10.447  13.607  0.0934  0.1258  0.0826
30205W        W46099  12.362   3.121  12.326  0.0312 -0.4167  0.3862
30206W        W46100   6.684  11.249  15.015  0.1319 -0.3321 -0.0656
30207W        W46101  16.998  17.941  11.297 -0.0844 -0.1161  0.3337
30208W        W46102  14.067   5.008   3.160  0.0084  0.1968  0.0292
30209W        W46103  10.047   8.670   2.887 -0.2049  0.0649 -0.2780
30210W        W46104  18.091   5.320  13.356  0.2601 -0.2271  0.1830
30211W        W46105  14.575  12.669   2.694 -0.1257  0.2905  0.0229
30212W        W46106  11.480  10.022   3.178  0.2149 -0.0737 -0.4064
30213W        W46107  13.964  13.874  10.785 -0.3225 -0.2987  0.0840
30214W        W46108  10.085  11.623   4.166 -0.2307 -0.1851 -0.2298
30215W        W46109  13.304  12.111  10.444 -0.0288  0.2763 -0.3486
30216W        W46110  11.746   7.056  14.514 -0.0121 -0.2553 -0.2582
30217W        W46111  17.973  10.315   1.663  0.0519 -0.2465  0.0844
30218W        W46112   4.282  13.122  11.564  0.2170 -0.0421  0.0457
30219W        W46113   1.254   4.268  11.620 -0.0596 -0.0100  0.2170
30220W        W46114   0.605   3.289   3.524  0.2161 -0.1342 -0.4799
30221W        W46115   1.243  16.402  13.037 -0.5029  0.1165 -0.0326
30222W        W46116  18.183   8.020   4.381  0.0546 -0.2458 -0.0558
30223W        W46117   5.988   1.629   0.976  0.1549  0.4769  0.1786
30224W        W46118  18.823   6.280   1.391  0.1308 -0.3298 -0.0297
30225W        W46119   0.049  11.799   1.208 -0.2276 -0.2383 -0.1096
30226W        W46120  11.312   5.458   4.251  0.3472 -0.0606 -0.0406
30227W        W46121   2.364  18.175   3.870  0.2656  0.2014 -0.2096
30228W        W46122   3.550  14.571  11.509  0.3953  0.0985  0.0209
30229W        W46123   4.106   1.637   0.287  0.3395  0.2492  0.0217
30230W        W46124  14.267   7.555   9.644 -0.1185 -0.2475 -0.1317
30231W        W46125  14.469   5.837   4.238 -0.2431 -0.0995  0.0056
30232W        W46126   5.706   9.621  10.852 -0.3447 -0.4814 -0.0849
30233W        W46127  12.479  16.494  12.602  0.0972  0.0763  0.0271
30234W        W46128   3.376   0.095   0.304 -0.2807 -0.0198  0.1652
30235W        W46129  12.021   4.244   3.886 -0.3076  0.1353  0.0883
30236W        W46130   7.589  19.145  14.362 -0.2327 -0.1315 -0.1153
30237W        W46131  14.064  18.835   4.635  0.0344  0.0813  0.0010
30238W        W46132  16.165  16.391  13.708 -0.0027 -0.1073 -0.0245
30239W        W46133   9.178   5.964  14.652  0.1343 -0.1725  0.1728
30240W        W46134   6.987  14.257  14.436 -0.1426 -0.2955  0.0293
30241W        W46135  11.747   8.048   4.650 -0.0743 -0.2833 -0.0557
30242W        W46136   8.196  17.881   0.913  0.3668 -0.0434  0.0461
30243W        W46137  10.465  14.305   5.439  0.2200  0.1005  0.2525
30244W        W46138  10.000  12.936   5.419  0.1030 -0.0622  0.0251
30245W        W46139  15.697  14.278  13.270 -0.1597  0.1141 -0.1563
30246W        W46140  12.317  15.169  14.796  0.0976  0.0740  0.3014
30247W        W46141  15.760  18.126   4.317  0.0278  0.3898 -0.1547
30248W        W46142  11.531  19.161  13.198  0.3979 -0.2429 -0.2388
30249W        W46143   6.591   0.811   9.955 -0.0088  0.1376  0.1487
30250W        W46144   9.067   6.777   3.007 -0.4641  0.0890  0.2309
30251W        W46145   5.528  17.805  12.975  0.1380  0.3055  0.1989
30252W        W46146  13.400  17.886  14.883  0.3621 -0.1220  0.5927
30253W        W46147   1.905   8.727  13.980 -0.0212  0.4212  0.2428
30254W        W46148  13.641  18.921  13.979 -0.1118 -0.3005  0.1495
30255W        W46149   9.359  16.762  12.380 -0.1536 -0.2041  0.2876
30256W        W46150   4.645   0.014  13.281  0.3642 -0.0477 -0.1653
30257W        W46151  11.052   1.392  14.402  0.1250  0.1465  0.2312
30258W        W46152   9.292   7.440  13.495 -0.1468 -0.0330  0.1201
30259W        W46153   7.830   7.709  13.068 -0.1171 -0.3471  0.3199
30260W        W46154  14.234   8.334  11.031  0.1027  0.3709 -0.2290
30261W        W46155   2.890   0.183   5.259 -0.0571  0.1650  0.5627
30262W        W46156   1.811  17.004   4.407 -0.2921 -0.1119 -0.0504
30263W        W46157   1.670   2.769   5.728 -0.0043  0.0086  0.0323
30264W        W46158   1.517  10.583  13.106  0.0276  0.4727  0.0177
30265W        W46159   2.262  16.446   3.050 -0.3934 -0.2275 -0.1931
30266W        W46160  15.117  13.164  12.854  0.3334  0.2143 -0.0633
30267W        W46161  11.709   7.786  11.308  0.1564  0.3152  0.1308
30268W        W46162  10.840  11.713  10.898 -0.2759  0.1147 -0.0224
30269W        W46163  17.227   0.166   1.760 -0.0935  0.0869 -0.0234
30270W        W46164  12.050  11.055   0.691  0.1829  0.0546  0.2749
30271W        W46165   1.605  13.256   9.930 -0.2767  0.2128 -0.1108
30272W        W46166   0.211   4.443   1.318  0.0848  0.0432  0.2392
30273W        W46167   7.596   9.825   1.217 -0.0654 -0.1930 -0.1340
30274W        W46168  14.802  10.527   0.617  0.5154 -0.0655 -0.0161
30275W        W46169  16.105  17.195  10.095 -0.0018  0.1938  0.1445
30276W        W46170   7.415  15.264  11.625  0.2135 -0.2512  0.1093
30277W        W46171  15.583   4.325   2.844 -0.0593 -0.4939  0.1159
30278W        W46172  12.081  16.673  13.410 -0.2292  0.0944  0.2004
30279W        W46173  18.985   9.974   3.088  0.4123 -0.3610 -0.0503
30280W        W46174  15.688  16.359   0.556 -0.1977 -0.0135 -0.0420
30281W        W46175   5.911   7.325   1.598  0.0361 -0.3504  0.1212
30282W        W46176   3.300   7.650  12.532 -0.0163 -0.0075 -0.0229
30283W        W46177  13.734  16.158  12.261 -0.4410 -0.4032  0.2159
30284W        W46178  16.966   8.836  11.817 -0.1441 -0.1238  0.0592
30285W        W46179  10.567   7.615  10.400 -0.3193 -0.0379  0.0638
30286W        W46180   3.038  16.649  15.079  0.0059 -0.2149  0.2434
30287W        W46181  10.520  13.684   3.978  0.3231 -0.1060 -0.1370
30288W        W46182   9.206   4.257   2.751  0.0141  0.3106  0.0237
30289W        W46183  18.172  13.618   4.011  0.1471 -0.1849  0.0966
30290W        W46184   8.084  11.875  13.792 -0.1318 -0.2316 -0.1569
30291W        W46185   0.495   2.356  12.554  0.1473  0.2683 -0.2047
30292W        W46186  11.860   5.546   5.562  0.0990  0.2162 -0.2172
30293W        W46187  11.666   4.047   1.420 -0.4178 -0.0923 -0.1034
30294W        W46188   6.503  10.145  14.988 -0.0289 -0.0274 -0.0868
30295W        W46189  13.007  10.854  14.480 -0.1594 -0.1098  0.0007
30296W        W46190  15.345  13.902  10.853  0.0456  0.3053 -0.1276
30297W        W46191   0.259   2.443   0.684 -0.2526  0.2065 -0.3844
30298W        W46192   4.034   1.783  12.164 -0.0083 -0.0695 -0.3243
30299W        W46193  18.370  15.289  10.771  0.0540  0.0323  0.1010
30300W        W46194   5.216   9.290  10.838 -0.2060  0.0845 -0.1097
30301W        W46195   9.134  14.184   4.279  0.1489 -0.0264 -0.0720
30302W        W46196   8.384   6.782   5.718  0.2446  0.1826 -0.2525
30303W        W46197   1.467  15.074  11.770 -0.0286  0.1564 -0.1456
30304W        W46198  12.149   6.013  11.576  0.0368 -0.1081  0.0321
30305W        W46199  14.043  13.231  10.844  0.0905 -0.1425  0.0310
30306W        W46200   7.845   0.874   4.765 -0.2385  0.4232  0.3819
30307W        W46201   4.812   9.395  14.417  0.1129  0.1664  0.2157
30308W        W46202  15.850  18.621  12.235 -0.1697  0.2766 -0.0427
30309W        W46203  15.393   9.646  10.384 -0.0354 -0.1805  0.0059
30310W        W46204  10.584  10.631   1.020  0.3576 -0.1909 -0.2010
30311W        W46205   3.013  12.670  10.968 -0.2934  0.0901  0.2085
30312W        W46206  12.959  13.490   3.071 -0.4317 -0.1331  0.3309
30313W        W46207  11.379   6.702   2.292  0.0658  0.1015 -0.1710
30314W        W46208  18.763  11.053  14.434  0.0571 -0.0370 -0.5018
30315W        W46209  14.153  14.266   4.486  0.1881 -0.0465 -0.3034
30316W        W46210   7.974  10.297   1.218 -0.1403 -0.1788  0.1058
30317W        W46211   7.481   1.420   3.093 -0.0129  0.2374  0.3247
30318W        W46212  16.660  14.136   2.137 -0.0907 -0.1089  0.1533
30319W        W46213   4.674  18.836   0.383  0.0204 -0.0049  0.0342
30320W        W46214  19.093   8.595  12.027  0.1871 -0.2796 -0.5862
30321W        W46215   4.582   0.461  11.280  0.1001 -0.3439 -0.0613
30322W        W46216  18.421   3.083  11.673 -0.1554  0.1971 -0.2043
30323W        W46217   2.098  12.557   0.905  0.0854  0.1250  0.1103
30324W        W46218   9.495   2.111  13.637  0.1030 -0.0487 -0.1823
30325W        W46219   3.855  14.868  11.167  0.3106  0.1862  0.0719
30326W        W46220  14.881   6.986  11.180  0.7091 -0.1805 -0.1711
30327W        W46221   0.281  18.875  14.499 -0.2712  0.1387 -0.1736
30328W        W46222  14.786  10.711  12.093  0.1943  0.2907 -0.0086
30329W        W46223  17.937   2.672   1.481 -0.0126 -0.0341 -0.2143
30330W        W46224  11.219   6.397  14.095  0.4042 -0.3244  0.1403
30331W        W46225   2.044  13.720  13.089  0.0493 -0.0670 -0.1203
30332W        W46226   6.871  14.052   2.210 -0.0740 -0.1802 -0.0990
30333W        W46227   4.059  18.667   4.098 -0.1627 -0.2373 -0.2558
30334W        W46228  17.512   7.799   1.438  0.0906 -0.1048  0.0283
30335W        W46229  16.213   6.973   3.988  0.4207 -0.1820 -0.2200
30336W        W46230   3.500   3.737   1.005 -0.1271  0.1104  0.0107
30337W        W46231   5.061   9.539  12.627 -0.3259  0.0620  0.3107
30338W        W46232  17.721   7.167   0.340 -0.4323 -0.0067  0.3164
30339W        W46233  19.159  16.519  10.523  0.0344  0.0982  0.2496
30340W        W46234   4.099   0.296   4.642  0.3373  0.0107 -0.1830
30341W        W46235   1.212  14.998   3.870 -0.1059 -0.1381  0.1760
30342W        W46236  15.801   6.210   1.467 -0.0726  0.0883  0.0490
30343W        W46237   3.328   4.158   4.800 -0.0356  0.2164 -0.3496
30344W        W46238  14.501   3.584  10.757  0.2524  0.1855 -0.0619
30345W        W46239  13.329   3.123   0.800  0.2724  0.4149  0.5887
30346W        W46240  16.956  16.553   0.314  0.0497  0.2327 -0.1249
30347W        W46241   1.027  18.920  12.904 -0.2149 -0.1387 -0.0466
30348W        W46242   7.917  13.048  10.619 -0.0845  0.1401 -0.0804
30349W        W46243   5.870  12.421  13.673 -0.1587  0.4235 -0.4224
30350W        W46244  12.820   8.244   0.852 -0.1053 -0.0364  0.0871
30351W        W46245   8.650  12.078  10.119 -0.1399 -0.2549 -0.1698
30352W        W46246   8.326   7.848  12.431 -0.1646  0.2579  0.0459
30353W        W46247  12.939   6.111   1.366 -0.0508 -0.0682  0.1572
30354W        W46248   8.994  15.223  14.590 -0.2584 -0.1711  0.0800
30355W        W46249   3.832  16.374   0.010 -0.3617 -0.2057  0.4259
30356W        W46250   3.232   6.629  12.139  0.1465 -0.0367 -0.3506
30357W        W46251  10.858  11.079  11.040 -0.0723 -0.3070  0.2307
30358W        W46252  10.178   3.866   9.675 -0.1159  0.0642 -0.5042
30359W        W46253   2.893  12.044   2.294 -0.0256  0.1291  0.0141
30360W        W46254  11.820  15.384  12.227 -0.1656 -0.0347 -0.2313
30361W        W46255  10.970  17.684   2.075 -0.2279 -0.1431 -0.1450
30362W        W46256  18.288   4.332  11.447 -0.4257 -0.1383  0.2254
30363W        W46257   1.013  18.041  10.934  0.1684  0.0108  0.1663
30364W        W46258   9.159   5.579   0.436  0.3141  0.0365  0.1190
30365W        W46259   5.471   9.300  14.714  0.3863  0.2268  0.0404
30366W        W46260  15.420   4.487  10.857  0.0968 -0.0976  0.3189
30367W        W46261  16.757   9.980  13.111  0.1435  0.2804  0.1721
30368W        W46262  17.774  18.908   4.601  0.1661  0.0820 -0.0290
30369W        W46263   3.303   5.653   4.546  0.2605 -0.2047  0.2622
30370W        W46264  10.159   3.224  14.014  0.0896  0.1901 -0.1815
30371W        W46265   6.365  13.280   1.055 -0.1475  0.4134  0.0092
30372W        W46266  19.171  10.825  12.601 -0.1701 -0.0155  0.4406
30373W        W46267   4.513   4.603   5.223  0.0062 -0.1418 -0.2293
30374W        W46268  18.474   7.431  13.135 -0.1411  0.0599  0.0849
30375W        W46269  14.846   2.088  11.054 -0.3531 -0.1934 -0.1283
30376W        W46270  18.998  16.003   1.332 -0.0397 -0.1073 -0.0854
30377W        W46271  12.547  12.405   9.934 -0.0405 -0.0902 -0.0630
30378W        W46272   5.021   3.761   2.859  0.0632  0.0231  0.0410
30379W        W46273  18.886  12.569  11.613  0.1124 -0.4168 -0.1637
30380W        W46274  11.762   8.843   4.352  0.0649 -0.1490 -0.2097
30381W        W46275   0.505   7.176   5.069  0.2575 -0.1627  0.1596
30382W        W46276  13.769  16.947  11.202  0.5462  0.1318 -0.0669
30383W        W46277  16.342  17.883   3.348  0.4108  0.2826 -0.0799
30384W        W46278   1.716   7.436  15.039  0.2809  0.1432  0.0535
30385W        W46279   7.854  16.773  14.933 -0.1713 -0.0939  0.1457
30386W        W46280   4.489  14.689  12.445 -0.0335 -0.0444  0.0146
30387W        W46281  18.117   5.088  13.966  0.1868 -0.0576 -0.2169
30388W        W46282  14.838  15.800   0.307 -0.2347 -0.2136  0.1732
30389W        W46283  12.628   1.338  11.313  0.1323 -0.0733  0.0172
30390W        W46284  15.001   2.611   0.710  0.1969  0.0025  0.0201
30391W        W46285  14.037   8.024   9.723 -0.3088 -0.0515 -0.1890
30392W        W46286   0.825   2.979  11.560 -0.0657  0.0075 -0.0437
30393W        W46287  16.251  13.404   9.803 -0.0626 -0.1713  0.0527
30394W        W46288  18.984   6.280   4.742  0.1892  0.0201 -0.1388
30395W        W46289  14.038  17.466   2.045  0.1693  0.1796  0.0056
30396W        W46290   9.965   2.131  13.362  0.3864 -0.1253  0.2574
30397W        W46291   3.468  17.274   1.161  0.2228  0.2340 -0.0484
30398W        W46292   0.307  12.535   2.031 -0.0690 -0.0110 -0.1272
30399W        W46293  17.684  17.748   9.824  0.1035  0.2731  0.0272
30400W        W46294   6.198   1.072  11.252 -0.1979 -0.1049  0.2293
30401W        W46295  17.784   2.054   1.396 -0.2047 -0.3455  0.1010
30402W        W46296  10.285   2.726  10.453 -0.0143  0.3176 -0.0965
30403W        W46297  18.884  16.237  14.495  0.1158  0.0859  0.1888
30404W        W46298   3.531   9.572  12.581  0.3217 -0.2464 -0.0500
30405W        W46299   0.568  10.332  15.043  0.4325  0.0968  0.0971
30406W        W46300  14.444  12.936  10.776 -0.2185  0.3993  0.3016
30407W        W46301   3.530   7.488  10.229 -0.3397  0.0827 -0.0504
30408W        W46302  13.610   8.310  14.642  0.1657  0.0454  0.0991
30409W        W46303  10.906  13.450  13.411  0.0113  0.0964 -0.0858
30410W        W46304  11.225   8.192  11.869  0.0702 -0.0922 -0.1716
30411W        W46305  18.021   3.172  11.354  0.0621  0.0549 -0.0333
30412W        W46306  10.347   8.853   4.142  0.0381  0.3565  0.0381
30413W        W46307   1.114   8.930   1.521 -0.1566 -0.3265 -0.0787
30414W        W46308  15.771   3.060  12.752  0.1137  0.0209  0.2165
30415W        W46309   7.762   4.865   5.723 -0.2310  0.1063 -0.0036
30416W        W46310  13.205   6.927  11.114 -0.2057 -0.2153  0.0375
30417W        W46311   3.567   4.864  14.744  0.1208 -0.1691  0.2127
30418W        W46312  16.283   6.099   1.553  0.0731 -0.2615  0.4010
30419W        W46313  13.988   8.418  13.078  0.1949  0.0920 -0.3459
30420W        W46314   6.790  10.940  13.093  0.1175  0.2330  0.0702
30421W        W46315   2.021   9.942   4.327  0.3334 -0.0214  0.2650
30422W        W46316  13.132  16.696  14.889 -0.0083  0.1849  0.1145
30423W        W46317  18.459  11.045   3.100 -0.3050 -0.0810  0.0453
30424W        W46318   7.556   6.902   0.917 -0.3092  0.3310  0.0418
30425W        W46319  11.951  12.841  15.042  0.3111  0.7094  0.3954
30426W        W46320  13.745   7.391  12.903 -0.1629  0.1400  0.2848
30427W        W46321   4.495   2.261  11.010  0.1606 -0.1168  0.1628
30428W        W46322  16.588  10.805   2.304  0.2811  0.2033 -0.1966
30429W        W46323   8.827   2.144   1.335  0.1368 -0.0665  0.0784
30430W        W46324   9.550  17.556  12.972  0.0371  0.0981  0.0715
30431W        W46325   5.699   4.423   1.470 -0.1801 -0.0594 -0.1294
30432W        W46326  18.624  17.106  13.080 -0.1980 -0.0027 -0.0894
30433W        W46327   5.510   5.939   2.387 -0.2519  0.4140  0.0809
30434W        W46328   4.544  14.015  10.168  0.0683 -0.5151  0.2072
30435W        W46329   9.019   2.872  12.360  0.1533 -0.0387 -0.0642
30436W        W46330  15.284  17.872  13.711 -0.0245  0.0706  0.1643
30437W        W46331   0.088  13.069  10.554 -0.0947  0.4343  0.1920
30438W        W46332   4.283  10.460  14.544 -0.0557  0.1248 -0.1321
30439W        W46333  18.987   6.887  13.999  0.2022 -0.0772  0.0725
30440W        W46334  11.352   1.377   9.929  0.0053 -0.0905 -0.2559
30441W        W46335  13.616  15.460  14.340  0.0646 -0.1461  0.1357
30442W        W46336  17.735  11.383   0.049 -0.1047  0.6657 -0.1844
30443W        W46337  12.075  13.765   1.580  0.1337  0.0783 -0.1614
30444W        W46338  11.935  18.389  10.578 -0.3082  0.1299 -0.0650
30445W        W46339   8.660   3.532  14.735 -0.0522  0.1228  0.1207
30446W        W46340  17.286  17.651  14.070  0.1913 -0.0289 -0.2630
30447W        W46341   2.403   0.995   0.960  0.0657 -0.1519 -0.1283
30448W        W46342  16.711   2.529  11.674 -0.1528 -0.1242 -0.2011
30449W        W46343  18.132  13.790  13.915  0.3395  0.0074  0.1684
30450W        W46344  13.111  18.706   1.638  0.1663 -0.0483 -0.1451
30451W        W46345  18.423   4.063  13.976 -0.0085  0.2102  0.0015
30452W        W46346  13.803  16.978  14.564 -0.0458  0.1145 -0.0714
30453W        W46347   1.637   5.958   1.875 -0.1152 -0.0106  0.3546
30454W        W46348   9.347  13.736   4.443 -0.5934 -0.1668 -0.1160
30455W        W46349  14.980   3.406   0.418 -0.0349  0.0362 -0.1545
30456W        W46350   5.743  12.641  10.358 -0.0405  0.1902 -0.0099
30457W        W46351   8.348  18.776  13.041  0.0269 -0.2830  0.3581
30458W        W46352   8.173   8.544  14.472 -0.0298  0.1108  0.1619
30459W        W46353   1.694  15.327   0.105  0.3315  0.0187  0.1656
30460W        W46354  18.499  16.719   1.472  0.0258 -0.2434  0.2954
30461W        W46355  14.665   4.429   2.653 -0.0508 -0.2937 -0.1598
30462W        W46356  11.847   4.904   3.409 -0.1732  0.1869  0.2250
30463W        W46357   7.205   1.481   5.352  0.1289  0.1862  0.2216
30464W        W46358  11.531   0.577  14.917  0.0143 -0.1376 -0.1984
30465W        W46359   7.889  17.022  11.501  0.0502  0.0517 -0.3646
30466W        W46360  15.828   0.161   2.853  0.1374 -0.3218  0.0299
30467W        W46361  14.140  11.196  12.585 -0.3734  0.0416 -0.0696
30468W        W46362   2.718   1.285  11.048  0.4838 -0.1868  0.1058
30469W        W46363  13.591  12.523  10.823 -0.2773 -0.1409  0.0130
30470W        W46364   6.674  18.362  14.471 -0.3718  0.1973 -0.0372
30471W        W46365   8.250   0.611   1.350  0.0587  0.1590  0.0284
30472W        W46366  13.969  15.757  10.323  0.0952 -0.0510  0.0995
30473W        W46367   9.675  17.150  12.098  0.1208  0.0239  0.1162
30474W        W46368  15.040  10.233  13.567 -0.2484 -0.1273  0.1813
30475W        W46369   7.393   7.706   4.218  0.2792  0.0110 -0.0347
30476W        W46370  18.572   9.504   3.154  0.0605 -0.1617  0.0481
30477W        W46371  11.012   3.624  14.420  0.0114  0.0303  0.1636
30478W        W46372   4.134  19.125   4.365 -0.2045 -0.1867  0.3322
30479W        W46373  13.755   2.106  13.946  0.2781  0.1840  0.1833
30480W        W46374  19.094   4.133  14.604 -0.2510 -0.1986 -0.0151
30481W        W46375  12.004   7.282  12.472 -0.2889 -0.0307  0.0343
30482W        W46376  10.098  12.119  11.760  0.0587  0.0785 -0.2959
30483W        W46377  13.203  11.254   3.373 -0.2138  0.2872  0.0169
30484W        W46378  11.882   0.097   1.424 -0.0018 -0.2166 -0.1434
30485W        W46379  10.330   1.981  14.257 -0.0416  0.1705 -0.0870
30486W        W46380  15.070  15.909   4.224 -0.0670 -0.4749  0.2477
30487W        W46381   7.009  18.566  10.931 -0.1852 -0.0553 -0.1005
30488W        W46382  13.712  15.618   9.958 -0.1746 -0.2360  0.1311
30489W        W46383  12.700   0.993  14.878 -0.2719  0.1181  0.0806
30490W        W46384  12.099  14.290   1.448  0.1363  0.4016 -0.3362
30491W        W46385  17.103  18.960  12.565  0.0496  0.1325  0.2309
30492W        W46386   8.423   9.177   2.848 -0.3601  0.1245  0.3436
30493W        W46387  13.347  18.349  11.312  0.0344  0.0107 -0.0003
30494W        W46388   2.013   5.684   2.084 -0.1379 -0.1905  0.2645
30495W        W46389   8.884  16.172  13.976 -0.2166  0.2836  0.0816
30496W        W46390  14.226  12.154  12.708 -0.1276 -0.2267 -0.0097
30497W        W46391   2.565  14.783   3.954 -0.1752 -0.0224  0.0761
30498W        W46392   5.616   7.187   0.156  0.0528 -0.0509 -0.0005
30499W        W46393  15.742  10.966   2.884  0.0249 -0.2558 -0.0198
30500W        W46394  15.244   2.223  13.314 -0.0054 -0.0669  0.1808
30501W        W46395   6.661  19.079  13.858 -0.1841 -0.0140 -0.1787
30502W        W46396   2.061   5.318   0.513  0.0391 -0.0706  0.0722
30503W        W46397   7.685   9.574  11.304 -0.4584  0.0763  0.1425
30504W        W46398   7.081   7.375   2.482 -0.1262  0.1106 -0.0955
30505W        W46399   4.292   8.341  11.115 -0.0698  0.3761 -0.1907
30506W        W46400  11.964  15.365  11.552  0.1275 -0.2704  0.1445
30507W        W46401   2.874  17.558   2.963 -0.1478  0.1670 -0.2052
30508W        W46402  12.034   9.124   9.792 -0.1657 -0.2320  0.3344
30509W        W46403   4.067   6.128   4.934  0.1564 -0.2864  0.2216
30510W        W46404  17.421   4.258   4.374  0.0541  0.1739  0.0978
30511W        W46405  15.026   7.997   0.786 -0.0796  0.4046  0.1535
30512W        W46406   1.177  14.902   3.043  0.0462  0.0821 -0.2209
30513W        W46407  16.376   2.133   0.671 -0.0814  0.3174 -0.2337
30514W        W46408  14.360  10.046  14.314 -0.1486  0.1930 -0.2298
30515W        W46409  12.014   8.485   1.037  0.3494  0.1038  0.1357
30516W        W46410  14.659  18.730   4.326  0.0537 -0.2316  0.0288
30517W        W46411  17.624   6.344  13.033  0.1524 -0.2662  0.0427
30518W        W46412   4.604  18.766  12.316 -0.3584  0.1849  0.0116
30519W        W46413   0.060   2.635   6.374 -0.1048  0.2237  0.2900
30520W        W46414   2.446   9.034   2.126 -0.0015 -0.1968 -0.0849
30521W        W46415   1.184  18.632  11.233 -0.1414 -0.1872  0.1507
30522W        W46416   0.526  18.194   1.461  0.0295 -0.1766 -0.4609
30523W        W46417  16.374   7.259  11.988  0.1836 -0.0524  0.1320
30524W        W46418  15.087   4.451   0.400 -0.2147  0.1604 -0.4052
30525W        W46419   6.254  10.460   3.881  0.1284 -0.0606  0.0102
30526W        W46420   8.830   2.668  11.945  0.0800 -0.1253  0.0052
30527W        W46421   7.147   9.283   1.998 -0.1804 -0.0886 -0.2777
30528W        W46422  11.182   1.190  12.642 -0.0090  0.0307  0.3820
30529W        W46423  13.905   7.336   2.103  0.2161  0.0378  0.1973
30530W        W46424   9.616  14.286  14.318  0.0537 -0.0696  0.0045
30531W        W46425  10.771  13.100   0.477  0.1143  0.2192  0.0510
30532W        W46426   4.651   9.110   1.534 -0.1085 -0.2196  0.0704
30533W        W46427   1.657   1.904  14.434 -0.1462 -0.1364 -0.0344
30534W        W46428   1.038  18.329   3.772  0.1834  0.0038 -0.2585
30535W        W46429   3.268   0.633   1.466  0.5666 -0.0149 -0.0420
30536W        W46430   0.578  17.534  12.208 -0.4936  0.1051  0.3195
30537W        W46431  17.247   4.760   1.402 -0.0015 -0.1447 -0.2774
30538W        W46432   4.098  15.959  13.805 -0.1049 -0.2463 -0.0016
30539W        W46433  14.208   1.970  13.971  0.1731  0.0045  0.3440
30540W        W46434  11.234   5.793   2.784 -0.0645  0.2933  0.1090
30541W        W46435   3.012   6.223  11.050 -0.0339  0.0402  0.3255
30542W        W46436   1.716   9.112  14.297 -0.0390 -0.1414  0.0515
30543W        W46437   8.889  10.753  13.846 -0.2772 -0.0013  0.0251
30544W        W46438   3.852  14.661   2.106  0.3922  0.0298  0.0017
30545W        W46439  17.293   5.829  10.087 -0.2571  0.0144 -0.0821
30546W        W46440  13.964   3.935   4.246  0.0864  0.1009 -0.1431
30547W        W46441   8.231   2.398  11.124  0.0351  0.3276 -0.0478
30548W        W46442   8.046  12.320   5.195  0.1635  0.2347 -0.2099
30549W        W46443  17.934  10.943  12.772 -0.0959  0.0616  0.2697
30550W        W46444  10.427  14.018  14.883 -0.2669  0.2474  0.0977
30551W        W46445  13.253   8.412  13.434  0.0443  0.0275 -0.2433
30552W        W46446   7.031   3.821  10.195  0.4316 -0.1691  0.0967
30553W        W46447   2.769   4.480   3.206 -0.0136  0.0210 -0.3606
30554W        W46448  17.361  12.503   0.505 -0.0557 -0.0778  0.1300
30555W        W46449   7.723  15.326   1.790  0.1938  0.0991 -0.1568
30556W        W46450  18.963   1.793   4.707  0.1453 -0.1448 -0.2866
30557W        W46451   6.873   7.118   1.479 -0.2194 -0.2669  0.0441
30558W        W46452   1.507   5.921   5.596 -0.1202  0.0130 -0.4554
30559W        W46453  14.649  13.403   4.658 -0.0577 -0.2417 -0.3021
30560W        W46454   5.480   7.817   5.092 -0.1159 -0.1913 -0.1274
30561W        W46455  11.696   3.785   9.174 -0.0327  0.1291 -0.0289
30562W        W46456  18.597   4.547  13.533 -0.0033 -0.1706  0.2907
30563W        W46457  13.369  18.650   2.500 -0.1432  0.2925 -0.2997
30564W        W46458   6.031  14.029   4.243  0.5403 -0.4176  0.2715
30565W        W46459   0.894   4.037  13.620  0.0206 -0.3298  0.2375
30566W        W46460  14.552   0.343  12.504 -0.0355  0.2120 -0.4218
30567W        W46461   4.995  19.069  11.943 -0.4079  0.1785 -0.3166
30568W        W46462  18.968  15.411   2.140  0.1653  0.1177 -0.1592
30569W        W46463   6.900   0.022   0.344 -0.0262  0.2069  0.2230
30570W        W46464  10.425  17.213  11.463  0.2210  0.3004 -0.4765
30571W        W46465  16.242   3.526  13.655  0.0769  0.0667 -0.1512
30572W        W46466   8.105   1.515   1.204  0.1360 -0.2624 -0.0209
30573W        W46467  14.480   7.852   2.116 -0.2135  0.0678  0.0568
30574W        W46468  14.289   3.181  10.938 -0.3069  0.1240  0.0972
30575W        W46469  12.547   3.246  14.734 -0.0633  0.1431  0.2331
30576W        W46470  11.592  13.306  14.942 -0.1221  0.1172 -0.0029
30577W        W46471   0.077   9.919   4.488 -0.1651 -0.1915  0.1441
30578W        W46472   2.497   0.494  14.461  0.1322  0.2970 -0.0319
30579W        W46473   1.584   9.948   4.635 -0.0688  0.3641  0.0907
30580W        W46474   7.549   7.198   2.658  0.1231 -0.0437  0.0839
30581W        W46475   9.921  15.187  11.529 -0.0439  0.2086 -0.0355
30582W        W46476   5.658  15.179  14.595 -0.1862 -0.3937 -0.0536
30583W        W46477   6.243  13.765  14.892 -0.2990 -0.0871 -0.4632
30584W        W46478  17.934  17.967   3.116 -0.0104 -0.1902 -0.0248
30585W        W46479   8.593   1.910   2.903  0.1896 -0.0969  0.0270
30586W        W46480  12.485  13.138  14.910  0.1218  0.0517 -0.2567
30587W        W46481   3.532   7.781  11.995 -0.1786 -0.5209 -0.1377
30588W        W46482  13.349   1.604   0.411 -0.0409 -0.0401  0.1690
30589W        W46483   4.234   1.163  12.945 -0.2120  0.0796 -0.2444
30590W        W46484   0.546  12.804  10.648 -0.0462  0.0075  0.0094
30591W        W46485   6.431  10.074   3.324 -0.0864 -0.3449  0.1705
30592W        W46486  18.445   7.277  14.576  0.2251  0.0753  0.0987
30593W        W46487   7.339   8.315   0.959  0.0644  0.0239  0.2681
30594W        W46488  12.098  15.621   1.286  0.0797  0.0950 -0.0063
30595W        W46489  12.254   6.927  13.852 -0.1446 -0.0027 -0.0190
30596W        W46490   6.374   6.841  15.049 -0.0307  0.3716 -0.0332
30597W        W46491  11.371   5.733   0.430 -0.1568 -0.2865 -0.1734
30598W        W46492  10.555   9.313   0.673  0.1268 -0.4369 -0.3735
30599W        W46493   4.736   0.533   3.578 -0.3025 -0.0630 -0.1370
30600W        W46494  15.267   1.148  12.246  0.1330  0.2975  0.4680
30601W        W46495  13.188  10.820  13.541 -0.2177  0.0505  0.1796
30602W        W46496  13.213  14.011   0.591 -0.0617 -0.2397  0.2439
30603W        W46497   2.471   4.466   2.791 -0.0793 -0.0218 -0.0648
30604W        W46498   7.776   8.161  11.978 -0.2085  0.0459 -0.0576
30605W        W46499  14.347   5.154  12.430 -0.0580 -0.1165  0.0123
30606W        W46500  15.515  16.121   4.045 -0.0131  0.1189  0.2062
30607W        W46501   8.232  10.922  12.403  0.2248 -0.2778 -0.5279
30608W        W46502   9.255  15.018  12.472  0.0443  0.0670  0.1515
30609W        W46503  15.430  17.851   3.871  0.3115 -0.0685 -0.3420
30610W        W46504   3.985  14.445  12.354  0.0300  0.0741  0.0042
30611W        W46505  17.864   7.994  14.837  0.3041 -0.2326  0.0906
30612W        W46506   0.909   0.724  10.927 -0.0915 -0.1397  0.1265
30613W        W46507   3.859   0.272  11.267 -0.0032 -0.0285 -0.0050
30614W        W46508  13.950  16.397   9.702 -0.4020 -0.1612  0.0004
30615W        W46509   8.854  16.793  12.440 -0.0989 -0.2876  0.0092
30616W        W46510   6.151  10.226  12.661 -0.0230  0.0677  0.0643
30617W        W46511   4.894  12.483  10.932 -0.0144 -0.1543 -0.1711
30618W        W46512   5.444   6.662  15.078 -0.3406  0.0523  0.0201
30619W        W46513  15.803   4.052   2.407 -0.1631 -0.1091 -0.4055
30620W        W46514  11.468  12.363   2.352 -0.0312 -0.0754 -0.5612
30621W        W46515   7.366   0.142  12.429 -0.2284 -0.2363 -0.0412
30622W        W46516  16.172   1.545   2.748  0.2076  0.2152  0.4260
30623W        W46517  11.704  10.316  11.702 -0.2380 -0.0433 -0.1958
30624W        W46518  10.101   2.385  15.089 -0.2159 -0.2408 -0.2435
30625W        W46519  15.485  12.797   4.049 -0.0615  0.0540 -0.4325
30626W        W46520   4.560   3.531  11.971 -0.0020 -0.1101  0.5445
30627W        W46521   0.209  18.104  10.053  0.1066  0.4823 -0.0117
30628W        W46522   0.551   1.514   1.101 -0.0205 -0.2146 -0.0162
30629W        W46523  15.165  15.723  10.715  0.1234 -0.1357 -0.1770
30630W        W46524  18.280  10.320  10.774 -0.0787 -0.0640  0.0037
30631W        W46525  17.959   2.912  10.938  0.0310  0.1347  0.1023
30632W        W46526  10.910  14.824  13.101  0.3449 -0.2379 -0.0147
30633W        W46527   1.160   3.228  14.683  0.2282  0.0796 -0.2494
30634W        W46528  18.211  12.514  13.368  0.3520 -0.0261 -0.2533
30635W        W46529  16.606  13.142  11.325 -0.2330  0.1915  0.2344
30636W        W46530   4.212  10.994  13.728  0.0909 -0.1022 -0.0781
30637W        W46531  10.751  17.965   3.534  0.1509 -0.0846 -0.1063
30638W        W46532  11.170  17.749  12.576 -0.0960  0.3926  0.0909
30639W        W46533   1.840  10.905  11.385  0.0130  0.0952  0.0480
30640W        W46534   1.287  17.590   0.346 -0.2761  0.0165  0.1650
30641W        W46535   0.212  10.423   4.485 -0.1413 -0.2588  0.0982
30642W        W46536   1.569   1.489  14.961  0.1719  0.0906  0.2728
30643W        W46537   3.460  16.180  12.989  0.1686 -0.0971 -0.3682
30644W        W46538   6.412  11.253   4.361 -0.2671 -0.0933 -0.3494
30645W        W46539   5.794  18.248   0.400 -0.3386  0.0059 -0.0764
30646W        W46540   8.802  10.865  11.352 -0.2783  0.0398  0.1728
30647W        W46541  17.395  10.109  14.992  0.1846 -0.2348 -0.1097
30648W        W46542  13.540  10.915  11.765  0.0689  0.0861 -0.1994
30649W        W46543   1.165   9.136  10.761  0.3447  0.1009  0.0068
30650W        W46544   6.317  15.870   4.513  0.1357  0.2876  0.3572
30651W        W46545   5.999  18.075   2.559  0.3589 -0.2955  0.0774
30652W        W46546   2.729   2.672   0.439 -0.0629  0.0561 -0.0060
30653W        W46547  10.827   7.567   2.878  0.0010 -0.0683 -0.3929
30654W        W46548  18.664   6.602  14.327 -0.0432  0.0932 -0.0052
30655W        W46549   0.175  17.497   0.884 -0.0902 -0.1262  0.0714
30656W        W46550   0.537   1.566   5.275  0.3568  0.0271  0.2225
30657W        W46551  16.181   3.342   0.460  0.2120  0.0157 -0.2379
30658W        W46552   2.663  12.066  13.209 -0.1158 -0.2108 -0.0775
30659W        W46553   1.475   9.441   9.661  0.1194 -0.0870 -0.1727
30660W        W46554  15.061   9.061   2.452 -0.1216  0.0532 -0.0427
30661W        W46555  16.318  10.481   3.834  0.1762 -0.1479 -0.1058
30662W        W46556   8.773   7.165  12.945  0.0925 -0.1486  0.1985
30663W        W46557  14.192  15.141   1.045 -0.0573 -0.2554  0.3690
30664W        W46558  14.005  12.203  14.228 -0.3393 -0.0554  0.2650
30665W        W46559   5.316   0.258  11.078 -0.0856 -0.1057 -0.0649
30666W        W46560   1.478  14.530   4.713  0.0227 -0.0590  0.1294
30667W        W46561   7.526  16.833  10.981  0.2657 -0.0246  0.1772
30668W        W46562  14.280  18.716  14.576 -0.2516 -0.3035 -0.0700
30669W        W46563  13.763   7.517  11.285 -0.0799 -0.1320  0.2391
30670W        W46564   7.637   5.360  14.511  0.1147  0.0918  0.3125
30671W        W46565   7.600   0.460   3.528 -0.1337  0.2029  0.1847
30672W        W46566   6.501   9.841   1.174 -0.0068  0.3919 -0.1529
30673W        W46567   4.732  17.387  11.778  0.1422  0.0472 -0.1413
30674W        W46568  16.082   9.280   1.503 -0.0282  0.0594 -0.1829
30675W        W46569   2.454  10.748   1.638 -0.2150 -0.0650  0.1303
30676W        W46570   3.301  16.863  14.051  0.0973  0.0150  0.0780
30677W        W46571  13.451   2.660   5.707 -0.1036 -0.0534  0.0651
30678W        W46572  12.318  13.583  10.581 -0.1055 -0.2089 -0.1247
30679W        W46573  10.265   1.470  13.541  0.1036  0.4302  0.4895
30680W        W46574   5.384  17.126   1.832 -0.1119 -0.2423 -0.2361
30681W        W46575  15.865   0.496  10.580 -0.1804  0.1776 -0.1471
30682W        W46576  12.077  10.584   3.817  0.2210  0.0299  0.0400
30683W        W46577  15.654  13.113   1.518  0.0076 -0.3054  0.2399
30684W        W46578  13.995   5.079   2.645 -0.2601  0.1788  0.2721
30685W        W46579   2.217  12.399   5.495 -0.0460  0.0091 -0.0251
30686W        W46580   8.170   5.681   1.534  0.0002  0.0842 -0.1377
30687W        W46581   4.642   6.363   5.091 -0.1462  0.1782  0.4061
30688W        W46582  17.036  15.134  13.607  0.1541 -0.3367 -0.3549
30689W        W46583   7.939   9.509   4.086  0.1649 -0.5193  0.1560
30690W        W46584  16.986  16.806  12.754  0.2626 -0.0445  0.2093
30691W        W46585  13.760   6.571   1.274  0.0561  0.1761 -0.0929
30692W        W46586   2.755  11.742  15.040 -0.3395  0.1964 -0.0567
30693W        W46587   2.560  19.219   1.377 -0.3912 -0.2182 -0.1812
30694W        W46588   6.029  13.071  11.826 -0.0554 -0.2740  0.0199
30695W        W46589   6.144   3.858   2.581 -0.1093 -0.1242  0.1911
30696W        W46590  13.744  14.983  11.529  0.0812 -0.0038  0.3593
30697W        W46591  12.448  16.652   3.876  0.0785  0.2117  0.0110
30698W        W46592   0.419   6.078  11.638 -0.2157 -0.0860 -0.1105
30699W        W46593  10.531   3.277   0.171 -0.2877  0.0428 -0.1433
30700W        W46594  15.490   6.370   4.575  0.0175  0.0726 -0.1190
30701W        W46595  12.606   9.870   4.304 -0.1065  0.0876 -0.1123
30702W        W46596   4.430  18.481  11.042 -0.2481  0.1027  0.4479
30703W        W46597  13.577   0.638  12.806  0.0430 -0.2629  0.2184
30704W        W46598   1.160   7.230  11.554  0.0197  0.2935  0.1131
30705W        W46599   2.164  14.552  13.329 -0.1604 -0.2097  0.1611
30706W        W46600  16.976  16.864   1.813  0.1116 -0.3160  0.0515
30707W        W46601   6.180  11.483   2.652 -0.1047  0.4509 -0.0969
30708W        W46602  15.379  15.948   9.967 -0.1112 -0.0513  0.0967
30709W        W46603   9.702  14.509  14.935  0.0477 -0.0538  0.1835
30710W        W46604  10.577   5.656  10.375  0.1239 -0.0068  0.0497
30711W        W46605   0.935  13.137   0.812 -0.1272  0.1533 -0.0866
30712W        W46606   0.558  13.661  14.858 -0.2993  0.3351  0.1099
30713W        W46607  13.647   3.457   2.172 -0.2284  0.3308 -0.1276
30714W        W46608   3.972   4.906  12.892  0.0676  0.2852  0.2360
30715W        W46609   3.286  14.559   2.969 -0.3129  0.3870 -0.2313
30716W        W46610   4.971   6.259  12.443  0.3496  0.3606 -0.0501
30717W        W46611  15.620  14.319   2.255  0.0302  0.3459 -0.2494
30718W        W46612  10.233  18.029   3.368  0.1402 -0.1887  0.0589
30719W        W46613  17.603  12.145   9.817 -0.0724 -0.1832 -0.1949
30720W        W46614   1.232   9.455   3.083  0.0732 -0.1858  0.1795
30721W        W46615   2.507  12.214  11.711 -0.3110 -0.1929 -0.4513
30722W        W46616   0.898   6.922   1.241  0.0257 -0.0393  0.0932
30723W        W46617   0.305   8.033  14.463  0.2690  0.0127 -0.0859
30724W        W46618  10.456  14.318  10.886  0.3185 -0.0461  0.0475
30725W        W46619   9.774   2.761   0.031  0.2957 -0.2866 -0.2024
30726W        W46620   7.135   1.944   1.096 -0.0654  0.1043  0.0056
30727W        W46621  18.709   2.857  13.489 -0.3343 -0.3265  0.3432
30728W        W46622   5.736   1.742   3.764 -0.0892  0.1200 -0.1330
30729W        W46623  11.343  17.721  13.413 -0.1963 -0.0118 -0.1158
30730W        W46624  16.075  15.506  12.728 -0.0692  0.0984  0.0332
30731W        W46625  12.842  11.116  14.826  0.1188 -0.3363  0.0410
30732W        W46626   7.354   6.409   0.849  0.2231 -0.2779 -0.3261
30733W        W46627  18.391  11.984   2.456  0.0455 -0.2051 -0.2519
30734W        W46628   4.260  14.414  11.002 -0.0092 -0.2418  0.4598
30735W        W46629  11.912  11.539   4.202 -0.4947 -0.3251  0.2536
30736W        W46630   5.190   4.587  12.858  0.0161  0.1418  0.0205
30737W        W46631  14.495  13.462  10.746  0.2211  0.2701  0.1532
30738W        W46632  14.591  17.361  14.237 -0.0757  0.2333  0.0608
30739W        W46633   3.429   0.484  12.188 -0.2190  0.1165  0.4623
30740W        W46634  15.469   8.791  10.797  0.0852 -0.1160  0.1430
30741W        W46635   4.859   1.674   3.946  0.0924 -0.2589  0.0322
30742W        W46636   3.638  11.344   1.525  0.0274 -0.2687 -0.1464
30743W        W46637   8.595   9.018  10.364  0.0293 -0.1321  0.4867
30744W        W46638  10.283  18.470  11.861 -0.1457 -0.1820 -0.3960
30745W        W46639   3.799   0.072  13.422 -0.2770 -0.2038 -0.3159
30746W        W46640   5.371   0.997  12.935  0.0678 -0.2190  0.3174
30747W        W46641   2.590  10.168   1.156  0.3792  0.0244 -0.4940
30748W        W46642   9.187  15.984  14.380  0.3262 -0.0092  0.1392
30749W        W46643  10.839   2.749   0.772  0.0771 -0.3503 -0.1371
30750W        W46644   5.899  17.838   1.080  0.0646  0.0757  0.1262
30751W        W46645  14.996   5.117  13.491 -0.0527 -0.1065  0.2128
30752W        W46646   7.766  14.281  12.554  0.1023 -0.1124  0.0635
30753W        W46647  13.283   6.752  14.869  0.0565 -0.0251  0.1830
30754W        W46648   6.695   0.350   3.778  0.1234 -0.1506  0.0859
30755W        W46649  17.745  16.972   0.119 -0.1970 -0.1205  0.1711
30756W        W46650  13.719   0.187  12.073  0.1458 -0.4414 -0.0808
30757W        W46651   9.380   1.698  12.963  0.1954 -0.1526 -0.0315
30758W        W46652  14.321   7.314   5.213 -0.0510  0.2259  0.0313
30759W        W46653   9.969   5.789  11.302 -0.1941 -0.0008  0.1854
30760W        W46654  10.188   4.788  13.883  0.2618 -0.2092  0.0025
30761W        W46655  17.705   7.244   4.675  0.0295  0.0015  0.0396
30762W        W46656  16.506  18.106  11.153  0.1095  0.1926  0.3259
30763W        W46657  14.990  17.486   5.465  0.2756  0.1043  0.0426
30764W        W46658  14.921   0.658  12.445 -0.1631 -0.2431 -0.0637
30765W        W46659  15.063  14.793  11.251 -0.1518  0.2271 -0.3138
30766W        W46660  10.920   1.140  13.116 -0.4689  0.0205 -0.0332
30767W        W46661  14.154   0.960   4.341 -0.5331 -0.0783  0.0642
30768W        W46662   4.839  14.141   4.469  0.1336 -0.1533 -0.0362
30769W        W46663   2.130   7.781  12.570 -0.0636  0.1783  0.1549
30770W        W46664  13.444   9.513  13.105  0.0067  0.0218  0.0191
30771W        W46665   2.005  14.801   1.986 -0.0036  0.1930  0.0533
30772W        W46666   5.119  11.591  11.862 -0.3057  0.0364  0.2177
30773W        W46667  15.558  17.316  11.845 -0.1188  0.1740  0.5145
30774W        W46668  14.306   0.686  10.112 -0.2844  0.1014  0.0092
30775W        W46669  13.191  10.342  14.535  0.3396 -0.0229  0.0588
30776W        W46670  19.122  12.909  12.605 -0.0758 -0.2332 -0.0868
30777W        W46671  16.179  12.031  13.817  0.0319 -0.2153 -0.1426
30778W        W46672  17.301  14.597   3.690 -0.0167  0.2774  0.0783
30779W        W46673  11.309  14.508   9.953  0.0734 -0.0999  0.1582
30780W        W46674   7.282   1.417  11.949 -0.0374 -0.3292 -0.1119
30781W        W46675  10.517  10.084  12.550 -0.0281  0.3754 -0.2211
30782W        W46676  13.928  18.574  12.081  0.0994 -0.0105 -0.2154
30783W        W46677   2.899   4.524   0.960  0.2002 -0.0547  0.0778
30784W        W46678  18.560   9.330   9.679 -0.0396 -0.0806  0.0584
30785W        W46679   1.106   6.975  10.180 -0.1577  0.0212  0.0156
30786W        W46680   4.991  14.826   2.755 -0.0290  0.2213 -0.3956
30787W        W46681  18.765  12.044   3.917 -0.0813  0.0393 -0.0690
30788W        W46682  16.530  16.401  11.741  0.1743  0.0386  0.1044
30789W        W46683  17.262   8.226  10.565  0.0550  0.3446 -0.2799
30790W        W46684  18.475  14.789   1.107  0.2020 -0.2271 -0.0996
30791W        W46685   2.712   2.075   2.952 -0.3527 -0.0214  0.1386
30792W        W46686  17.999   8.031   0.435 -0.1170 -0.1453 -0.0101
30793W        W46687  18.684  11.539  12.270  0.2401  0.3145 -0.0754
30794W        W46688   0.085  10.380  13.592 -0.1345  0.1513 -0.1901
30795W        W46689   2.475   1.420   3.998 -0.0730  0.0668  0.3174
30796W        W46690  13.221   9.474   0.779  0.0423 -0.3517 -0.0797
30797W        W46691   7.918   4.680   4.458  0.1177  0.0161 -0.4115
30798W        W46692   5.744   1.276   3.527 -0.1546 -0.0676 -0.1428
30799W        W46693   7.541   6.196   1.305 -0.2296  0.1732  0.0215
30800W        W46694  11.733  11.914  11.113  0.0102 -0.0084 -0.0348
30801W        W46695   7.357   8.668  13.903 -0.2672 -0.0751  0.1634
30802W        W46696  14.796  15.359   4.146 -0.0010  0.0148  0.0689
30803W        W46697  16.927   5.618   3.167  0.2590  0.2344  0.2888
30804W        W46698   9.172   4.302   3.599 -0.0278 -0.1180  0.1312
30805W        W46699   4.058  18.156  11.389 -0.0254 -0.2253  0.0950
30806W        W46700  15.705   6.624   9.795  0.1256 -0.1400  0.0742
30807W        W46701  19.103   2.456  14.929  0.0364 -0.2623 -0.2588
30808W        W46702   1.218  16.496   0.580 -0.1264  0.0109 -0.0322
30809W        W46703  11.498   7.175  14.037  0.0417  0.1664 -0.0923
30810W        W46704  17.932   9.577  12.996  0.1678  0.0787 -0.1579
30811W        W46705   8.915  10.369   0.342 -0.1886  0.1837 -0.0708
30812W        W46706   0.705   1.713   2.571  0.1558  0.0799 -0.1612
30813W        W46707   8.910   4.610   4.551  0.1035  0.1827 -0.0643
30814W        W46708   8.906   7.341  13.819  0.3745 -0.0405 -0.1372
30815W        W46709   6.195   1.249   0.723 -0.1529 -0.2064  0.1323
30816W        W46710   0.369   2.396  14.684 -0.0370 -0.3375  0.1393
30817W        W46711  18.646  10.440  10.497 -0.2090 -0.0380  0.2042
30818W        W46712  12.350   2.750   0.116  0.0513 -0.2442 -0.0418
30819W        W46713  11.275   9.607   5.015 -0.0882  0.1657 -0.4540
30820W        W46714  10.073  19.032  11.215 -0.4630  0.0799  0.1634
30821W        W46715   7.474  10.213   4.679 -0.0030 -0.1119 -0.3304
30822W        W46716   3.127   6.810  12.626  0.1246 -0.1133 -0.2212
30823W        W46717  16.918  13.414  14.357  0.0418 -0.1915 -0.2736
30824W        W46718   3.163  18.096  11.751 -0.4156 -0.4332 -0.3607
30825W        W46719  11.570  14.715  11.037  0.1334 -0.0315  0.3117
30826W        W46720  15.836   8.849   5.154 -0.1210  0.0315 -0.2138
30827W        W46721  12.982  14.416  11.596 -0.1187 -0.0569 -0.1354
30828W        W46722  15.971   6.834  14.913  0.3817  0.0391  0.0690
30829W        W46723   4.813   2.405   1.970  0.4030  0.0252  0.1885
30830W        W46724   2.891  16.330   3.955 -0.1062 -0.0049 -0.1647
30831W        W46725   1.347  15.857   1.322 -0.0903 -0.0631 -0.0121
30832W        W46726   6.509  12.167  14.743  0.1234  0.1521 -0.2432
30833W        W46727  14.042   6.845   0.138 -0.2398  0.0129 -0.1171
30834W        W46728   2.340   2.006   4.800 -0.1052 -0.1289 -0.1497
30835W        W46729  16.911   4.563   0.106 -0.2833  0.0918  0.1364
30836W        W46730   8.416  17.553  10.701 -0.2284 -0.1557  0.2812
30837W        W46731   1.858   7.432   1.420 -0.0937  0.0027 -0.2752
30838W        W46732   4.077   9.255  12.181  0.1176  0.4200  0.1215
30839W        W46733  15.974  18.799  13.518  0.2499 -0.0915  0.3669
30840W        W46734   7.459  10.065   3.224  0.0123 -0.2031  0.2391
30841W        W46735   7.200   3.603  13.443  0.3322 -0.0584 -0.2012
30842W        W46736   5.610  18.940   0.340  0.0142 -0.0884  0.4234
30843W        W46737   7.927   4.839   3.392 -0.2894  0.0670 -0.2637
30844W        W46738  10.136  18.563  13.274  0.1654 -0.1131 -0.2120
30845W        W46739   2.284  17.810   4.924  0.1447 -0.0524 -0.2142
30846W        W46740   7.282   7.477  11.268  0.4366 -0.1349 -0.0004
30847W        W46741   3.304  15.054   2.946 -0.3477 -0.0253 -0.4011
30848W        W46742   0.706   4.089   2.797  0.1541 -0.0117 -0.2458
30849W        W46743   5.537   4.657  14.696  0.0790 -0.0512 -0.1634
30850W        W46744  17.352  11.030   2.103 -0.0571 -0.3118  0.0367
30851W        W46745   9.406   0.397  12.438 -0.2507  0.1526  0.1534
30852W        W46746   8.132   0.106  14.001 -0.0269  0.2453  0.0394
30853W        W46747   3.910   1.990  11.693  0.1260  0.2198 -0.2563
30854W        W46748   9.399  11.048   1.036  0.1299  0.2579 -0.0742
30855W        W46749   9.015   5.663  14.220 -0.0468 -0.1188  0.0202
30856W        W46750  17.979   1.919   3.856  0.5096 -0.0234 -0.3237
30857W        W46751   1.101  17.806  10.133  0.0404 -0.0879 -0.4539
30858W        W46752  16.451   4.243   1.877  0.0712  0.1118 -0.3375
30859W        W46753   5.484  17.925   2.617 -0.1410  0.0577  0.2351
30860W        W46754   5.654   3.634  11.371 -0.1014  0.0495 -0.1885
30861W        W46755  18.892   8.616   0.586 -0.0139 -0.4353  0.2568
30862W        W46756  13.527  16.901   0.839  0.1475  0.0593 -0.3478
30863W        W46757  17.095   7.221  13.992 -0.1902  0.2288 -0.3498
30864W        W46758  10.466  10.458   4.635 -0.0787 -0.0492  0.1865
30865W        W46759   6.392   7.522   5.944  0.3290 -0.1056  0.1158
30866W        W46760   8.700   7.497   2.433  0.0430  0.3212 -0.5101
30867W        W46761   0.034   9.473   4.710 -0.0017 -0.0835 -0.6094
30868W        W46762   3.401  15.629   1.636 -0.0861  0.0652 -0.0064
30869W        W46763   9.039   6.451  14.634 -0.0572 -0.1435  0.1640
30870W        W46764  11.099   1.948   3.714  0.0336 -0.0313  0.2214
30871W        W46765   7.148  17.314  10.302 -0.1230  0.0269 -0.0130
30872W        W46766  11.448  16.517   3.996  0.2533 -0.3257  0.1264
30873W        W46767  15.162  15.703   1.785  0.0589  0.2929 -0.0209
30874W        W46768   9.489  17.965   0.667  0.2351 -0.0099  0.1951
30875W        W46769  10.757   0.563  10.385  0.0845 -0.3469 -0.1201
30876W        W46770  13.970  15.573  12.574  0.1353  0.1637  0.2567
30877W        W46771   7.122  10.904  13.449 -0.1125 -0.0321  0.0317
30878W        W46772   7.132   0.779   5.908  0.0180 -0.1347  0.2410
30879W        W46773   1.517  16.339   4.228  0.1174  0.0893 -0.1408
30880W        W46774   4.139   6.649   4.320 -0.0546  0.0435  0.2762
30881W        W46775  15.281  16.950  12.200 -0.2352 -0.1262  0.1813
30882W        W46776  10.034   6.965  12.548  0.0942 -0.1936 -0.1307
30883W        W46777  11.321  15.100   2.762  0.1839  0.1380 -0.2284
30884W        W46778  13.153   1.855  11.215 -0.2984 -0.3492 -0.2906
30885W        W46779  17.408  17.224  12.780 -0.0937 -0.0766  0.0667
30886W        W46780   2.798  15.227   4.757  0.1470  0.0599  0.0721
30887W        W46781   7.649   5.278   6.066  0.0270  0.3641 -0.0376
30888W        W46782   7.589  13.228  10.917  0.1251  0.2345 -0.2280
30889W        W46783   9.814  16.297   3.784 -0.0597  0.1312 -0.1389
30890W        W46784   1.300   7.465  12.958 -0.4437  0.3110  0.0027
30891W        W46785   8.275   6.172   0.861 -0.1334 -0.0828  0.0296
30892W        W46786  16.622  13.384   1.655 -0.0386  0.0301  0.1426
30893W        W46787   5.376   4.145  14.939 -0.0784 -0.0023  0.0720
30894W        W46788  16.732   4.614  13.675 -0.1364 -0.0299  0.0029
30895W        W46789  18.194  16.860  11.333  0.2210  0.0530 -0.0969
30896W        W46790   9.033   2.921   4.084 -0.1968 -0.0442  0.2057
30897W        W46791  12.486   1.893  12.133 -0.2436  0.2131 -0.3977
30898W        W46792   7.351   2.009   2.415  0.1070 -0.0338 -0.0444
30899W        W46793   6.275  17.983   1.623  0.0338  0.4035 -0.2001
30900W        W46794  14.940  16.821  13.560  0.2287 -0.2079  0.3464
30901W        W46795  10.893  12.836   4.171 -0.1848  0.1572 -0.0588
30902W        W46796  11.515  13.347  12.309  0.3194  0.0572 -0.0207
30903W        W46797  18.067  14.379  14.543 -0.0881  0.4209 -0.1509
30904W        W46798   2.928   1.233  13.825 -0.1771  0.0665  0.0836
30905W        W46799  15.902   4.040  13.632  0.3047 -0.1540 -0.0037
30906W        W46800  11.208   6.624  13.296 -0.2114 -0.1699  0.0965
30907W        W46801  17.811  15.734  13.409 -0.0882 -0.0445  0.1960
30908W        W46802  16.486   1.721  14.362 -0.1832  0.0016  0.2348
30909W        W46803   3.370  17.645  13.594  0.1292  0.0908 -0.0063
30910W        W46804  18.257  14.698  11.495 -0.0014  0.0783 -0.0299
30911W        W46805   9.101   4.379  10.642  0.2060  0.0419 -0.3948
30912W        W46806   7.033  14.385   4.131 -0.0484  0.1832 -0.0203
30913W        W46807  11.341   8.092   3.379  0.2731 -0.3949 -0.0531
30914W        W46808   4.172   1.648   3.503  0.0171 -0.0944  0.1161
30915W        W46809   9.407   4.771   0.050 -0.2554  0.1414  0.2496
30916W        W46810  14.176  16.094   5.383  0.2340  0.0873 -0.0947
30917W        W46811   7.093   5.695   0.339 -0.3537 -0.3632  0.1064
30918W        W46812   4.435   6.110  11.716  0.1764 -0.3042 -0.0556
30919W        W46813   2.199   7.278  11.386 -0.0265 -0.0943 -0.1534
30920W        W46814   3.239  16.150  13.484  0.0337  0.3546  0.0565
30921W        W46815  17.022   7.862   3.584 -0.0667 -0.0159  0.2574
30922W        W46816  15.195   3.773   5.052 -0.1164  0.3597  0.0280
30923W        W46817   0.602   7.235   0.896  0.2131  0.0315 -0.2088
30924W        W46818   2.168  16.881   4.917  0.1704 -0.2364 -0.1837
30925W        W46819   4.826  10.331  12.401 -0.1647 -0.2710 -0.0440
30926W        W46820   8.817   7.299   4.395  0.1345 -0.3815 -0.1736
30927W        W46821   7.893  10.260   4.200  0.1600 -0.1267 -0.1909
30928W        W46822   5.165  10.572   3.735  0.1786  0.1979 -0.1885
30929W        W46823   5.767   5.222  13.710  0.0017  0.2716  0.0158
30930W        W46824   5.554   0.749   3.787  0.2424 -0.1038  0.0156
30931W        W46825   1.025  11.891   3.924 -0.1494 -0.0602 -0.0252
30932W        W46826  15.418   9.409   2.080 -0.0430 -0.1237 -0.2536
30933W        W46827  14.611   5.363   0.196  0.0562 -0.1587 -0.0519
30934W        W46828  17.596   4.223  13.633  0.1268 -0.1551 -0.0213
30935W        W46829   9.744   8.229   2.819 -0.0455 -0.1585  0.1079
30936W        W46830   3.225   3.465   1.469 -0.1058 -0.1450 -0.1846
30937W        W46831   0.878   3.860   2.383 -0.2038 -0.2880 -0.2722
30938W        W46832   0.144  12.651  13.463  0.0240  0.2577 -0.3141
30939W        W46833   1.719  15.657   2.661 -0.1672 -0.2787  0.0051
30940W        W46834  18.942  17.813   3.189 -0.0017  0.1505  0.1632
30941W        W46835  16.810  15.371   3.269 -0.1076 -0.0864 -0.3080
30942W        W46836   9.082  16.806  13.226  0.1325 -0.1833 -0.1757
30943W        W46837   7.418   0.661   1.892  0.1970 -0.0182 -0.0805
30944W        W46838  12.647   1.973  11.395  0.0159 -0.0672  0.4022
30945W        W46839   7.099   2.020   3.720 -0.1801  0.2011 -0.0840
30946W        W46840   9.808   1.115  14.693  0.0292 -0.1213 -0.1527
30947W        W46841   0.636   7.192  14.108 -0.0587 -0.0685  0.1034
30948W        W46842  12.704  16.021   9.020 -0.1096 -0.2705 -0.1384
30949W        W46843   3.002   6.807  15.107  0.1407 -0.0714 -0.3030
30950W        W46844   6.924   9.183   2.843  0.0612 -0.0313  0.1316
30951W        W46845  11.065   6.819  11.760 -0.1070 -0.1997 -0.0747
30952W        W46846   2.389  18.412  13.995  0.0776  0.1989  0.1827
30953W        W46847  15.479  13.308   4.208 -0.2185  0.0721  0.1561
30954W        W46848  12.351  18.255   3.335  0.3308  0.2547  0.0439
30955W        W46849   5.960   8.929   1.779  0.3348 -0.0925 -0.2359
30956W        W46850  10.500  10.124  13.622  0.1262  0.3250  0.0481
30957W        W46851  16.368   7.122   0.067  0.1150  0.0810  0.3793
30958W        W46852  19.152  11.927   3.640  0.1178  0.1668  0.0631
30959W        W46853   4.002  11.104   4.437  0.2239  0.3341  0.0698
30960W        W46854   0.474  16.009  11.088 -0.0012 -0.2125 -0.0794
30961W        W46855   2.427  17.247  12.891 -0.0257  0.0467  0.0658
30962W        W46856  17.489  12.373  10.233 -0.2030  0.1201 -0.0083
30963W        W46857   7.017  13.802   0.081  0.0583  0.1091  0.2391
30964W        W46858   0.040   0.899  11.419 -0.1481 -0.1811  0.0115
30965W        W46859  12.902   8.357  13.919 -0.1069  0.1415  0.0861
30966W        W46860  14.825  17.490   2.883  0.0160  0.0341 -0.0330
30967W        W46861  18.399  10.450   4.362 -0.1960 -0.0860  0.1253
30968W        W46862  10.842  15.324   1.899 -0.1518 -0.2476 -0.2054
30969W        W46863  18.362   6.439   0.457  0.1036  0.0843  0.0778
30970W        W46864   3.993  14.711  12.820 -0.4764 -0.1762 -0.2704
30971W        W46865   7.209   0.934   2.302  0.2247 -0.1872  0.1473
30972W        W46866  12.548  15.860  13.346  0.0079 -0.1539 -0.0339
30973W        W46867  10.878  16.378  10.505  0.0362 -0.2140  0.1026
30974W        W46868   3.779  12.944   0.944 -0.0596  0.3024  0.2573
30975W        W46869   9.241   1.022   4.958 -0.0316  0.2343  0.0929
30976W        W46870  11.897  16.063   9.007  0.1427  0.4094 -0.1805
30977W        W46871  14.368   9.566   0.508  0.0938 -0.2670 -0.2060
30978W        W46872   2.570   8.072  11.027  0.0514  0.0877  0.0012
30979W        W46873  16.456   6.035   4.330  0.0752  0.1470  0.3567
30980W        W46874  15.801   4.995   1.139 -0.2606  0.1818 -0.0909
30981W        W46875  17.027   6.264  13.534 -0.0784 -0.0768  0.0481
30982W        W46876   0.163  14.122   4.385  0.3264 -0.0135  0.1147
30983W        W46877   4.845   2.288  12.471 -0.0131 -0.0364  0.0222
30984W        W46878  10.971   4.959   0.043 -0.1579  0.0894  0.4710
30985W        W46879   7.196   5.835  10.621 -0.1020  0.0332  0.3511
30986W        W46880  18.845   1.238   1.712 -0.0442 -0.1780 -0.0018
30987W        W46881  10.673   2.299   0.740 -0.1995 -0.1028  0.0627
30988W        W46882   5.812   7.448   4.897 -0.0406  0.2290 -0.0892
30989W        W46883   2.326  18.246   3.161 -0.0813  0.1569  0.1451
30990W        W46884   3.802   4.999   1.235 -0.2808  0.0375 -0.2056
30991W        W46885   6.105  11.596   4.074  0.0799 -0.2039 -0.2406
30992W        W46886   8.150   5.616   4.988  0.1033  0.3190  0.0419
30993W        W46887   0.359   4.199  11.023 -0.0573 -0.1630 -0.1879
30994W        W46888   8.661   6.128  14.393 -0.2733 -0.3045 -0.1215
30995W        W46889   2.420   3.890   1.765  0.0639  0.2447  0.2446
30996W        W46890   8.167   0.107  14.627  0.0608  0.3121  0.0599
30997W        W46891  13.434   8.550   5.840 -0.1866 -0.0684 -0.0248
30998W        W46892  16.589   0.834   5.002  0.0244  0.0532 -0.1861
30999W        W46893   8.295  15.414   3.071  0.2164 -0.1975 -0.1020
31000W        W46894  10.492  17.526  14.364 -0.2278 -0.3850  0.0938
31001W        W46895  13.196   6.502  14.452  0.0756  0.0286 -0.1559
31002W        W46896   0.894  12.097  10.995 -0.0524  0.2836 -0.2556
31003W        W46897   3.909  14.989  13.827 -0.0607  0.1236 -0.1244
31004W        W46898   7.803  12.816   4.518 -0.2263 -0.3371 -0.1783
31005W        W46899   0.977   9.435  11.743  0.1818  0.0638  0.2366
31006W        W46900   5.650   2.142   0.812 -0.2473  0.0861 -0.0541
31007W        W46901   2.512  18.294   4.923  0.1650  0.1802 -0.1752
31008W        W46902  13.555   2.589   2.933  0.0963 -0.1791  0.1890
31009W        W46903  14.222   8.101  13.406 -0.0326  0.0836  0.1379
31010W        W46904  14.700   7.196   3.871  0.3352 -0.0100  0.1387
31011W        W46905  18.174   4.399  12.099  0.0267 -0.1690  0.2260
31012W        W46906  17.506  12.742  14.067 -0.4053  0.0694  0.0077
31013W        W46907  15.292   3.082   0.799 -0.1663 -0.0387 -0.1080
31014W        W46908   4.073   1.830   5.560 -0.1844 -0.1232  0.4045
31015W        W46909  18.720  10.521   0.429 -0.2809 -0.1286  0.0269
31016W        W46910   8.610  13.172  12.210  0.0437 -0.4189 -0.0255
31017W        W46911  10.036   7.492   1.604  0.0341  0.2607 -0.3117
31018W        W46912   9.325   7.859   3.061 -0.4537 -0.0574  0.1302
31019W        W46913  15.401  12.123  14.463 -0.0067  0.0811 -0.0998
31020W        W46914  13.031  17.406   1.916  0.3889  0.2294  0.0982
31021W        W46915  16.091   7.639   2.411  0.1387 -0.2574  0.0391
31022W        W46916  18.435  15.975   9.949 -0.0112 -0.1885  0.2413
31023W        W46917   7.206  18.130   1.726 -0.1247  0.3302  0.0913
31024W        W46918   8.297   1.695   0.045 -0.1098 -0.1431  0.0848
31025W        W46919  18.400   5.512   1.620 -0.0027  0.0415 -0.1416
31026W        W46920   4.940  17.187   0.527 -0.4864 -0.0228  0.3773
31027W        W46921  16.904  11.527   2.967 -0.2398  0.0738  0.0740
31028W        W46922   2.681   6.988  11.525  0.0341 -0.1320 -0.2858
31029W        W46923  16.177   3.257  11.223  0.2804  0.2241  0.1844
31030W        W46924   2.571   2.149  13.632  0.2180  0.1423 -0.0229
31031W        W46925  12.030  17.852  14.413 -0.1669 -0.0204 -0.0492
31032W        W46926  10.394   3.448   1.987 -0.2055  0.3211  0.5369
31033W        W46927  15.883  14.563  12.921  0.0573  0.1635 -0.0944
31034W        W46928   7.660  15.913   4.520 -0.0337  0.2096 -0.1479
31035W        W46929   1.552  15.721  11.115 -0.2108 -0.0639 -0.1299
31036W        W46930   0.396   7.477   1.443  0.1913  0.1122 -0.1924
31037W        W46931  15.492   6.057   3.294  0.3540  0.1251 -0.0735
31038W        W46932   6.454  11.075  11.484  0.2181 -0.1680 -0.1127
31039W        W46933   2.062   7.902   5.723 -0.1260 -0.1119  0.0289
31040W        W46934   5.586   4.079   0.494 -0.0581 -0.3606 -0.0189
31041W        W46935   7.179  11.297  10.985  0.2289 -0.0923 -0.0270
31042W        W46936   9.099   5.828   0.898  0.2748 -0.0541  0.0032
31043W        W46937  11.153   1.921   4.956  0.0982 -0.2436  0.3157
31044W        W46938  11.372  14.122   4.041  0.3876 -0.0401  0.2911
31045W        W46939  16.547   6.397   5.217 -0.2191 -0.1399 -0.1430
31046W        W46940   4.974  17.659  11.187  0.2916  0.0847  0.2269
31047W        W46941   5.759   7.271  11.233 -0.0260 -0.1803 -0.1007
31048W        W46942   3.539  10.275   1.518  0.0710 -0.1350  0.1631
31049W        W46943   2.287  10.635   2.108  0.0873 -0.0484  0.0952
31050W        W46944  15.268  10.676   0.421 -0.2506  0.2024  0.0264
31051W        W46945   8.036   7.280   2.761  0.2404 -0.0888  0.0349
31052W        W46946   1.918   3.080   0.068 -0.1289 -0.2296  0.1101
31053W        W46947   5.755  18.651  11.605  0.0862  0.0271 -0.1119
31054W        W46948  16.769  18.143   3.235 -0.1215 -0.0001  0.0706
31055W        W46949   3.739  16.586  14.333 -0.0419 -0.0824  0.0486
31056W        W46950   8.972   2.736   0.517 -0.2291  0.0986 -0.2595
31057W        W46951  10.664   3.850  14.154  0.2740 -0.0832  0.3000
31058W        W46952   1.645   8.662   4.988  0.1657 -0.2030 -0.3036
31059W        W46953   4.236  14.907  10.819 -0.2084 -0.0507  0.2063
31060W        W46954  11.947   0.079   2.557  0.1110 -0.2144  0.2860
31061W        W46955   7.038  12.997  13.588 -0.0400  0.3946  0.2234
31062W        W46956  19.051   3.403   0.971  0.0228 -0.0410 -0.1480
31063W        W46957   5.425  16.161   0.063 -0.5531  0.0694  0.2011
31064W        W46958  18.527  11.056  12.066  0.1427  0.1305  0.3187
31065W        W46959   6.842   3.764   3.109 -0.0864 -0.1566  0.0567
31066W        W46960   7.622   5.179   2.698 -0.1150 -0.1752  0.2874
31067W        W46961   8.324   0.453  13.644  0.2218 -0.3122 -0.2429
31068W        W46962   1.490  13.255  10.602 -0.2962  0.0185  0.1017
31069W        W46963  10.241   4.454   9.495 -0.1652  0.0329 -0.1813
31070W        W46964   7.009   9.185   3.303 -0.2757 -0.3391 -0.0671
31071W        W46965   4.472   3.610  12.457  0.2836  0.1453  0.0807
31072W        W46966  11.304   6.923  14.661 -0.0746 -0.0382 -0.1710
31073W        W46967  15.997   2.696   2.216 -0.0135  0.0662  0.0845
31074W        W46968   7.970   8.540   0.311  0.0117 -0.4217 -0.1976
31075W        W46969  16.955   4.140  10.379 -0.0052 -0.4579  0.3511
31076W        W46970  10.544   7.468  13.866 -0.2272 -0.0845 -0.1942
31077W        W46971   2.206   0.781  13.458 -0.0402 -0.1147 -0.2365
31078W        W46972   4.079  16.321   1.860 -0.1757 -0.0695 -0.0513
31079W        W46973  17.018  12.895   0.830 -0.0668  0.4235  0.4208
31080W        W46974   9.466  17.925   5.131 -0.0849  0.0848  0.0745
31081W        W46975   1.832   0.780   5.373  0.0597  0.2000 -0.2468
31082W        W46976   5.987  14.720  10.116 -0.1257  0.2145 -0.0971
31083W        W46977   4.618   6.560  11.550 -0.1758 -0.0086 -0.0078
31084W        W46978  18.825  13.671  13.069  0.4121  0.1986  0.0048
31085W        W46979  17.295  12.532   2.785  0.0370  0.4122 -0.2397
31086W        W46980   1.556  10.515   0.080  0.2703  0.4142 -0.0659
31087W        W46981  11.437   4.369  14.359 -0.1254 -0.2564  0.0925
31088W        W46982   9.440   8.736   4.570 -0.4377 -0.1380 -0.1262
31089W        W46983   3.501  17.190   3.854  0.3589 -0.1689  0.1168
31090W        W46984   6.223  11.058  13.569 -0.2256  0.4901 -0.3202
31091W        W46985   3.229   4.515   3.074 -0.1370  0.2682  0.3401
31092W        W46986  17.770   0.839   5.855  0.1008  0.0934  0.0744
31093W        W46987   9.090   4.720   1.831 -0.0469 -0.2035  0.1243
31094W        W46988  10.195  10.431   0.259 -0.2655  0.2903  0.0548
31095W        W46989   5.540   7.669  13.514  0.3742  0.1062  0.1168
31096W        W46990  12.707  15.573  14.076  0.1308  0.1478 -0.1941
31097W        W46991   0.991  16.198   3.995  0.0878 -0.0589 -0.0860
31098W        W46992   0.480   2.306   5.541  0.1104 -0.0345 -0.0251
31099W        W46993  10.423   6.753   2.003 -0.2032 -0.1980  0.0096
31100W        W46994   4.152   7.595   4.646  0.1438  0.1248  0.2844
31101W        W46995   6.713   0.489   3.150 -0.0277  0.2904 -0.0454
31102W        W46996   4.466  10.576   1.467 -0.0159  0.2155  0.0878
31103W        W46997  12.055  14.132  10.388 -0.1645  0.1675 -0.0916
31104W        W46998  15.359   6.289   9.764 -0.4053  0.4351 -0.0787
31105W        W46999  10.426   8.288   4.687  0.0160 -0.2630  0.0483
31106W        W47000  11.483   3.850  14.220  0.2755  0.0147 -0.0123
31107W        W47001  15.969   5.236   1.560  0.1345  0.2769  0.1847
31108W        W47002  12.231  12.270   1.046 -0.1305 -0.1020 -0.1872
31109W        W47003   9.328   6.476  11.937  0.1187  0.3962  0.2480
31110W        W47004  12.708  17.013   0.506  0.0912  0.1276 -0.0067
31111W        W47005  17.545   5.275  12.570  0.2683 -0.2658 -0.1032
31112W        W47006  17.300   7.311   5.415 -0.2661 -0.5388  0.0040
31113W        W47007   7.029   5.851   2.132 -0.0873  0.0706 -0.2402
31114W        W47008   6.098   7.887  11.663  0.3248 -0.2043 -0.2775
31115W        W47009  11.321   4.734   3.536  0.1232 -0.3190 -0.1328
31116W        W47010   5.042   5.579   1.078  0.1405  0.1512 -0.0647
31117W        W47011   4.637   7.674   4.799  0.2166 -0.2396  0.1497
31118W        W47012  13.590   8.296  11.773  0.1063 -0.0728  0.1462
31119W        W47013  16.749   6.416  11.603  0.5213 -0.1998 -0.2312
31120W        W47014  10.244  14.509  15.078 -0.1477 -0.2592  0.0880
31121W        W47015  11.906  11.983  14.793  0.0322 -0.0923 -0.2196
31122W        W47016   6.567  10.547   2.381  0.0758  0.1970  0.3248
31123W        W47017  10.889  14.364   2.280  0.0249 -0.0856 -0.0650
31124W        W47018  10.829  17.490  11.751  0.2005  0.0406 -0.3850
31125W        W47019  10.841   5.737  14.646  0.0189 -0.2095  0.2301
31126W        W47020  16.030   4.532   4.298  0.1679 -0.1512  0.0890
31127W        W47021  10.928  13.708  12.125 -0.0638  0.1549 -0.2244
31128W        W47022  10.436   0.704  11.918  0.0603 -0.2100 -0.3070
31129W        W47023  12.517   6.826  15.027  0.0259 -0.1773  0.0950
31130W        W47024   1.902  11.468   4.337 -0.2378  0.1397 -0.0166
31131W        W47025  18.463   9.240   1.386  0.1780 -0.0059 -0.5002
31132W        W47026   8.537   5.656   4.328 -0.1837 -0.3682 -0.0654
31133W        W47027  16.837   7.444  14.437  0.1692  0.2873 -0.1836
31134W        W47028  10.191  15.661  11.558 -0.2810  0.1051  0.3193
31135W        W47029  18.796  15.923  10.265 -0.2965  0.3358  0.2717
31136W        W47030   1.363  16.910  14.648 -0.2479  0.0252 -0.1807
31137W        W47031  16.228   5.555   4.302 -0.5007 -0.0086 -0.0771
31138W        W47032  15.824  10.443   4.008 -0.3353  0.0263  0.3173
31139W        W47033   8.672  11.639   1.395  0.0646 -0.0288  0.1662
31140W        W47034  12.168  15.719   3.726  0.2861 -0.2565 -0.0538
31141W        W47035   6.426   1.490  14.852 -0.3039 -0.2908  0.1240
31142W        W47036   8.062   0.435   1.971  0.0248  0.1074 -0.0843
31143W        W47037  15.410   7.164  12.537  0.1426 -0.0270 -0.0165
31144W        W47038   3.870  17.783   3.218  0.1392 -0.0471 -0.1848
31145W        W47039   6.183   3.990   3.835  0.3064  0.2429 -0.1966
31146W        W47040   7.803   4.298  11.386  0.3208  0.0350  0.2596
31147W        W47041   1.657  15.441   3.190  0.2460 -0.2548 -0.0358
31148W        W47042   0.252  12.054   1.829 -0.0551 -0.3158  0.0428
31149W        W47043   6.762  16.471   0.636  0.1968 -0.0752  0.0620
31150W        W47044   5.226   6.926   4.040 -0.4532  0.2334 -0.0109
31151W        W47045   5.034   7.718  10.994 -0.1154  0.3290 -0.0963
31152W        W47046   9.427   0.975   0.088 -0.0427  0.6409  0.2521
31153W        W47047  14.155  16.726   1.944  0.1928 -0.2577  0.0482
31154W        W47048  19.113   3.634   4.154  0.3148 -0.0200 -0.4385
31155W        W47049  10.494  10.738   1.964 -0.0662 -0.2451 -0.1542
31156W        W47050   0.503   3.600   2.975 -0.1904 -0.0028  0.2153
31157W        W47051   7.054   0.151   3.374 -0.3437 -0.0070 -0.1378
31158W        W47052   8.916  13.949   0.529  0.2136 -0.1480 -0.0198
31159W        W47053   8.293   4.821   1.445  0.2748  0.0202 -0.1722
31160W        W47054  13.464   5.413   2.000  0.4768  0.1153 -0.0952
31161W        W47055   1.234   1.732  14.023 -0.2695  0.3003 -0.1236
31162W        W47056   5.812  15.068   3.146  0.4406 -0.1288  0.0995
31163W        W47057   1.584  17.947   1.364  0.0298  0.2507  0.0101
31164W        W47058   7.338  13.237   2.301  0.1404  0.1507  0.1116
31165W        W47059   4.031  11.056   1.345 -0.0383  0.1341  0.2341
31166W        W47060   9.221  14.500  13.957  0.0828  0.0232  0.0327
31167W        W47061   6.907   9.026   5.833 -0.1380  0.1677  0.1691
31168W        W47062   6.225  12.775  11.272 -0.1545  0.1692  0.1225
31169W        W47063  10.010  15.445  10.028 -0.1169 -0.1339 -0.0646
31170W        W47064   1.262  11.582  10.441  0.0653 -0.2774 -0.0539
31171W        W47065  14.111  18.215   9.862 -0.0284  0.0493  0.0200
31172W        W47066  16.459  16.479   2.592 -0.1468 -0.0371  0.2092
31173W        W47067  18.301   5.033  12.986 -0.1686 -0.1370  0.0668
31174W        W47068   0.093  15.186   2.887 -0.0948  0.0401  0.2681
31175W        W47069   4.028   7.638   1.401 -0.2105 -0.0717  0.3030
31176W        W47070  12.106  18.644  14.323 -0.0675  0.3133  0.0041
31177W        W47071  10.204   9.714   3.760  0.1599  0.0441 -0.3794
31178W        W47072  15.013  11.219   2.370  0.1306  0.0148  0.3917
31179W        W47073   4.250  12.853   2.291 -0.1931  0.4027  0.1483
31180W        W47074   2.652   8.889  13.307 -0.1381 -0.2103 -0.2211
31181W        W47075  13.558   2.986  13.858 -0.0159 -0.2045 -0.2456
31182W        W47076   9.294   3.727   0.993 -0.0790  0.1134  0.2469
31183W        W47077  12.854  10.971   3.728 -0.2459 -0.1737 -0.2510
31184W        W47078  15.573   8.612   1.611  0.1076  0.2228 -0.0908
31185W        W47079   3.637   0.965   1.576 -0.0249  0.2637 -0.1283
31186W        W47080  13.579   7.316  10.795  0.0890 -0.4101  0.0026
31187W        W47081   2.232   2.926   3.442 -0.1789 -0.4467 -0.1900
31188W        W47082  18.746   1.719   2.746  0.1327 -0.2921  0.1244
31189W        W47083   3.026  16.685  10.732  0.0085 -0.2364  0.1879
31190W        W47084  18.049   1.234  11.434  0.1117  0.1690  0.1212
31191W        W47085   9.259  16.061   5.440  0.2626 -0.0163 -0.0264
31192W        W47086   4.026  14.901  10.319 -0.3351 -0.2494  0.1514
31193W        W47087   7.155   0.217   1.978  0.3410 -0.1190  0.2580
31194W        W47088  16.940  11.932   3.466 -0.0114 -0.0604  0.0744
31195W        W47089  11.588  19.197  13.725  0.3678 -0.2104 -0.1843
31196W        W47090   3.615   1.373   5.476 -0.2926  0.0643 -0.2414
31197W        W47091   2.686  17.774   2.541 -0.1032  0.0328 -0.1344
31198W        W47092  18.278  14.054   2.788 -0.4519 -0.2694  0.2737
31199W        W47093  15.468   1.857   9.488  0.1545  0.2319 -0.0246
31200W        W47094   7.353   6.640  14.254 -0.2029  0.0295 -0.0263
31201W        W47095   9.418   0.589  13.884 -0.2710  0.0541  0.3572
31202W        W47096  18.933   1.958  10.562 -0.2193  0.3688 -0.1271
31203W        W47097  10.563   9.407   4.648  0.0409  0.2369  0.2260
31204W        W47098   6.015   5.820   1.034  0.2432  0.0491 -0.0432
31205W        W47099  11.147  18.063   0.590  0.0635 -0.0038  0.1358
31206W        W47100   3.133   6.620  10.751 -0.3116 -0.0678  0.0760
31207W        W47101  10.866  18.581   1.117  0.0592 -0.0037 -0.0234
31208W        W47102  10.105  16.516  12.102 -0.2443  0.0556 -0.3014
31209W        W47103   3.431   8.747   1.711 -0.2032 -0.0530 -0.0674
31210W        W47104   0.076   4.621   0.311  0.4231  0.4323 -0.3357
31211W        W47105   3.635  15.608   2.099 -0.0432 -0.1270 -0.0874
31212W        W47106   4.109  12.368  12.523 -0.2136  0.0259 -0.1850
31213W        W47107  17.540   4.729   0.593 -0.3583  0.1155 -0.0630
31214W        W47108  14.880   3.222   2.690 -0.2187  0.1130  0.0326
31215W        W47109  12.068   1.037  12.485 -0.0358 -0.0815  0.1814
31216W        W47110  12.198  14.040  12.042  0.1294 -0.1111 -0.1550
31217W        W47111   4.263  16.927   4.438 -0.1070  0.2442  0.0390
31218W        W47112   8.556   8.431   2.160  0.1479  0.1562 -0.3642
31219W        W47113  18.887  11.320   1.955 -0.2004  0.2228  0.0846
31220W        W47114  17.053   8.760  12.950  0.3572  0.0985 -0.5639
31221W        W47115  18.772  11.976   1.561  0.2251  0.3392  0.1018
31222W        W47116   8.640  10.388   2.528  0.1374 -0.0868  0.1456
31223W        W47117   2.714  13.126  14.677  0.4530 -0.1077 -0.0545
31224W        W47118   5.795   1.635   2.468 -0.3432 -0.0436 -0.1847
31225W        W47119  16.777   8.871   3.728  0.1285 -0.1539 -0.0190
31226W        W47120   4.069  12.916  14.738 -0.3250  0.0511 -0.0585
31227W        W47121  18.513   1.965  11.050  0.0981  0.0711  0.1095
31228W        W47122   8.789  15.280   1.276 -0.0248  0.1427 -0.1425
31229W        W47123  16.840  11.699   2.162  0.0854 -0.1660 -0.0417
31230W        W47124   3.638   0.592  13.679 -0.3726 -0.2535 -0.0498
31231W        W47125   0.816  18.994  14.714  0.0020 -0.2422 -0.3553
31232W        W47126  10.140   5.991  13.951  0.0925 -0.0135 -0.2261
31233W        W47127   5.351  11.433   0.914 -0.0692  0.0956 -0.3548
31234W        W47128   6.134  18.050   4.541  0.3527 -0.0996  0.1556
31235W        W47129   4.798  13.785  12.293 -0.1265  0.1450  0.1706
31236W        W47130   1.183   4.860  13.840 -0.2041 -0.3206 -0.1449
31237W        W47131  13.790   6.933  12.740 -0.0612 -0.1040  0.2966
31238W        W47132   6.855  17.183  11.502  0.0819 -0.3481  0.2075
31239W        W47133  17.544  17.811   2.113  0.1503  0.1241  0.1483
31240W        W47134   3.297   5.836   2.845  0.3069  0.0771 -0.0874
31241W        W47135   2.805   4.620  13.413  0.0354 -0.0809  0.0643
31242W        W47136  14.509   2.485   2.983 -0.1168 -0.2631  0.2889
31243W        W47137   2.839  15.245   3.986  0.2765 -0.1729 -0.2645
31244W        W47138  10.098   5.557   2.295 -0.3017 -0.0090  0.1364
31245W        W47139   8.364   6.283  11.584  0.0848  0.1682 -0.2752
31246W        W47140  13.221  14.694   9.182  0.0048 -0.6899 -0.0221
31247W        W47141   8.999   0.585   4.140  0.3481 -0.1041  0.2063
31248W        W47142   7.680   4.918   4.792  0.0454 -0.0565  0.2414
31249W        W47143  12.055   7.032  11.529 -0.1769  0.2180  0.0493
31250W        W47144   4.948   4.890   3.916  0.0831  0.0956 -0.2319
31251W        W47145  15.891   4.482  13.306  0.1110  0.0205  0.1708
31252W        W47146  12.493   6.112  14.485  0.0484 -0.1012 -0.3614
31253W        W47147  13.603   5.460   3.631  0.1121  0.2777  0.1346
31254W        W47148   2.979  14.209  10.057 -0.1841  0.0973  0.0806
31255W        W47149  10.437   1.733   1.417  0.1544  0.1117  0.1093
31256W        W47150   0.607   4.235  14.616  0.3846  0.1793  0.0436
31257W        W47151  13.603   7.967  15.005 -0.3288  0.1263  0.2370
31258W        W47152  18.554   2.495  13.154  0.0004 -0.1753 -0.0871
31259W        W47153  18.345  17.782   0.073 -0.0280  0.1960 -0.2792
31260W        W47154   1.604   9.590  12.189 -0.2918  0.1473 -0.0469
31261W        W47155  18.783   3.390  14.203 -0.0494 -0.0775  0.4541
31262W        W47156   8.338  18.938   3.528  0.2508  0.0340  0.2199
31263W        W47157  18.314  16.537  10.825  0.0851  0.2240  0.0631
31264W        W47158  13.190  15.271   4.803  0.1266 -0.0936  0.1584
31265W        W47159   5.062   9.067   4.329  0.0347  0.1983 -0.1891
31266W        W47160   0.972   9.690   1.402 -0.0512 -0.0516  0.1196
31267W        W47161  12.024   6.336   1.183 -0.3055  0.2224  0.1413
31268W        W47162  14.897   7.728  14.087  0.0373 -0.0043  0.0495
31269W        W47163   1.639   9.310  12.673 -0.0634 -0.1240 -0.1332
31270W        W47164  15.501  12.070  11.170  0.4055 -0.1359  0.2017
31271W        W47165   7.142  11.182  14.757  0.1480 -0.2100  0.0381
31272W        W47166  14.075   0.542  11.863 -0.0699 -0.0142  0.2262
31273W        W47167   7.246   4.359   3.872  0.1413  0.1577 -0.1447
31274W        W47168   7.439   0.755   1.212 -0.2651  0.1601  0.2448
31275W        W47169  12.609   8.187  11.770 -0.3413  0.1124  0.1107
31276W        W47170  15.061  12.253  13.127 -0.3444 -0.0110 -0.3055
31277W        W47171   3.561   0.051   4.680  0.0981 -0.3432 -0.1228
31278W        W47172   4.983   9.058   4.883 -0.0495  0.2222  0.2787
31279W        W47173  13.986  16.050   0.728  0.2535 -0.1360  0.0387
31280W        W47174  12.691  11.536   2.403  0.0636  0.1221  0.3152
31281W        W47175   1.570  14.643   0.850 -0.0909  0.2287 -0.0048
31282W        W47176  10.281   8.369  11.460 -0.1760 -0.1377 -0.1691
31283W        W47177  16.400   1.965   2.221 -0.0364  0.2318 -0.0081
31284W        W47178   5.609   6.450   0.457  0.0314 -0.1757  0.0304
31285W        W47179   4.698  17.783  13.962 -0.0277 -0.2637 -0.4288
31286W        W47180   6.537  11.690   9.387 -0.0060  0.0001 -0.4266
31287W        W47181  13.994  10.244   4.438 -0.2906 -0.2716  0.0166
31288W        W47182  11.866   8.113  13.861 -0.1371  0.0462 -0.3381
31289W        W47183   8.226  15.617   0.369  0.0875 -0.2242  0.0397
31290W        W47184  12.984  16.189  13.366 -0.0675 -0.1339  0.1475
31291W        W47185   7.804   8.658  10.556 -0.3882 -0.0188  0.1984
31292W        W47186  12.190  16.254   3.688 -0.1076 -0.1487 -0.0080
31293W        W47187   1.072   8.656  14.782  0.1669  0.0119  0.1209
31294W        W47188  16.402   1.386  13.102  0.0626  0.1716 -0.1055
31295W        W47189   3.810  11.242   0.024 -0.0299  0.0212  0.2144
31296W        W47190   0.793   8.068  11.059 -0.0984 -0.4351 -0.1512
31297W        W47191  11.341  14.743  12.718 -0.0170 -0.0135  0.0962
31298W        W47192   9.663  12.681   1.090 -0.1582  0.1447 -0.0525
31299W        W47193   5.587  18.604  12.369 -0.0747  0.4130  0.2227
31300W        W47194   6.663   3.605  11.333  0.1289  0.0039 -0.1843
31301W        W47195   3.478   6.364   1.135 -0.0494 -0.0490 -0.0917
31302W        W47196  12.366   0.623  13.302  0.0941  0.0169 -0.0360
31303W        W47197  13.686  17.635  12.203  0.3415  0.3604  0.5065
31304W        W47198   6.019  15.271  14.969  0.3168  0.0102 -0.1306
31305W        W47199  16.469   6.501  14.143  0.0209  0.2130 -0.1631
31306W        W47200  19.210  14.747  12.707 -0.2245  0.2826  0.1698
31307W        W47201   2.770  12.507  12.940 -0.1717 -0.2739  0.4188
31308W        W47202   5.642   7.916  10.412 -0.1354 -0.0880  0.3909
31309W        W47203  11.481  13.256  10.265 -0.0278 -0.1034 -0.0996
31310W        W47204  13.508  13.505   0.638 -0.0251 -0.4484  0.0055
31311W        W47205  16.161   2.960   2.598  0.1229 -0.3877  0.0280
31312W        W47206  10.773  13.620   3.523 -0.0593  0.3180  0.0170
31313W        W47207  13.257  16.165  14.968 -0.0407 -0.1963  0.2622
31314W        W47208  17.014  18.499   2.890 -0.1119  0.0526  0.0645
31315W        W47209   8.079   8.702   2.078  0.1072 -0.0874  0.1835
31316W        W47210  12.156   6.902  12.051 -0.0569 -0.0484 -0.2860
31317W        W47211   1.399  12.572   4.477 -0.2305 -0.3368  0.1292
31318W        W47212   0.850   7.612  12.021  0.5314  0.1178  0.1595
31319W        W47213  14.344  11.409   2.842  0.2703  0.1661  0.3464
31320W        W47214  12.249  11.533   4.661 -0.1720  0.0946 -0.1925
31321W        W47215  18.929  15.318  14.434 -0.0799 -0.3267 -0.2657
31322W        W47216   3.748  14.582  13.630  0.0093 -0.0847 -0.1015
31323W        W47217   8.816  11.841   2.795 -0.0862  0.0441 -0.2571
31324W        W47218  11.491   3.212   2.288  0.3150 -0.1273 -0.0044
31325W        W47219  18.400  15.140  10.031 -0.0126 -0.0080 -0.0036
31326W        W47220  10.717   1.532  13.487 -0.0104 -0.0607  0.1675
31327W        W47221   9.370  13.055   0.738 -0.1219 -0.1487  0.0553
31328W        W47222   4.218  14.535  13.868  0.0026  0.0665  0.1123
31329W        W47223  13.669  14.141  14.209  0.1042 -0.0452 -0.0153
31330W        W47224  10.758  17.896  13.521 -0.1687  0.0271  0.2348
31331W        W47225  10.909  18.369   4.057  0.0130  0.1010  0.1515
31332W        W47226   6.566   6.593   2.665 -0.0532 -0.2951 -0.0435
31333W        W47227  12.566  18.666   3.094 -0.0750 -0.0089 -0.1816
31334W        W47228  18.253  18.845   3.119  0.0702 -0.0545 -0.0926
31335W        W47229  13.708   9.547   5.733 -0.2169 -0.1058 -0.0586
31336W        W47230   7.848   0.054  12.482  0.2426  0.0133  0.2597
31337W        W47231  15.051  12.733  13.008 -0.0634  0.1198 -0.2778
31338W        W47232   9.993  11.869   1.328  0.4344  0.2188  0.0412
31339W        W47233   4.072  14.720   1.064  0.0031 -0.3783  0.3338
31340W        W47234   5.074  17.432  10.575 -0.0487 -0.0225 -0.0572
31341W        W47235  11.556   8.646   9.973  0.1068 -0.0456  0.4127
31342W        W47236  18.202   5.779   4.959  0.0518 -0.2149  0.1506
31343W        W47237   3.487   4.106   4.340 -0.1855  0.1169  0.0908
31344W        W47238  12.461  17.850  12.684  0.0466  0.0550  0.1362
31345W        W47239   5.533   2.174  10.841 -0.1275  0.0803 -0.0482
31346W        W47240  18.732  12.074  14.113 -0.2223  0.3789  0.3144
31347W        W47241  15.595   6.258  15.068  0.0856 -0.0562 -0.1265
31348W        W47242  12.764  16.607   0.986 -0.0005 -0.1566 -0.0560
31349W        W47243   5.977   1.199   1.520  0.2254  0.0288 -0.1431
31350W        W47244  11.462  18.524  11.183 -0.1275 -0.0135  0.1736
31351W        W47245   8.499   4.848   3.533 -0.0073  0.1381 -0.2934
31352W        W47246  12.527   3.839  11.309  0.0696  0.1793 -0.2800
31353W        W47247  12.637   9.168  11.940  0.0802 -0.1379  0.4882
31354W        W47248  18.668  16.106  14.948  0.2173  0.0640  0.2192
31355W        W47249  16.506   4.819   3.377  0.1231 -0.1548  0.0903
31356W        W47250   5.487   2.770  11.316 -0.4114  0.2836 -0.1046
31357W        W47251   6.093   9.296  10.931  0.1144  0.1725 -0.2566
31358W        W47252  12.120   8.288   3.375 -0.1156  0.1040  0.1428
31359W        W47253   1.430  10.714   5.114 -0.2384 -0.2717 -0.0912
31360W        W47254   7.466  14.909   1.955 -0.3641  0.1818 -0.2714
31361W        W47255  13.089  16.405   1.489  0.1979  0.1653 -0.0997
31362W        W47256  11.329   7.363  14.438 -0.1011 -0.1267  0.4320
31363W        W47257   3.177   6.813   1.099 -0.0501  0.1053 -0.2865
31364W        W47258   0.573  19.082   4.645  0.0670  0.0818 -0.1090
31365W        W47259   9.045   0.268   3.752  0.3205 -0.0081  0.0596
31366W        W47260  11.373   9.642  12.802  0.1431  0.1188  0.0102
31367W        W47261  12.878  11.017   1.144 -0.0097 -0.2388  0.1596
31368W        W47262   7.451   9.212   0.107 -0.0962 -0.0411 -0.0942
31369W        W47263  18.734  15.824   2.373  0.0790  0.2307 -0.2386
31370W        W47264   0.791  15.926   4.936 -0.0602 -0.1841  0.1596
31371W        W47265   7.787  15.218  14.642  0.0942  0.0269 -0.1336
31372W        W47266   9.009   5.220   5.232  0.0211 -0.0325 -0.2695
31373W        W47267  10.614   5.821   3.410 -0.1743  0.1293 -0.2549
31374W        W47268   4.955   3.562  14.052  0.1750  0.0388 -0.0135
31375W        W47269  19.154   2.164  14.549 -0.0367  0.3510  0.0916
31376W        W47270  12.530  13.175  12.935  0.1873  0.0735  0.0824
31377W        W47271   8.577   6.489   1.098  0.2597 -0.0480  0.1211
31378W        W47272  11.730   7.149  11.181  0.1781 -0.2154 -0.1992
31379W        W47273  12.942  17.897  14.328  0.1718 -0.2067  0.2180
31380W        W47274  11.138   4.842   1.372  0.3590  0.2358 -0.0523
31381W        W47275   1.566   7.989   9.920 -0.1787 -0.0405  0.0851
31382W        W47276   1.641  17.075   1.786 -0.2389 -0.0943 -0.2918
31383W        W47277   2.888   7.829  13.019 -0.1966 -0.2947  0.0501
31384W        W47278   5.873  16.602  14.972  0.4311  0.2356 -0.0522
31385W        W47279  17.919  14.410   2.850 -0.1891 -0.2860  0.1050
31386W        W47280   5.730  12.860   1.647  0.2914 -0.1970 -0.2816
31387W        W47281   0.675  14.628  12.844  0.0320 -0.1440 -0.1594
31388W        W47282   1.657  14.485  13.253 -0.2412  0.0125 -0.1738
31389W        W47283  13.627   6.628  10.965  0.0964  0.0793  0.0261
31390W        W47284   8.460  10.165  14.226  0.1483  0.1030 -0.0610
31391W        W47285  12.015   8.356   0.048 -0.4481  0.4127  0.0703
31392W        W47286   9.784   3.476   3.024  0.4125  0.1386 -0.1103
31393W        W47287  11.857   0.870   2.111 -0.6842 -0.0789 -0.1756
31394W        W47288   5.255   0.390   2.434 -0.0409  0.0866 -0.0407
31395W        W47289   2.394  13.291  10.748 -0.1071  0.2295  0.2065
31396W        W47290   2.708   8.310  14.716  0.4347  0.2207  0.2347
31397W        W47291   1.666  15.974  11.547  0.2139  0.1690 -0.1809
31398W        W47292   4.898   4.760   0.262  0.0673  0.0609  0.2547
31399W        W47293  15.450   7.293  12.032  0.3508 -0.1594 -0.0790
31400W        W47294   2.335  18.074   4.441  0.0708 -0.0461 -0.0187
31401W        W47295   0.897   5.466   1.335 -0.0606  0.0930  0.0258
31402W        W47296  12.381   6.632  11.660  0.0520 -0.0541  0.0634
31403W        W47297  17.268   6.347   3.154  0.1042  0.0288  0.0960
31404W        W47298  12.094  18.321  12.395  0.0910  0.1691 -0.1365
31405W        W47299   2.609   2.116   1.857 -0.0500  0.2210  0.2735
31406W        W47300   8.566   2.254   4.107  0.1054 -0.0649  0.1237
31407W        W47301   2.049   8.568  12.213 -0.4332 -0.1389  0.1122
31408W        W47302   1.861   7.796   2.421  0.2744  0.0270 -0.3638
31409W        W47303   6.786   8.593  10.456  0.1071 -0.3983 -0.1692
31410W        W47304  11.682  16.922   3.841  0.1453  0.2190  0.0916
31411W        W47305  12.402   5.693  13.012  0.3325 -0.0571 -0.0009
31412W        W47306  15.846  17.333  10.473 -0.2365  0.1462 -0.1185
31413W        W47307  12.334  18.091   5.262 -0.0572  0.0880 -0.0537
31414W        W47308  15.938  16.364  11.652 -0.1640  0.1549  0.1986
31415W        W47309   1.864   1.293  14.604 -0.3700 -0.1452 -0.0094
31416W        W47310  14.297   5.944  14.314  0.0885  0.0312 -0.0483
31417W        W47311  13.028   0.398   5.161 -0.3562 -0.3673  0.0851
31418W        W47312  14.663  16.129  11.650 -0.0395 -0.3163 -0.0900
31419W        W47313  10.629  11.021   4.167  0.2049 -0.0440 -0.1263
31420W        W47314  13.812  13.552  12.146  0.1063 -0.0605 -0.1379
31421W        W47315   6.081   4.375  11.555  0.2306  0.1861 -0.1613
31422W        W47316   7.408   1.096   3.587 -0.2869 -0.0289  0.1364
31423W        W47317   1.212   7.132   3.502 -0.0241 -0.1212  0.0368
31424W        W47318   6.879   5.685  12.745 -0.1419 -0.0907 -0.2280
31425W        W47319   0.121  15.989  11.671  0.3841 -0.0560 -0.2634
31426W        W47320   8.556   4.267  11.730  0.0248 -0.3240 -0.0169
31427W        W47321   9.472  16.708  10.076 -0.0418  0.1009 -0.0031
31428W        W47322  12.823   2.767  11.270  0.0669 -0.0145  0.0573
31429W        W47323  16.489  11.377   1.741  0.1803 -0.0221  0.0762
31430W        W47324   2.803  12.924  11.995 -0.2088  0.2369 -0.0358
31431W        W47325  15.466  18.394  13.805 -0.1272  0.1273 -0.1302
31432W        W47326  15.971   0.135  11.003 -0.0050 -0.1309 -0.0809
31433W        W47327  16.425  11.118   4.572 -0.0363 -0.0499  0.0835
31434W        W47328  19.034  15.852  11.113  0.0485 -0.0539 -0.2803
31435W        W47329  10.455   8.796  12.270  0.0427 -0.0337  0.0124
31436W        W47330   7.093   1.157   0.479 -0.2263 -0.2743 -0.0978
31437W        W47331  15.207   6.012   2.908  0.0109  0.1579  0.1936
31438W        W47332   0.807   5.881   0.376 -0.0793 -0.1706 -0.0880
31439W        W47333  11.022  10.391  12.544  0.6713 -0.0401 -0.0097
31440W        W47334  11.321  17.891   2.347 -0.2609  0.0316 -0.1068
31441W        W47335   3.884   2.213   2.142 -0.1130 -0.2930 -0.0488
31442W        W47336   6.847  14.500   1.915  0.3936 -0.1130 -0.1349
31443W        W47337  17.575   3.959  12.698  0.2093 -0.2244  0.0632
31444W        W47338  16.995  14.955   5.539  0.0008  0.1678 -0.0030
31445W        W47339   9.266   8.393   2.822  0.0999 -0.1726  0.1499
31446W        W47340  13.484  17.496   0.085 -0.2118 -0.0177  0.0762
31447W        W47341   6.903   8.209  14.700 -0.3329  0.0157  0.1323
31448W        W47342   7.713   5.690   3.984  0.0495  0.0694  0.1644
31449W        W47343   2.928   2.110  14.111 -0.0640  0.2205  0.0910
31450W        W47344   9.348   8.464   3.697  0.0966 -0.0984 -0.0680
31451W        W47345   8.939  14.481  13.421 -0.1766 -0.2895  0.3586
31452W        W47346   5.356   5.386  12.271 -0.2000  0.4634 -0.0531
31453W        W47347   9.482   4.756   3.363 -0.3819  0.3407  0.2515
31454W        W47348  10.590  14.923  11.892 -0.1102 -0.1744  0.0384
31455W        W47349   7.221   2.544   2.403 -0.4247 -0.4422 -0.0368
31456W        W47350   9.324   9.772   2.108  0.0548  0.0530 -0.2845
31457W        W47351  16.316  14.787  14.758 -0.2136  0.1817  0.0487
31458W        W47352  13.810   4.668  13.085 -0.0841  0.0457  0.0460
31459W        W47353  15.849   2.012   1.416 -0.2928 -0.2452 -0.2896
31460W        W47354   9.796   2.839   3.688  0.1476 -0.1402 -0.0486
31461W        W47355   0.591   9.459   2.228 -0.0021 -0.0180 -0.1298
31462W        W47356  16.531   0.102  14.932  0.2032 -0.0111  0.0091
31463W        W47357   0.878   1.579  12.604 -0.2287 -0.0884  0.0752
31464W        W47358   7.378   4.277   3.005  0.0917  0.0048  0.0432
31465W        W47359  17.658   5.597   4.526 -0.1622 -0.4715  0.1599
31466W        W47360  16.702  18.190  10.660  0.4470  0.0300  0.2720
31467W        W47361  16.450   2.357   4.567 -0.0959 -0.0201  0.0078
31468W        W47362  14.831  15.106  12.618  0.3076 -0.1095 -0.0718
31469W        W47363   0.053   3.646  14.133 -0.0550 -0.0520  0.0856
31470W        W47364   5.478   0.091  15.070 -0.1684 -0.2936  0.1262
31471W        W47365  17.432   4.287   2.293 -0.1107  0.1608  0.0100
31472W        W47366   8.184   0.529  14.236  0.2200 -0.2492  0.0489
31473W        W47367   5.372  10.114   1.501  0.0171  0.0367  0.0350
31474W        W47368  13.449   2.244   3.298  0.0978 -0.1106 -0.1856
31475W        W47369  19.203  16.950  12.951 -0.1275  0.1328  0.4723
31476W        W47370  17.457   6.031   4.335  0.0786 -0.1475 -0.4121
31477W        W47371  11.019   8.246  14.557  0.0638  0.0941 -0.1158
31478W        W47372  18.879   5.768  12.809  0.1739 -0.1725 -0.0807
31479W        W47373  10.477   5.707  13.573  0.4763 -0.1196 -0.1924
31480W        W47374   8.730  13.161  15.006  0.1738  0.0319  0.0175
31481W        W47375  13.856  10.827   4.685 -0.1647 -0.1623 -0.0770
31482W        W47376   2.711   2.603  10.991 -0.1294 -0.1100 -0.0394
31483W        W47377   0.094   8.448   0.588 -0.0522 -0.3874  0.0604
31484W        W47378  17.977  15.176   1.065 -0.2412  0.0097  0.0334
31485W        W47379  14.000   2.126  12.475 -0.2809 -0.2321 -0.2362
31486W        W47380  11.797  14.333   3.098  0.1075  0.0126 -0.1549
31487W        W47381   1.322  13.969   1.644  0.0456 -0.2460 -0.2390
31488W        W47382  15.704  14.661   2.945  0.0885 -0.0527 -0.0771
31489W        W47383  12.181   6.421  12.815  0.0845 -0.1151  0.1024
31490W        W47384   4.264   9.767   4.644  0.0725  0.3325  0.1193
31491W        W47385   4.687  18.788   4.902  0.0852  0.0335 -0.0602
31492W        W47386   7.575   7.240   5.678  0.3258  0.0421 -0.2145
31493W        W47387  14.401  15.478   3.869 -0.0290  0.0415 -0.0219
31494W        W47388  16.394   5.571   1.731  0.2023  0.2910 -0.1997
31495W        W47389   0.945   4.833   0.297  0.1577  0.3455 -0.2234
31496W        W47390  12.995  10.524  10.279  0.0347  0.0600  0.1630
31497W        W47391   3.047   9.260   4.747  0.0441  0.3551 -0.1938
31498W        W47392  10.530  10.030  11.975  0.1483  0.3442 -0.0807
31499W        W47393  12.992   8.210  13.041  0.2339 -0.0365  0.0115
31500W        W47394  15.666   8.865  11.781  0.6733 -0.0291 -0.0993
31501W        W47395  15.937   8.319   1.469 -0.2965  0.0421 -0.1939
31502W        W47396   5.400   8.608  11.041  0.1162  0.0197  0.3430
31503W        W47397   0.360  15.030  13.768  0.0041 -0.3024  0.0246
31504W        W47398   7.384  13.359  13.706 -0.1190  0.1864 -0.1874
31505W        W47399   7.713  13.831  10.017  0.0330  0.1835 -0.0618
31506W        W47400   7.363   1.073  14.257 -0.1636 -0.0219  0.2938
31507W        W47401   7.204  17.676   2.085  0.1883 -0.0117  0.2217
31508W        W47402   5.043  14.044  11.898 -0.0807  0.0031  0.0935
31509W        W47403  13.799   9.545   3.723 -0.0451  0.1137 -0.0890
31510W        W47404   9.296   0.447  11.598  0.5975  0.1633 -0.2723
31511W        W47405  11.085   8.723   2.943  0.1504  0.1758  0.2513
31512W        W47406  17.145   7.497  13.572  0.3316  0.1874 -0.2062
31513W        W47407   7.708  11.292  14.992  0.1435  0.4421 -0.3597
31514W        W47408  17.597  18.130   3.889  0.1278  0.0936  0.1917
31515W        W47409  12.847  10.154   0.755  0.1891 -0.2296 -0.0775
31516W        W47410  15.904   6.023   2.202  0.2549  0.3056 -0.0361
31517W        W47411  18.576   8.477  12.191  0.0813  0.1031  0.2929
31518W        W47412   2.909   0.949   2.442 -0.0573  0.0214 -0.0544
31519W        W47413  12.909  17.755   2.259 -0.0587 -0.1901 -0.3175
31520W        W47414   0.081  11.247   2.544  0.1465  0.0506 -0.1919
31521W        W47415   6.384   4.652  11.206 -0.0797 -0.2431  0.0438
31522W        W47416   1.409   4.534   0.315 -0.2153 -0.3685  0.0705
31523W        W47417   5.316  13.122  10.958 -0.0083 -0.0323  0.2231
31524W        W47418  11.684   9.564   1.849 -0.0949 -0.3035 -0.1622
31525W        W47419  12.737   3.831   0.513  0.0256 -0.2851  0.3106
31526W        W47420  13.259   4.057   4.483  0.0158 -0.4017 -0.2272
31527W        W47421   5.763  17.943  10.245  0.1481 -0.1351 -0.1256
31528W        W47422   4.717   3.797   3.660 -0.1890 -0.2717  0.0056
31529W        W47423   5.313   5.895   3.750  0.0691  0.4058  0.1948
31530W        W47424   4.692  12.104  13.980  0.0255 -0.1551 -0.3440
31531W        W47425   7.300  14.056  14.837 -0.0055 -0.1475 -0.0537
31532W        W47426  17.597   0.585   2.617  0.0146 -0.0607  0.0156
31533W        W47427   4.131  11.617  12.097  0.2335 -0.0682 -0.1083
31534W        W47428  16.102   8.553   2.033  0.0569  0.0720  0.0697
31535W        W47429   5.311  14.292   1.094  0.3795  0.1247 -0.0767
31536W        W47430  15.939   5.087   3.709 -0.4061 -0.0727 -0.1599
31537W        W47431   9.917  14.812   5.057 -0.0328 -0.1252  0.1288
31538W        W47432  11.798   1.538  11.373  0.2220  0.0851 -0.0170
31539W        W47433  16.637   5.950  13.502 -0.0026 -0.0971  0.1045
31540W        W47434   4.232  18.112   3.074 -0.1680  0.0759 -0.0665
31541W        W47435   0.224   3.605   6.232  0.0374  0.0530 -0.2026
31542W        W47436   9.819  11.501  13.610 -0.0360  0.0006  0.0162
31543W        W47437   5.357  14.740   0.974 -0.0551  0.1894 -0.1638
31544W        W47438   2.527  10.663   2.554 -0.2085  0.1394  0.2684
31545W        W47439  14.724   7.414  12.582  0.1477 -0.2432 -0.1322
31546W        W47440  14.224   2.397   1.270 -0.0074 -0.1346 -0.1979
31547W        W47441   6.203   9.759  12.474  0.2431  0.1528  0.2286
31548W        W47442   4.051  17.785  14.387  0.2014  0.0060 -0.1618
31549W        W47443  18.104   6.424   5.257 -0.0591  0.2893  0.0821
31550W        W47444  10.492  11.342   0.617 -0.2604 -0.2290 -0.1636
31551W        W47445   1.681   2.552   0.028 -0.1831 -0.0750 -0.0954
31552W        W47446   6.335  13.257  11.431 -0.0176 -0.0803 -0.0958
31553W        W47447  11.208  10.308   1.464  0.0412 -0.2169  0.0433
31554W        W47448   7.035  12.641  10.507 -0.0803 -0.1073 -0.0416
31555W        W47449   3.108   0.369   1.823 -0.2682 -0.3040 -0.5383
31556W        W47450   0.629  12.808   4.977  0.0409 -0.1419  0.0921
31557W        W47451   8.447  14.674   0.028  0.3055  0.3041  0.0042
31558W        W47452  18.618  11.507   2.351  0.1941  0.2239  0.0461
31559W        W47453   8.910   5.163  12.208  0.0799 -0.0221  0.0336
31560W        W47454   8.628  13.884   0.077  0.2206  0.1935 -0.2410
31561W        W47455   4.681   0.710  11.715 -0.0055 -0.2718 -0.0410
31562W        W47456  12.269   3.679   0.368 -0.1673  0.2875  0.1016
31563W        W47457   0.072  14.035   3.069  0.3986  0.1387  0.1861
31564W        W47458   3.184   0.921  14.747  0.1530 -0.3120  0.0095
31565W        W47459  10.220  17.939  12.560  0.2589  0.1966  0.1224
31566W        W47460   9.745  15.960  11.578 -0.0276 -0.3175 -0.0360
31567W        W47461  10.335  16.778   0.607  0.2995 -0.1765 -0.4678
31568W        W47462   8.963   9.859  11.383  0.1252 -0.0541  0.5076
31569W        W47463   9.055   7.854  14.927  0.1731  0.1539 -0.2212
31570W        W47464   9.018  15.185  13.064  0.1291 -0.2686  0.1398
31571W        W47465   2.904  13.293  12.421  0.1220  0.1482 -0.1779
31572W        W47466   0.062  18.373  14.667 -0.2699  0.1198 -0.0358
31573W        W47467   4.204  17.393   4.310 -0.0270  0.0824 -0.0639
31574W        W47468   1.857   7.773   4.689 -0.0768  0.1854  0.2998
31575W        W47469   5.324  13.198   2.599 -0.0082 -0.2757 -0.0094
31576W        W47470  15.251   4.360   1.356  0.2310  0.0067  0.0474
31577W        W47471  17.793  16.744   0.997 -0.0698 -0.2552  0.3266
31578W        W47472  10.899   6.356   1.286 -0.2088 -0.1229  0.0579
31579W        W47473  17.282   5.741  13.665 -0.1178  0.1885 -0.4713
31580W        W47474   2.750  15.233  10.579 -0.0071  0.0352 -0.0053
31581W        W47475  11.643  12.107  12.750  0.2529 -0.2422 -0.0725
31582W        W47476   7.568   5.599   0.611  0.1587  0.4023  0.2534
31583W        W47477   6.057   6.887  11.616  0.0594  0.3151 -0.2510
31584W        W47478   4.004   7.001  13.758  0.2401 -0.0218 -0.0498
31585W        W47479   5.428  16.615   2.197  0.1091 -0.4232 -0.2112
31586W        W47480   8.012  11.142   4.473  0.1140  0.1886  0.1817
31587W        W47481  11.300  10.901  12.403  0.2684 -0.0773  0.2572
31588W        W47482  11.766  16.708  13.804  0.0137 -0.2006 -0.2899
31589W        W47483   2.982   7.850   6.114 -0.3576  0.1045  0.3049
31590W        W47484   4.393  16.180  11.222  0.0101 -0.0418 -0.0336
31591W        W47485   9.138  15.385  12.102 -0.2856 -0.0668  0.0259
31592W        W47486   9.312  19.016  12.298 -0.0749  0.0080  0.2601
31593W        W47487   9.239   2.801   1.106  0.1607  0.2481 -0.6952
31594W        W47488  14.688   9.474   0.844 -0.1083 -0.0517 -0.1206
31595W        W47489   0.813   6.059   4.025 -0.0327  0.1463  0.3065
31596W        W47490   2.681   7.835   5.693  0.0639 -0.1452  0.0199
31597W        W47491   5.514  18.076   0.788 -0.4351  0.1711 -0.4530
31598W        W47492   6.606  16.828   2.806 -0.0498  0.4226 -0.2256
31599W        W47493   2.961  11.017   3.916  0.2853  0.2551 -0.0072
31600W        W47494   3.061   5.086  12.468  0.2798 -0.0825  0.2358
31601W        W47495  17.022  10.676   2.090  0.1507  0.1402  0.0677
31602W        W47496  16.793   1.078  12.779 -0.1543 -0.2300 -0.0653
31603W        W47497  12.469  18.589   0.860 -0.0566 -0.1016  0.2171
31604W        W47498  17.771  18.237  12.359  0.0340 -0.0184 -0.0373
31605W        W47499  16.004   4.208   0.277  0.0997 -0.3327 -0.0774
31606W        W47500  11.343  13.718  10.836 -0.2229  0.0586 -0.0708
31607W        W47501  17.297   1.774   1.601 -0.1908  0.0317  0.0432
31608W        W47502  13.589   5.017  14.642  0.0838 -0.1368 -0.0334
31609W        W47503  10.234  10.676   9.208 -0.1070 -0.0664  0.1210
31610W        W47504   4.364  13.442   3.392  0.0623  0.0814 -0.2125
31611W        W47505   8.981   7.397   2.924  0.0797  0.2044 -0.1684
31612W        W47506  18.133  12.514   3.610  0.5522  0.2624  0.3936
31613W        W47507  12.456   0.891   2.862 -0.3788  0.0139 -0.3851
31614W        W47508  14.438  19.032   5.116 -0.1122 -0.0235 -0.2626
31615W        W47509  14.245   3.591   4.989  0.0545  0.0175 -0.4687
31616W        W47510   9.901   2.897   3.165  0.0966  0.1557  0.1246
31617W        W47511  11.051  14.734  13.603 -0.1317  0.0110  0.0707
31618W        W47512   4.544  15.783   3.397 -0.0506  0.1229  0.0201
31619W        W47513  13.485   1.795  12.406 -0.0275  0.1878  0.0211
31620W        W47514  16.251  16.507  13.199 -0.1943 -0.1708  0.0413
31621W        W47515   5.051  18.462  14.552  0.0868 -0.0967  0.0798
31622W        W47516  14.599   8.110  11.349  0.0932  0.3185 -0.1398
31623W        W47517   6.826   2.656  13.618  0.2779 -0.0152  0.0448
31624W        W47518   7.594   8.387  14.310 -0.2525  0.1588  0.0962
31625W        W47519  14.280  13.018   4.214 -0.1947  0.2424 -0.0813
31626W        W47520   8.346   1.806  12.026  0.0491  0.0935 -0.0395
31627W        W47521  15.848  10.569   3.491 -0.0900  0.0950  0.2418
31628W        W47522   2.660  14.435  11.864  0.1474  0.0791  0.0786
31629W        W47523  17.000   2.881   4.199 -0.0288  0.2638 -0.4603
31630W        W47524   2.356   8.591  14.199  0.1443  0.3793 -0.1104
31631W        W47525   6.363  15.064   3.764  0.0922  0.1987 -0.2352
31632W        W47526  15.407  17.843  10.503  0.1394 -0.1043 -0.1338
31633W        W47527  16.950   8.079  10.991 -0.0123  0.1366  0.4735
31634W        W47528  15.265  11.649  13.604  0.1431 -0.2759  0.0419
31635W        W47529   3.994   7.656  11.760  0.1310  0.1786 -0.2399
31636W        W47530  10.294  16.915   4.226 -0.1044  0.1630  0.2400
31637W        W47531  15.053  12.568  10.453 -0.1280  0.1852 -0.1040
31638W        W47532   2.730  17.157  14.815  0.1571 -0.0486  0.0991
31639W        W47533   5.039  10.140   5.388  0.0864 -0.0496 -0.0424
31640W        W47534  11.352  19.011   3.382  0.0823  0.0707 -0.0435
31641W        W47535   2.275  19.185   5.241 -0.1032 -0.0019 -0.1929
31642W        W47536  13.066  10.597  14.916 -0.0156  0.0284  0.1689
31643W        W47537  11.501  12.345   0.563 -0.1243 -0.3758  0.0194
31644W        W47538  17.533   3.545   3.897  0.0176  0.1586 -0.3585
31645W        W47539  15.607  10.480  13.099  0.2201  0.1692  0.1696
31646W        W47540   2.110   8.216  14.572  0.0179 -0.0720  0.1512
31647W        W47541   1.896  17.802   3.052  0.0692  0.3471  0.0766
31648W        W47542  17.832   7.734  14.311 -0.2657 -0.2406 -0.2994
31649W        W47543  14.873  18.708   2.738  0.2937  0.1179 -0.2699
31650W        W47544  16.460   9.079   2.025 -0.0853 -0.0019  0.4531
31651W        W47545  15.747   8.639  12.289 -0.2858  0.3654  0.0731
31652W        W47546   4.003   6.440   0.672  0.1099  0.1694 -0.2007
31653W        W47547   3.343   8.578  13.541  0.1452  0.2612  0.0054
31654W        W47548   5.946  11.829  11.510  0.1820  0.2063  0.0678
31655W        W47549  18.002  16.899   2.918 -0.2671 -0.1877  0.0067
31656W        W47550  11.175  18.767   0.139  0.1624  0.0142 -0.1603
31657W        W47551   9.979   2.087  14.605 -0.1541  0.2840 -0.0685
31658W        W47552  16.744  12.488  12.040 -0.0578 -0.0465 -0.0908
31659W        W47553   1.402  16.979  14.037  0.1534  0.1853 -0.3911
31660W        W47554  12.946   2.192   1.075 -0.0053  0.0486 -0.0697
31661W        W47555   6.375   4.906  13.673  0.2330  0.0028  0.0704
31662W        W47556  16.312  16.245  10.055  0.3374 -0.1611 -0.0344
31663W        W47557   7.812   2.154  10.897  0.0740  0.0428  0.3400
31664W        W47558  14.499   1.418   4.279  0.2440 -0.2912 -0.0747
31665W        W47559   0.581   5.429   0.393  0.1573  0.1210  0.0905
31666W        W47560   6.972   3.453   1.531  0.3682  0.0669  0.0598
31667W        W47561  18.386  18.844   4.058  0.0789  0.1260  0.0588
31668W        W47562  12.525  13.112   4.290 -0.1584 -0.2762  0.1829
31669W        W47563  13.569  18.086   4.399  0.2160  0.1208  0.3939
31670W        W47564  14.751  18.392  10.622 -0.1822  0.0124  0.2426
31671W        W47565   6.989   1.411  14.597 -0.0813 -0.1275  0.0295
31672W        W47566   0.481  14.753   5.335 -0.0489  0.2153  0.1879
31673W        W47567   0.488  14.616  10.892 -0.1481  0.3055  0.2095
31674W        W47568   6.730  16.058  11.909 -0.4929 -0.3716  0.1553
31675W        W47569   0.912  11.563   0.180  0.0529 -0.1172  0.3053
31676W        W47570   5.930  18.173  11.666  0.3571  0.0246  0.2063
31677W        W47571  14.092   1.240   5.027  0.1798 -0.0494 -0.0321
31678W        W47572  13.168  15.284  12.851  0.3267  0.0199  0.3514
31679W        W47573   5.759  16.496  13.050 -0.4992 -0.4306  0.3753
31680W        W47574   0.468   3.365   1.679 -0.0388 -0.0113 -0.0983
31681W        W47575  17.940   4.143   2.182  0.0179  0.2206 -0.0842
31682W        W47576  14.360  15.596  11.491  0.0824 -0.2443  0.0300
31683W        W47577   7.188   1.230  10.931  0.0755  0.1534 -0.2100
31684W        W47578  16.263  12.533   4.152 -0.1097  0.1481 -0.1160
31685W        W47579  18.198  16.055  13.231  0.1743 -0.0914 -0.1524
31686W        W47580  14.017  10.051   4.970  0.0482 -0.1028  0.1780
31687W        W47581   9.455   2.171   5.692  0.0743 -0.2241  0.1375
31688W        W47582   4.479  16.181  12.888 -0.0753  0.0226  0.1221
31689W        W47583   9.379  10.545   3.869 -0.1278  0.0813 -0.0564
31690W        W47584  11.567  18.859   4.874  0.5075 -0.1792  0.0853
31691W        W47585   4.159  14.111   1.808  0.2990 -0.0884 -0.0035
31692W        W47586  12.793  10.429  14.011  0.6368  0.0649 -0.1020
31693W        W47587  17.251   1.816   0.585 -0.2879 -0.0638  0.0561
31694W        W47588  11.847   0.107   0.639  0.1387  0.0490  0.1511
31695W        W47589   8.286   2.181   5.847 -0.2118 -0.0659  0.0007
31696W        W47590   8.294  13.720   3.282  0.0920  0.3905 -0.0462
31697W        W47591   6.052  15.733  10.966  0.3326  0.0690  0.0949
31698W        W47592  15.238  16.374   1.074 -0.3086  0.3283 -0.1801
31699W        W47593   3.799   4.208   3.455 -0.0581  0.1849  0.1721
31700W        W47594  11.055  17.346   3.952  0.0685 -0.0213  0.0280
31701W        W47595  16.887   8.638  14.158 -0.2339 -0.3307 -0.0438
31702W        W47596  15.017  11.550   4.589 -0.2759  0.2949  0.0022
31703W        W47597  14.174   3.735  11.482 -0.0304 -0.3093  0.0421
31704W        W47598   4.192  10.959  13.205 -0.3420  0.4305 -0.1697
31705W        W47599   4.196   7.911   2.482  0.0196  0.2241  0.0029
31706W        W47600   7.496  10.185   1.542  0.2092  0.1359  0.0576
31707W        W47601   9.491  16.319   0.848 -0.0372 -0.1389 -0.1982
31708W        W47602   7.692  17.996   1.028  0.0259  0.0359  0.0615
31709W        W47603  10.147  17.910   1.984  0.1627 -0.0935 -0.1319
31710W        W47604  10.363   0.713   1.981 -0.0022  0.0795 -0.1230
31711W        W47605   3.182   0.768  13.830  0.0737 -0.0147 -0.1396
31712W        W47606   5.314  15.482   1.704  0.3417  0.1564  0.0551
31713W        W47607  10.274   0.208   2.814  0.0173  0.0205 -0.1472
31714W        W47608  12.641   1.981   3.760 -0.1950  0.2574  0.2390
31715W        W47609   1.653   2.694   4.036 -0.0803  0.0571 -0.1928
31716W        W47610   8.958   1.058  11.052  0.0382  0.4691 -0.0894
31717W        W47611   2.185  12.791  13.182  0.1482 -0.0856  0.2859
31718W        W47612   4.308  16.361   0.690 -0.2771 -0.4027  0.1424
31719W        W47613  10.457   3.705  11.726 -0.1953  0.1071 -0.0428
31720W        W47614  10.710   9.846   2.148  0.1624  0.0091 -0.1781
31721W        W47615   0.691  10.544   4.293 -0.1463  0.0783 -0.0093
31722W        W47616   7.123   3.985  13.000 -0.0013 -0.3121  0.0156
31723W        W47617   7.074  17.841  15.057 -0.1486  0.3039 -0.0740
31724W        W47618  15.435  14.567  14.354 -0.0516  0.0538  0.3099
31725W        W47619   7.402   9.084  14.653 -0.1141  0.2526  0.0204
31726W        W47620   5.328  14.529  12.889  0.1735 -0.1796  0.4482
31727W        W47621  10.511  10.163   5.092  0.1087 -0.0725 -0.2296
31728W        W47622   0.483   9.914   2.503 -0.3878  0.0679  0.0737
31729W        W47623   7.322   1.797  11.607  0.0732  0.1474 -0.0698
31730W        W47624   6.337   4.634   3.646 -0.2872  0.3571 -0.3052
31731W        W47625   8.234   1.415  10.354  0.1848 -0.1990 -0.0205
31732W        W47626   0.618   2.393   4.621 -0.0298 -0.2922 -0.1376
31733W        W47627   6.808   2.395   5.333  0.1720  0.2657  0.2082
31734W        W47628   8.494  13.801  13.896 -0.1311 -0.2831 -0.3923
31735W        W47629  15.439   6.088   2.286  0.2117 -0.2867 -0.1095
31736W        W47630   5.715   2.411   3.202 -0.0908  0.1186  0.0286
31737W        W47631  10.638   3.129   5.328  0.3029 -0.1153  0.3345
31738W        W47632   6.276   3.261  12.530 -0.1545  0.0612  0.0336
31739W        W47633   8.814   0.298  14.292  0.0585 -0.2280  0.1164
31740W        W47634   1.948  18.384   3.608 -0.1120  0.1375 -0.0078
31741W        W47635   8.183   5.999  14.276  0.2925 -0.2061  0.0546
31742W        W47636   3.852   6.909   5.828  0.0903  0.3104  0.1338
31743W        W47637  14.531  14.882   0.027  0.0944  0.0656 -0.0693
31744W        W47638   2.559  10.126   2.141 -0.0581 -0.1093 -0.1594
31745W        W47639   9.252   6.291   0.930 -0.0529  0.3340 -0.1609
31746W        W47640   9.885  12.599   5.083 -0.1787  0.4853 -0.0222
31747W        W47641  12.547  17.345   1.686 -0.0807  0.1782  0.2158
31748W        W47642   8.593   7.652  13.437  0.0721 -0.1039 -0.1749
31749W        W47643   6.862  18.878   1.733  0.1713 -0.4536 -0.1481
31750W        W47644   4.678   2.855   3.057 -0.5091  0.1807 -0.3790
31751W        W47645  14.459   8.212   4.559 -0.2259 -0.0779  0.2339
31752W        W47646  12.955   3.366  12.287  0.3900  0.1287  0.0932
31753W        W47647  15.691  14.234   1.144 -0.3289 -0.3344  0.0603
31754W        W47648   8.870   6.714  10.310 -0.1307  0.1268  0.4695
31755W        W47649   1.815   0.198   5.341 -0.0484  0.2190 -0.1233
31756W        W47650   2.924   3.615  14.192 -0.0371 -0.0083 -0.0333
31757W        W47651  12.175   1.261   1.772 -0.2088  0.0928  0.1629
31758W        W47652  17.962  16.404  11.704 -0.0756 -0.1389 -0.1869
31759W        W47653  13.180   2.983  10.825  0.0076 -0.1140 -0.0881
31760W        W47654  16.489   8.235   2.952  0.0928 -0.0711 -0.0206
31761W        W47655   3.687   0.710  14.205 -0.1447 -0.1286 -0.5260
31762W        W47656   9.243   6.959  12.730 -0.0402  0.3566  0.1560
31763W        W47657  17.184   0.440  13.676  0.0346  0.3002 -0.2747
31764W        W47658   5.409   6.673  12.360  0.0447 -0.0818 -0.0754
31765W        W47659   7.863  17.528   1.097  0.0758  0.2652  0.1448
31766W        W47660   5.278  15.677   1.004  0.0479 -0.0112  0.1969
31767W        W47661   0.180  10.760   2.740  0.1987 -0.0676  0.1425
31768W        W47662   6.805  13.926   3.318 -0.0915  0.0197  0.0025
31769W        W47663   7.074  19.037  12.645  0.0410 -0.0313  0.3219
31770W        W47664  18.748  14.998   4.019 -0.2188  0.0404  0.1288
31771W        W47665  11.546  13.059   2.643 -0.0932 -0.1656  0.2559
31772W        W47666   0.944   8.079   5.058 -0.2841 -0.0093 -0.2738
31773W        W47667  10.608  12.554   2.546  0.2919 -0.1948 -0.3903
31774W        W47668   2.773  16.017   3.559 -0.2455  0.4932  0.0211
31775W        W47669   8.005   6.304  14.627  0.1317 -0.1383 -0.0813
31776W        W47670   0.277   1.242  13.821 -0.3090 -0.0063 -0.1343
31777W        W47671   3.669  11.535   4.663  0.0169  0.0961  0.0655
31778W        W47672   9.944   8.295  12.173 -0.0733 -0.2432 -0.1293
31779W        W47673   3.687   3.673   5.152 -0.3021 -0.1538 -0.1785
31780W        W47674  12.035  16.177   5.147  0.3517 -0.2290 -0.3474
31781W        W47675  17.662  14.224   0.116  0.2008 -0.0233 -0.1666
31782W        W47676   8.171   8.234  11.343  0.2797 -0.4049 -0.0446
31783W        W47677   8.531   9.941   3.300  0.3373  0.3902  0.6342
31784W        W47678   4.371  17.073   2.933  0.1598 -0.2151 -0.1438
31785W        W47679   2.431  19.113  10.011 -0.3721  0.0312 -0.0558
31786W        W47680  17.041   1.563  13.822  0.0441 -0.2453  0.3561
31787W        W47681  17.087  10.500  10.134  0.1007 -0.3316  0.2634
31788W        W47682   6.357  14.211   0.580 -0.2723 -0.0150  0.1950
31789W        W47683   7.030   7.770   0.972 -0.2776 -0.1363  0.0437
31790W        W47684  10.806   7.848  11.910 -0.0480 -0.1813  0.1985
31791W        W47685   0.774   5.738   1.734  0.1864 -0.0849 -0.1274
31792W        W47686   6.362   5.060   1.087  0.6611 -0.0173 -0.3141
31793W        W47687  10.201  13.998  12.026  0.2364  0.3501  0.2557
31794W        W47688  10.566  11.178   2.232  0.2223 -0.0414 -0.1189
31795W        W47689  16.943  13.259  13.553 -0.2586  0.3280 -0.4118
31796W        W47690   2.661   9.364   1.600  0.4223  0.1050 -0.0769
31797W        W47691  15.113  12.942   1.878 -0.1950 -0.6620  0.1309
31798W        W47692  17.047   4.214   3.733  0.1670 -0.2978 -0.0491
31799W        W47693   9.715  11.444   2.314 -0.0489  0.2350  0.1705
31800W        W47694   9.595   4.143  10.831 -0.2128  0.1148  0.0917
31801W        W47695  17.344   2.068  13.715 -0.0136 -0.1322  0.0413
31802W        W47696   1.359  11.898  10.814  0.1731 -0.0747 -0.0657
31803W        W47697  10.155  17.378   0.369  0.1973  0.0773  0.2298
31804W        W47698  17.404   5.808   3.092 -0.1129 -0.0409  0.1568
31805W        W47699  14.396  15.492   3.378  0.0670 -0.0434 -0.3284
31806W        W47700  11.736  10.857  12.179  0.0792  0.2780 -0.0105
31807W        W47701   6.134   9.983  14.508 -0.2704 -0.2250 -0.0785
31808W        W47702  13.618   9.945   4.357  0.1719  0.2112 -0.0205
31809W        W47703  14.288  13.098  14.555  0.1373  0.0941 -0.0879
31810W        W47704   9.203  11.366   2.246 -0.1139 -0.0250 -0.0218
31811W        W47705  11.462  17.669  11.625  0.2618 -0.1293 -0.1097
31812W        W47706  12.505  14.798   2.749 -0.2470 -0.2108 -0.0475
31813W        W47707  15.750   1.314  10.924  0.0537  0.2546  0.1135
31814W        W47708  16.717  11.194  12.117  0.1186  0.1262 -0.2107
31815W        W47709   8.136   9.859  10.527 -0.0537 -0.1541  0.2225
31816W        W47710  12.358  15.067  11.471  0.2767  0.0765  0.0265
31817W        W47711  18.481   3.455   2.437  0.0113  0.2257  0.0767
31818W        W47712  13.753  18.809   0.973 -0.0213  0.1755 -0.0052
31819W        W47713   3.365   1.953  14.819 -0.0096 -0.0169  0.1522
31820W        W47714   8.697  16.315  12.521  0.0099  0.1624  0.0794
31821W        W47715  13.229   0.446   3.254 -0.1748 -0.2372 -0.1413
31822W        W47716  15.041  17.517  14.371 -0.0950  0.0355 -0.2115
31823W        W47717  10.892   7.155   1.066  0.4153  0.2016  0.0187
31824W        W47718   7.768  13.707   2.526  0.0222  0.2062  0.1918
31825W        W47719  11.778   0.074  10.339 -0.0457  0.2935  0.0208
31826W        W47720  17.999   7.628  13.179  0.1389  0.1796 -0.0491
31827W        W47721   2.659   1.586  10.675  0.1552  0.3897  0.2837
31828W        W47722  16.725  17.741   0.742 -0.2905  0.0419  0.1135
31829W        W47723   4.882  10.845   2.170  0.1901  0.2446  0.0094
31830W        W47724  13.019  12.304   2.199 -0.1589 -0.0891  0.0793
31831W        W47725   8.145   0.719  11.288  0.0652  0.0309  0.4792
31832W        W47726   2.907   4.261   4.478 -0.1044  0.2556  0.3134
31833W        W47727   8.134  14.928  13.194  0.1609  0.0503 -0.2377
31834W        W47728  17.919   4.108  14.006  0.2189 -0.1401  0.1655
31835W        W47729   2.707   7.258   4.602 -0.0284 -0.0601  0.3009
31836W        W47730   0.575  16.292   1.919  0.0871  0.2062  0.0461
31837W        W47731  15.858  10.247  10.739 -0.2481  0.2136 -0.0241
31838W        W47732  10.833   8.680  12.627 -0.3077  0.1849  0.2796
31839W        W47733  11.506  10.913  14.831 -0.0572 -0.1003  0.2577
31840W        W47734   8.305   2.756   0.303 -0.1016 -0.0798 -0.0852
31841W        W47735   3.616  15.993  12.003  0.1750  0.0022 -0.2073
31842W        W47736   1.411  10.701  10.413  0.2431  0.0695  0.0113
31843W        W47737   0.473  12.072   4.330 -0.1593 -0.1423 -0.3150
31844W        W47738   5.847   4.649   3.574 -0.0696 -0.3779 -0.0757
31845W        W47739  12.437  15.183   2.466 -0.1226  0.1614 -0.1609
31846W        W47740   6.125   5.972   4.065 -0.2983 -0.1945  0.0477
31847W        W47741  11.746   3.554   1.399  0.0927 -0.2826 -0.1730
31848W        W47742  10.322   0.352   2.358  0.1233 -0.0153  0.4393
31849W        W47743  14.064  14.530  12.986  0.0714  0.0167 -0.0722
31850W        W47744  11.081  18.333  14.711 -0.0197  0.2411  0.1029
31851W        W47745  17.209  14.419  11.012  0.5551  0.2504  0.1325
31852W        W47746  12.703   8.385   2.742 -0.2675  0.1136 -0.0652
31853W        W47747   4.554  19.000  13.824  0.0534  0.1023  0.2619
31854W        W47748  14.513  17.886   0.448 -0.1695  0.0322  0.0438
31855W        W47749   5.652   7.516   2.021 -0.1506 -0.0327  0.0941
31856W        W47750   4.578  11.054   1.285  0.0093  0.3205 -0.2331
31857W        W47751  12.783  14.494   1.923 -0.3790 -0.0888  0.1310
31858W        W47752  16.877  12.775  13.393 -0.0539 -0.0706 -0.0495
31859W        W47753   3.859   3.608  12.400  0.2122 -0.2311 -0.1145
31860W        W47754  13.827  10.658   0.947 -0.1655  0.0630  0.0156
31861W        W47755   0.995  17.247  12.153 -0.1483 -0.5251  0.3769
31862W        W47756  17.733  16.897  11.541 -0.2902 -0.2910 -0.0403
31863W        W47757   4.213   0.442  11.615 -0.2748 -0.0646 -0.1413
31864W        W47758  17.098  12.230   4.638  0.0746  0.2644  0.5634
31865W        W47759  16.593   6.650   2.225 -0.0402  0.1481  0.3109
31866W        W47760   8.029   3.519   0.570 -0.2806 -0.0647  0.0151
31867W        W47761  17.700  18.163  14.432 -0.0516  0.1875 -0.1750
31868W        W47762  17.456  11.681   3.390 -0.1883  0.0818  0.0182
31869W        W47763   2.075   8.189   0.269 -0.0905 -0.1945  0.1025
31870W        W47764   9.000  14.225  12.659  0.3172  0.3048 -0.0350
31871W        W47765  17.874  13.004  10.931  0.4488 -0.0984 -0.3762
31872W        W47766   2.206  10.265   2.522  0.1278  0.0580 -0.0621
31873W        W47767   2.232   6.064  11.374  0.2513  0.2975  0.0141
31874W        W47768   9.719  11.876   3.961 -0.4527 -0.2851  0.0623
31875W        W47769   6.289   6.411  12.927  0.0790 -0.1477 -0.1669
31876W        W47770   3.961   2.471   4.351 -0.1347 -0.2053 -0.0394
31877W        W47771  15.460   5.083  14.234 -0.3576  0.0212  0.2096
31878W        W47772   6.920   0.490   5.625  0.1736 -0.0575 -0.1286
31879W        W47773  12.443   1.357  12.051 -0.6187  0.1566 -0.0293
31880W        W47774  10.542   5.266   4.811  0.1311  0.2798 -0.0275
31881W        W47775   3.520   7.127  13.688  0.0147  0.4539 -0.1343
31882W        W47776   1.552  18.170  11.882  0.1215 -0.0339 -0.5880
31883W        W47777  17.595  13.842  14.789 -0.0668 -0.2690 -0.1698
31884W        W47778  19.078   2.457   4.837 -0.2918  0.2260  0.1608
31885W        W47779  17.815  18.917   4.085 -0.0882 -0.2448 -0.1490
31886W        W47780   8.757   9.330   1.216  0.1689  0.2713  0.0028
31887W        W47781   0.849  14.976  10.992 -0.1158 -0.0257 -0.1244
31888W        W47782   3.356  11.577   1.116  0.2250  0.2069 -0.0373
31889W        W47783  18.668   2.937   2.447  0.0093 -0.3782 -0.0716
31890W        W47784  13.682   0.660   3.341 -0.0283  0.2509 -0.0564
31891W        W47785   6.730   3.554  13.400  0.3009  0.2758  0.3104
31892W        W47786  18.529   3.456   3.771  0.1165  0.0023 -0.0877
31893W        W47787   8.886   4.033   0.991 -0.1581 -0.0452  0.2305
31894W        W47788   5.120  10.365  12.878  0.2778  0.2334 -0.4761
31895W        W47789   2.699  16.958   5.074 -0.2498  0.3139  0.0655
31896W        W47790   6.888  17.291   2.039 -0.0031  0.1128 -0.0305
31897W        W47791  18.550  16.863   0.305  0.0019 -0.0870  0.0844
31898W        W47792   2.165   7.184   0.024  0.0103 -0.0782  0.1027
31899W        W47793   3.993  10.938   1.857  0.2783 -0.1799 -0.2224
31900W        W47794   1.053  12.278  11.452 -0.3273  0.2059  0.1213
31901W        W47795  18.937   6.821   3.937  0.0434  0.1642 -0.1222
31902W        W47796  15.946  10.781  10.270 -0.2167  0.0392  0.1639
31903W        W47797  12.650   3.393  13.713  0.0262  0.0021  0.3803
31904W        W47798   0.910   7.035  12.004  0.0441  0.2730  0.1546
31905W        W47799  10.611  12.542  14.889  0.2437 -0.0577 -0.1165
31906W        W47800   1.868   7.349   4.429 -0.0978 -0.2424  0.1584
31907W        W47801  17.113  18.423  10.976 -0.1872  0.2261 -0.0003
31908W        W47802  19.051   5.242  12.560 -0.1159 -0.3738 -0.1501
31909W        W47803  14.062   6.558  11.802 -0.4362 -0.2013  0.0543
31910W        W47804  11.632  14.556  15.034 -0.0086 -0.4201  0.0864
31911W        W47805  10.799   4.531  12.785  0.3961 -0.2195  0.0272
31912W        W47806  17.161   5.733  11.380 -0.0221 -0.0219 -0.1782
31913W        W47807  14.188  18.401  11.311 -0.0130  0.1259 -0.2942
31914W        W47808   1.059   7.253   5.035  0.2383  0.0453  0.0729
31915W        W47809  12.770  11.588  12.975  0.0709 -0.2029 -0.2206
31916W        W47810  19.203  12.247   1.493  0.2501 -0.1619 -0.0173
31917W        W47811  17.427   9.042  13.214 -0.0763 -0.1806 -0.2119
31918W        W47812   8.034   1.931  14.174 -0.2595  0.1248 -0.2036
31919W        W47813  15.722  11.852   2.157 -0.0109  0.0933 -0.4491
31920W        W47814   8.648   9.973  12.582 -0.1363 -0.1040 -0.0245
31921W        W47815  14.255  14.794   4.553  0.0441 -0.3181  0.1630
31922W        W47816  16.110  14.253   9.984  0.0080  0.2519 -0.2619
31923W        W47817  13.493  17.926   4.880  0.2317  0.0144  0.0551
31924W        W47818  16.685   0.753  11.816  0.0844  0.2029 -0.0453
31925W        W47819   9.780  17.111   2.431  0.0541 -0.0198 -0.3297
31926W        W47820   7.922  17.512   4.003  0.0001 -0.0551 -0.1515
31927W        W47821  18.092  13.214  12.760  0.0379 -0.3372  0.3321
31928W        W47822   0.702   4.588   1.441  0.0761  0.0063 -0.0371
31929W        W47823   4.154  15.200   3.790  0.0179 -0.2249  0.0694
31930W        W47824   1.226  12.754   0.798  0.0433 -0.0259  0.0710
31931W        W47825  11.092  15.477   9.165 -0.1148 -0.1542 -0.1406
31932W        W47826  16.523  13.403  13.012 -0.0058 -0.5993  0.0310
31933W        W47827   2.972   6.530   2.795  0.1870 -0.4075 -0.1365
31934W        W47828   8.356  12.214   1.057  0.3170 -0.0365  0.1372
31935W        W47829  11.418   4.729   0.137  0.0169 -0.0458 -0.0638
31936W        W47830   2.350   6.660  11.376  0.1403 -0.1156 -0.2455
31937W        W47831   0.099   6.762  12.995 -0.2376 -0.1146 -0.2938
31938W        W47832  18.865   1.372   4.303  0.0929  0.0902  0.0625
31939W        W47833  15.134   0.894  14.355 -0.2449  0.1718 -0.0420
31940W        W47834  17.110  15.343  12.922  0.0206  0.1457 -0.1727
31941W        W47835  16.348   0.950  14.918 -0.0942 -0.1461 -0.4035
31942W        W47836   2.912   9.682   5.024 -0.2395  0.0516 -0.0829
31943W        W47837  15.644   6.213  12.861  0.2266 -0.4161  0.0379
31944W        W47838   8.625   6.474   1.624  0.0615  0.0899 -0.1280
31945W        W47839   3.450  16.825  12.274 -0.2062 -0.0786  0.0507
31946W        W47840  16.722  18.045  14.169 -0.0414  0.3421  0.0693
31947W        W47841   4.930   3.687  12.258 -0.0458 -0.2761  0.0732
31948W        W47842  12.496  12.901   4.840  0.2804 -0.2500 -0.0141
31949W        W47843   5.548   9.873   4.408 -0.2062  0.1538 -0.0421
31950W        W47844  15.132  10.501  14.007 -0.0893 -0.1934  0.2468
31951W        W47845  15.664   5.147   3.202 -0.0375  0.1592 -0.1561
31952W        W47846   4.515  17.817  14.469 -0.0021  0.0305 -0.2983
31953W        W47847   0.286   7.643  13.316  0.1901 -0.3574  0.6389
31954W        W47848   4.476  17.580  12.731 -0.1291  0.1179 -0.0527
31955W        W47849  13.338   5.724   0.800  0.2638  0.2121  0.1332
31956W        W47850   5.821   8.778   5.491  0.0439 -0.2403 -0.1903
31957W        W47851  15.348  18.050   2.170 -0.0230 -0.0335  0.4117
31958W        W47852  13.912  15.406   2.195 -0.0440 -0.1352 -0.3155
31959W        W47853  14.755   8.043   4.021  0.0285  0.2656 -0.1164
31960W        W47854  11.363   4.349   1.178  0.0107  0.1320 -0.0016
31961W        W47855  17.445   2.017   3.584 -0.1025  0.3676 -0.1689
31962W        W47856   9.250   7.708  14.515 -0.1504  0.1523 -0.1438
31963W        W47857  10.427  13.254   3.684 -0.0236 -0.1482 -0.0973
31964W        W47858  12.883   7.086  14.799  0.3062 -0.1826 -0.2009
31965W        W47859  15.163   1.734  13.972 -0.2917  0.0500 -0.3035
31966W        W47860   7.094   2.275   0.639 -0.1600 -0.0335 -0.0321
31967W        W47861  15.213   4.628  11.820 -0.0423 -0.2317 -0.4397
31968W        W47862   3.992   7.341   5.789 -0.1623 -0.2825  0.0990
31969W        W47863   6.288   2.453   2.203  0.2303  0.0783  0.3045
31970W        W47864   5.126   7.560   2.260 -0.2498  0.2813 -0.0494
31971W        W47865   2.859  16.668  12.341 -0.0571 -0.4064  0.0069
31972W        W47866  16.355  13.812   1.807  0.0649  0.0220  0.0462
31973W        W47867   0.155  18.015   3.340  0.0030  0.1693 -0.2937
31974W        W47868  14.346  17.856   2.880  0.1734  0.0370  0.2329
31975W        W47869   9.166  11.659  14.595  0.0004  0.1336  0.1531
31976W        W47870  17.068   4.706  11.678  0.1338  0.0604  0.1549
31977W        W47871   5.801   6.452  12.725  0.2845 -0.1905 -0.0608
31978W        W47872   2.880   1.253   3.713  0.1383  0.2760  0.1012
31979W        W47873   8.801   8.898   2.121  0.2617 -0.0889 -0.0928
31980W        W47874   5.052   1.452  10.777 -0.0892  0.0268  0.1734
31981W        W47875  11.239   2.287  12.722 -0.0567 -0.2673 -0.0229
31982W        W47876  15.107  18.546   0.945 -0.1027 -0.0976 -0.0039
31983W        W47877  17.544  13.885  10.097 -0.0665  0.2923  0.0474
31984W        W47878  18.672   4.408   6.324 -0.0278  0.0970  0.0541
31985W        W47879   2.018  12.630  15.083 -0.1129  0.0953  0.1464
31986W        W47880   7.891   2.233  13.736 -0.2304  0.1290 -0.0591
31987W        W47881  13.341  19.171  11.531  0.3091  0.0307  0.0394
31988W        W47882   6.676  12.169   4.799  0.2709  0.3204 -0.0552
31989W        W47883   5.293  18.412   3.442 -0.0840 -0.0787 -0.1317
31990W        W47884  12.298  13.641  11.124  0.0908 -0.0721  0.1221
31991W        W47885   6.196   9.679   4.368 -0.1638 -0.1586 -0.0060
31992W        W47886   9.632  12.218   4.820 -0.1130 -0.3498 -0.3764
31993W        W47887   7.810   7.048   1.366  0.1603  0.0450  0.0900
31994W        W47888  16.704   3.160  12.818 -0.0693 -0.0844 -0.1662
31995W        W47889  10.074  13.973   9.377  0.1479 -0.2959  0.2248
31996W        W47890  16.794   7.997  11.427  0.0039  0.3765 -0.2188
31997W        W47891  14.930   9.248   3.302  0.2795  0.2549 -0.1590
31998W        W47892   1.434   5.050  12.710  0.1788  0.2328 -0.2897
31999W        W47893   4.197   0.713   1.588 -0.0992  0.0167 -0.0395
32000W        W47894  11.886   5.906  12.910 -0.0255 -0.1023  0.0165
32001W        W47895  18.826   5.788   1.135 -0.1488  0.2903  0.1972
32002W        W47896  11.873  17.813  11.450 -0.1220  0.0994  0.0826
32003W        W47897   4.604   8.494   2.336 -0.0699  0.2687  0.0715
32004W        W47898   6.945  18.315  11.796 -0.1935 -0.1179  0.0248
32005W        W47899   2.586  12.811   1.819 -0.5271  0.0461  0.2453
32006W        W47900  16.945  12.919  11.675 -0.1212  0.2447 -0.1302
32007W        W47901  12.142   1.505  11.044 -0.2239  0.1081 -0.0050
32008W        W47902   1.282  11.149   4.918  0.4123 -0.3049  0.0061
32009W        W47903  15.183   6.265  12.529  0.0648 -0.2012 -0.1925
32010W        W47904  12.852  13.426  11.806  0.2087 -0.0117  0.4056
32011W        W47905   2.944   6.904   0.520  0.1877  0.2053  0.2887
32012W        W47906   0.655   9.755   1.784  0.1853  0.1985  0.0656
32013W        W47907  12.042   9.784   4.023  0.1479 -0.0617 -0.3221
32014W        W47908   9.508  12.015  10.574 -0.4987 -0.4923  0.1324
32015W        W47909   3.511   3.294  12.698 -0.1144 -0.1495  0.0691
32016W        W47910  15.879  17.317   4.537  0.1823  0.2264  0.1133
32017W        W47911   6.336   7.831   4.488 -0.1847  0.3131 -0.1096
32018W        W47912   5.193  18.201  12.803  0.1049  0.1589  0.0825
32019W        W47913  16.105   1.072  11.733  0.2848  0.1198  0.0159
32020W        W47914  17.599  11.841  13.552  0.0376 -0.0774  0.0797
32021W        W47915  19.114   9.761   0.467 -0.0580 -0.0465  0.0160
32022W        W47916   0.571  10.901   3.113  0.0747 -0.0611 -0.0248
32023W        W47917  16.303   1.359  12.149  0.1364  0.1393  0.1845
32024W        W47918  11.365  15.631  11.999  0.1846 -0.0577  0.1182
32025W        W47919  13.748   1.493  11.728 -0.4770 -0.3727  0.1273
32026W        W47920   1.400   5.060   0.579  0.3908 -0.2344 -0.1676
32027W        W47921  12.777  10.522   1.193  0.3088  0.0120  0.3063
32028W        W47922   3.545  10.904   3.653 -0.1531  0.0940  0.0892
32029W        W47923   8.520   3.874   3.402 -0.1614 -0.1822  0.0093
32030W        W47924   2.111  19.110   1.653  0.1161  0.1831 -0.1603
32031W        W47925   1.956   3.722   3.149  0.0404 -0.0635  0.1695
32032W        W47926  15.891   2.778  11.464  0.1561  0.0165  0.3555
32033W        W47927  12.294  14.210   3.768 -0.3330 -0.0619  0.0049
32034W        W47928  15.676  19.094   5.020 -0.3765 -0.0811 -0.0900
32035W        W47929  12.313   0.376  12.280 -0.0073  0.1187 -0.0548
32036W        W47930  15.674   7.821  13.413 -0.2497  0.0347 -0.0876
32037W        W47931  11.693  16.934   3.282  0.0724 -0.0550 -0.2124
32038W        W47932  18.460  18.340   2.988 -0.1212 -0.2496  0.3324
32039W        W47933  16.775  16.785  14.020  0.1798  0.0842 -0.1023
32040W        W47934  17.418   1.190   1.809  0.0904 -0.3499 -0.1077
32041W        W47935   2.995  12.666   4.991  0.1701 -0.1601 -0.2698
32042W        W47936   8.926  11.595   3.670 -0.1525  0.2300  0.1541
32043W        W47937   3.590  15.578   5.462 -0.0740 -0.0223 -0.1186
32044W        W47938  14.084   8.667   4.182  0.0489  0.0229  0.2156
32045W        W47939  12.589   3.723   1.258  0.0840 -0.1423  0.0316
32046W        W47940   8.075   4.849  11.520 -0.0820 -0.2524 -0.2794
32047W        W47941   3.597  12.679  14.430  0.0505  0.0927  0.1870
32048W        W47942   2.359   4.153   4.933 -0.0492  0.2006 -0.0633
32049W        W47943  13.732   6.205  11.569  0.0284  0.0588 -0.1233
32050W        W47944   0.457   8.907  12.992  0.1282 -0.0292 -0.1065
32051W        W47945  15.180   2.509  14.643  0.1012 -0.3310 -0.1623
32052W        W47946  11.343   0.569  12.444  0.3561 -0.0324 -0.4752
32053W        W47947  12.545  12.852   1.736  0.2856  0.2956  0.0533
32054W        W47948   9.825  10.050   3.654  0.0484  0.1018 -0.0684
32055W        W47949  11.530  17.990  12.954 -0.0730 -0.0176  0.0919
32056W        W47950  10.169   2.536   2.938 -0.0196  0.3233 -0.2615
32057W        W47951   4.087  13.804   2.577  0.1600 -0.0210 -0.0416
32058W        W47952   3.970   0.404  13.956 -0.1272  0.1183 -0.2023
32059W        W47953   1.963  16.106   4.309 -0.4886  0.0835  0.0231
32060W        W47954   9.357  17.976  13.395  0.2423 -0.1239 -0.0532
32061W        W47955  18.277  13.673   4.980 -0.1409 -0.0904  0.1917
32062W        W47956  15.594  17.737  13.363 -0.1440 -0.1221  0.0004
32063W        W47957  13.631   7.242   3.756  0.0228  0.2003 -0.1087
32064W        W47958   6.330   4.971  12.365  0.5114 -0.4497  0.2529
32065W        W47959  10.740   6.972   1.608  0.1640  0.2822 -0.0148
32066W        W47960   6.582  16.561   1.103 -0.2154  0.1290  0.1049
32067W        W47961  17.375  13.193   0.787  0.2014  0.0689  0.1536
32068W        W47962  12.405  10.999   3.592 -0.0747  0.4038 -0.2624
32069W        W47963  10.025   2.375  10.836  0.0848 -0.3819  0.2442
32070W        W47964   7.209   6.960  13.181  0.3567 -0.1003 -0.0802
32071W        W47965  18.868  15.365   2.676 -0.1076  0.3164 -0.1701
32072W        W47966  16.978  13.858  11.519  0.4547 -0.0101 -0.0942
32073W        W47967   1.077   0.328   3.836 -0.1337  0.4222  0.2103
32074W        W47968  17.861   7.489  12.161  0.0830 -0.4005  0.0106
32075W        W47969  16.012   1.978   0.049  0.0769 -0.2506 -0.0950
32076W        W47970   1.014  15.648   4.376 -0.3110  0.1438  0.1425
32077W        W47971  14.265  18.243   1.423  0.2143 -0.1732 -0.1628
32078W        W47972  16.173  13.348  11.310  0.0543 -0.3178 -0.0556
32079W        W47973   3.580  15.778  13.798 -0.2487  0.3484 -0.1752
32080W        W47974   3.786  13.958   0.411 -0.1069 -0.2869  0.4296
32081W        W47975   9.154  10.949  13.399  0.0788 -0.1265  0.1015
32082W        W47976   9.877  18.866   4.716  0.0625  0.2388 -0.1494
32083W        W47977   5.343   7.821  12.183  0.1740 -0.2002  0.3112
32084W        W47978   7.624  13.928  11.386  0.0795  0.1652  0.2172
32085W        W47979  16.608   0.888   4.375 -0.0810  0.2105 -0.1987
32086W        W47980   1.363  16.190   1.824  0.1984 -0.0144  0.0702
32087W        W47981  10.253   0.042   1.379 -0.3065  0.2120  0.0248
32088W        W47982   3.629  11.314  11.585 -0.0288 -0.0731  0.3091
32089W        W47983  15.257  11.629  11.638 -0.1941  0.0184 -0.1043
32090W        W47984  17.274  14.998   3.086 -0.1962 -0.2363  0.3110
32091W        W47985   2.484   6.772   0.759 -0.0272 -0.2086  0.0073
32092W        W47986  12.164   8.898   4.076  0.1097 -0.0596  0.1030
32093W        W47987   0.035   9.595  13.306  0.1613 -0.3555  0.3095
32094W        W47988  14.955  14.837   3.416 -0.0067 -0.1029 -0.1868
32095W        W47989  17.133  18.335   4.418  0.1756  0.1553  0.3939
32096W        W47990   3.149  18.839   0.408  0.1965 -0.2136  0.0212
32097W        W47991   8.506   2.710   3.246  0.3424  0.0497  0.0830
32098W        W47992  10.842   0.463   1.943  0.0236 -0.0999  0.1174
32099W        W47993  11.568  11.573   1.215  0.1247 -0.1375 -0.1883
32100W        W47994  13.925  11.641  10.229  0.2311 -0.1973 -0.0276
32101W        W47995   0.788   9.149  14.749 -0.1164  0.0160  0.0997
32102W        W47996  15.181  12.760   1.313 -0.0565  0.2395 -0.2375
32103W        W47997  15.810  17.161   3.199 -0.1769  0.0513 -0.2558
32104W        W47998  11.551  18.806  14.050  0.0067  0.3745  0.2000
32105W        W47999  14.543  16.884  11.903 -0.2521 -0.0747 -0.1620
32106W        W48000   8.183  17.300   5.424  0.0410 -0.2666  0.0837
32107W        W48001   3.201   7.946   1.325 -0.0041  0.2108  0.1600
32108W        W48002   1.550  10.525  11.110 -0.1589 -0.0645  0.2190
32109W        W48003   8.755   7.112   0.396 -0.0864 -0.0994 -0.0033
32110W        W48004   3.710  17.910  11.008 -0.2731 -0.1042  0.3975
32111W        W48005  17.433  16.079   0.537 -0.0746 -0.2743 -0.3803
32112W        W48006   9.844  13.069  11.657  0.4141  0.3076  0.1122
32113W        W48007  17.678   4.679   2.413  0.0817 -0.3733  0.0278
32114W        W48008  12.296  15.093   0.895  0.3124 -0.1030 -0.5196
32115W        W48009  16.043  11.039   4.115  0.0348 -0.4793 -0.1363
32116W        W48010   8.704   0.860   3.121 -0.3340  0.1796 -0.2060
32117W        W48011   7.947   9.108   3.804  0.1841 -0.3117 -0.1591
32118W        W48012  12.854  16.015   9.981 -0.0881 -0.1453  0.3452
32119W        W48013   2.670   1.129  12.466  0.0525  0.0280 -0.3469
32120W        W48014  18.805  16.531  10.948 -0.1523 -0.2753 -0.0624
32121W        W48015  16.738  14.320  11.288  0.0915 -0.3284  0.0888
32122W        W48016  14.397   9.862   4.714 -0.0787 -0.1324  0.0980
32123W        W48017  10.581  13.359   3.107  0.0976 -0.1983  0.3299
32124W        W48018   2.682  14.376  10.490 -0.1849  0.3198  0.2851
32125W        W48019   3.453  17.098   2.863 -0.0966  0.2373 -0.2909
32126W        W48020  12.179   5.216   3.799 -0.1792 -0.0684 -0.0150
32127W        W48021   0.382   2.888  11.794  0.2631 -0.2831 -0.2214
32128W        W48022  10.631  10.802  10.593 -0.3603 -0.0306  0.4682
32129W        W48023   4.618  14.309  14.301 -0.1686  0.2000 -0.0650
32130W        W48024   2.391   4.243  10.736 -0.2526 -0.0440 -0.2316
32131W        W48025  11.135   3.276   5.305  0.0445  0.0256  0.0205
32132W        W48026   2.592  16.810  14.419 -0.1171 -0.2384  0.0460
32133W        W48027   6.537  15.119   2.549  0.1417 -0.0712 -0.0030
32134W        W48028   7.928  12.162  14.624  0.2866  0.0717  0.4026
32135W        W48029  15.043  13.810   3.818 -0.1243  0.0833  0.2098
32136W        W48030  14.558  11.462   1.566 -0.0997  0.0775  0.5060
32137W        W48031   7.964  12.244   4.729  0.2968  0.0897  0.0178
32138W        W48032  15.524  14.727   0.560  0.3325 -0.1104  0.0979
32139W        W48033   4.369  10.536  12.421 -0.0580  0.0447  0.1424
32140W        W48034   4.941  15.964  12.959  0.3464  0.0331 -0.1400
32141W        W48035   2.663   6.269  12.199 -0.2263 -0.2187  0.1723
32142W        W48036   0.406  15.415  10.378  0.3982  0.1762  0.3274
32143W        W48037   3.856   1.977  13.978 -0.3478  0.0168  0.0477
32144W        W48038  15.896   9.552   0.010 -0.0375  0.2504 -0.1036
32145W        W48039  12.091  13.168  11.992  0.0019 -0.0927  0.0212
32146W        W48040  15.547   9.682   4.534  0.0276 -0.1446 -0.0999
32147W        W48041   0.968  15.035  11.514  0.2833 -0.0551  0.2102
32148W        W48042  18.207   6.402  13.145 -0.1631 -0.1968  0.1650
32149W        W48043  15.483  10.824  14.111  0.1960 -0.0898 -0.1260
32150W        W48044   3.808  18.263   3.427  0.3664 -0.0437  0.0177
32151W        W48045  11.425  13.876   4.545  0.0601  0.2150 -0.0894
32152W        W48046  10.579  17.492   1.945 -0.0045 -0.3160  0.0149
32153W        W48047  15.062  11.053   3.538  0.2255 -0.2920  0.1718
32154W        W48048  10.112   1.142   0.737  0.2575 -0.1384  0.3484
32155W        W48049   4.994   5.667  11.403  0.1470 -0.0503  0.2331
32156W        W48050   1.461   8.894   2.572  0.2098 -0.0062 -0.1081
32157W        W48051   1.830  17.304   3.039 -0.3215  0.1045  0.2368
32158W        W48052   0.980   2.030  12.355 -0.4187  0.2578 -0.1943
32159W        W48053   1.206   7.599   5.570 -0.0287  0.0945 -0.1124
32160W        W48054   9.756   7.821   3.299  0.0162 -0.2461  0.1349
32161W        W48055   7.042  12.580  14.372 -0.1253 -0.2824  0.0946
32162W        W48056  18.894  17.496  12.054  0.0644  0.2605 -0.3746
32163W        W48057  15.345   0.459   3.658 -0.0724  0.3753 -0.2097
32164W        W48058  18.651  15.352   0.234  0.4891  0.3225 -0.0951
32165W        W48059  10.828  16.692  10.056  0.1842  0.3877 -0.0724
32166W        W48060   2.593   3.841  11.551  0.1927 -0.0461 -0.1971
32167W        W48061   7.371   1.379  11.384 -0.3138 -0.0883 -0.1138
32168W        W48062   0.221   5.829   1.609 -0.1510  0.3284  0.2074
32169W        W48063  18.244   0.227  11.295  0.0931  0.2577 -0.0995
32170W        W48064  11.280   7.767  12.176  0.0002  0.2133 -0.2057
32171W        W48065  17.972   1.673  12.248 -0.1440 -0.0853  0.0413
32172W        W48066  17.850  19.020  11.047 -0.1588 -0.2593  0.1814
32173W        W48067  18.350   1.622  10.691  0.0905 -0.1376 -0.2867
32174W        W48068  16.341   0.807   1.207  0.0733 -0.2255  0.5347
32175W        W48069  14.813   0.076   0.719  0.1339 -0.1312 -0.1840
32176W        W48070   9.370  18.782   3.805 -0.3313 -0.1460 -0.0861
32177W        W48071   0.994   9.026  11.222 -0.0791  0.0292 -0.0625
32178W        W48072   5.536  15.030  10.484  0.0690  0.2041  0.1199
32179W        W48073  17.654   0.048   2.482 -0.1476  0.0352 -0.4093
32180W        W48074  11.115   1.697   4.262  0.0068  0.1449 -0.1010
32181W        W48075  11.254  10.657  14.364  0.3863 -0.0074  0.1183
32182W        W48076  13.348   0.801   2.416  0.1748  0.1490  0.0766
32183W        W48077   3.297  14.136  11.273 -0.0414 -0.0380  0.2858
32184W        W48078  10.147   6.243  14.937  0.0733 -0.2646  0.3066
32185W        W48079   9.963   0.328   1.940 -0.2231 -0.0136 -0.0822
32186W        W48080   6.718  14.234   4.638 -0.1366 -0.2269  0.0552
32187W        W48081   0.759   1.638   0.111 -0.2197 -0.1409  0.0946
32188W        W48082   8.565   2.526   2.782 -0.1459 -0.1367  0.0659
32189W        W48083  17.843   9.499   4.305 -0.0103  0.0127 -0.2535
32190W        W48084  10.465   8.429  13.756  0.1092 -0.1671 -0.1045
32191W        W48085   5.794  12.747  11.548  0.2153  0.0572  0.1512
32192W        W48086   9.595   4.835  13.224  0.2013  0.2331  0.2086
32193W        W48087  13.035  18.897  10.892  0.0162 -0.3187 -0.1227
32194W        W48088   5.475  12.366  13.953 -0.2307  0.1706 -0.0369
32195W        W48089  18.370   1.367   2.511  0.0081 -0.0088  0.0440
32196W        W48090   4.145  16.464   2.896 -0.0049  0.0697  0.1884
32197W        W48091  18.375   5.089   3.534 -0.0196  0.0337  0.0709
32198W        W48092   7.444   0.202   1.183  0.1855  0.1434  0.3225
32199W        W48093   4.629  11.330   3.135  0.0321 -0.5668 -0.0554
32200W        W48094   3.028  13.172  13.832 -0.2177  0.0406 -0.0645
32201W        W48095   3.726   3.484   1.385 -0.0636  0.5336  0.2521
32202W        W48096   8.057   6.180   4.224  0.2272  0.3886  0.2390
32203W        W48097  13.140  15.372   0.618  0.0853  0.3205 -0.0898
32204W        W48098  13.824  14.647   9.385 -0.0216 -0.1305  0.0855
32205W        W48099   6.100  11.041   4.773  0.1952  0.4741 -0.1278
32206W        W48100   7.890  18.609  12.087  0.2347 -0.1299 -0.1636
32207W        W48101   7.766   2.561   0.172 -0.1903  0.0082 -0.1560
32208W        W48102   2.276  13.135  10.263  0.0008  0.0227 -0.1055
32209W        W48103   6.790   2.760  11.385 -0.2103 -0.0898  0.0305
32210W        W48104  12.304  13.611   1.100 -0.2184 -0.0817 -0.2331
32211W        W48105   7.252  12.998   0.905 -0.5435 -0.2156 -0.0842
32212W        W48106  17.145   5.837  11.909  0.3588  0.0815  0.0600
32213W        W48107   4.265  13.200  12.066  0.1588 -0.1480  0.0983
32214W        W48108   4.600   8.941  12.522 -0.2611  0.3811 -0.3131
32215W        W48109  13.034  18.121   1.010 -0.0273  0.0577 -0.0374
32216W        W48110  12.586   9.856  11.277 -0.1717 -0.0427  0.1650
32217W        W48111  18.280  15.101   4.665  0.0694 -0.1652  0.1957
32218W        W48112   8.604   1.037  11.907  0.0954  0.0629  0.2398
32219W        W48113  18.780   6.453  13.869  0.0997  0.1025 -0.0034
32220W        W48114  15.712  12.368   4.148 -0.0960 -0.0166 -0.1392
32221W        W48115  11.224  16.085   3.539 -0.3422 -0.1881 -0.0609
32222W        W48116  11.680  17.824  13.881 -0.1562 -0.2558 -0.0724
32223W        W48117   9.127  12.565  11.175 -0.0088 -0.0256  0.1295
32224W        W48118   7.115  15.063  12.009  0.0068 -0.0871 -0.0797
32225W        W48119   2.148  13.761  12.017 -0.2897  0.2294 -0.1381
32226W        W48120  15.410   8.756  13.169 -0.2257 -0.1732 -0.3547
32227W        W48121   6.113   6.777   1.685 -0.0158 -0.0650 -0.0500
32228W        W48122  17.271   2.462   4.792 -0.4247 -0.0440  0.0390
32229W        W48123   2.827   6.863   3.128 -0.2798 -0.2056 -0.2515
32230W        W48124   2.940  18.241   2.435  0.0777  0.0340 -0.0091
32231W        W48125  10.168   7.872   3.559  0.3194  0.3754 -0.3140
32232W        W48126  12.989  15.284   0.105 -0.0944 -0.4114 -0.0784
32233W        W48127  15.128  12.463   1.755  0.0660  0.2222 -0.1996
32234W        W48128   5.536   8.800  13.050 -0.0890  0.0128  0.1467
32235W        W48129  16.299  15.195   2.769  0.0601  0.2077 -0.1825
32236W        W48130   0.884   6.766  13.368  0.0473  0.0001  0.0569
32237W        W48131   7.116   4.295   2.532 -0.1808  0.0247  0.0798
32238W        W48132   9.743   2.680   0.950 -0.0759  0.1182  0.0494
32239W        W48133  17.427   0.386  10.580 -0.2114 -0.0686 -0.1322
32240W        W48134   9.270  17.390   0.990  0.0989  0.0426  0.0890
32241W        W48135   1.026  14.381   2.333 -0.0163 -0.0758 -0.0232
32242W        W48136  10.493   8.982  10.911  0.3085 -0.1823  0.2018
32243W        W48137  17.532   7.083   2.026 -0.2061 -0.0925 -0.0781
32244W        W48138  13.027  17.082  13.903 -0.0445  0.1563 -0.0980
32245W        W48139   5.912  13.884   2.438 -0.1910 -0.1252 -0.3243
32246W        W48140   6.564   4.494  12.188  0.0949 -0.1161 -0.0039
32247W        W48141   1.690   8.236   1.233  0.3167  0.0333 -0.2290
32248W        W48142  16.651   0.801  14.482  0.0243  0.0717  0.1143
32249W        W48143   4.315  16.615   3.746 -0.0272  0.0803  0.1215
32250W        W48144   1.804   8.139   5.036  0.1803 -0.0729 -0.0970
32251W        W48145   0.713  12.871   3.475  0.1199 -0.3783 -0.0644
32252W        W48146  12.692   9.787   1.948  0.3579  0.0893 -0.5635
32253W        W48147  12.161   7.515  11.391  0.1502  0.2108  0.1095
32254W        W48148   8.861   6.367   3.577 -0.1595 -0.1952  0.2522
32255W        W48149  11.007   5.197   4.633  0.4376 -0.1784  0.0695
32256W        W48150  15.674  13.673   1.462  0.1244  0.1825 -0.2191
32257W        W48151   8.361  19.161   4.036  0.3936 -0.2053  0.2650
32258W        W48152   4.264   6.753  10.603 -0.0141  0.0972 -0.1832
32259W        W48153   2.757   7.903  11.905 -0.4113 -0.1335  0.3051
32260W        W48154  12.083   5.314   0.654  0.2386 -0.2052  0.1036
32261W        W48155   8.789   5.864  10.811 -0.2605  0.1338  0.2118
32262W        W48156   8.308  11.508  13.551 -0.3846  0.1678  0.0865
32263W        W48157   6.375  18.980  11.396  0.0948 -0.0536 -0.0573
32264W        W48158   6.904   5.236  11.103  0.0112  0.2928 -0.0487
32265W        W48159  11.509   9.977   1.605  0.1720 -0.1048  0.0598
32266W        W48160  10.964   0.618  10.990 -0.1417 -0.1220  0.2701
32267W        W48161  17.685  16.387   0.229  0.2955 -0.1452  0.0316
32268W        W48162   2.769  12.240   0.221  0.1074 -0.0443  0.0023
32269W        W48163   7.137  13.298   1.293  0.1688 -0.1050 -0.2106
32270W        W48164  12.669  18.643   1.479  0.1106 -0.2371  0.1384
32271W        W48165  11.341  14.825  13.994 -0.1288  0.1434  0.3664
32272W        W48166  17.949  10.132  13.892 -0.4211 -0.0730 -0.0689
32273W        W48167   5.625   3.016   3.071  0.3991 -0.4193 -0.1312
32274W        W48168   2.981  12.206  12.624  0.0485  0.1883 -0.2248
32275W        W48169   8.690   9.054   3.261 -0.1610 -0.0334  0.2699
32276W        W48170  15.237   2.132  10.733  0.0731 -0.4355 -0.3928
32277W        W48171   5.180   5.616   0.570  0.1724  0.2509  0.0983
32278W        W48172  15.976   3.385  10.822 -0.4073  0.2306  0.1665
32279W        W48173  14.207  16.674  13.535  0.2288 -0.1583 -0.0318
32280W        W48174   1.340   1.397   1.106  0.2911  0.2010  0.0066
32281W        W48175  12.979   1.294   5.310 -0.0189 -0.1231 -0.1028
32282W        W48176   6.051   5.395   1.260  0.1784 -0.0970  0.3754
32283W        W48177  11.578  15.840  14.621 -0.1301  0.0811 -0.1111
32284W        W48178  14.536   8.791   4.511  0.0698 -0.2108  0.3260
32285W        W48179   7.731   2.918   1.861  0.3489  0.0055 -0.1113
32286W        W48180   7.818  15.632  11.678 -0.1313 -0.0157 -0.4022
32287W        W48181   7.176   0.402   2.962  0.1681 -0.1817  0.1768
32288W        W48182   1.526   3.454   1.867 -0.1956 -0.3280  0.0184
32289W        W48183   7.617  14.287   1.348  0.2549  0.2526 -0.2523
32290W        W48184   4.311   8.919  14.961  0.2197  0.0501  0.1476
32291W        W48185   2.738  15.725  13.832  0.1362  0.1085  0.0970
32292W        W48186  16.559   4.330  14.007  0.0811 -0.0535 -0.0454
32293W        W48187   6.480  10.406  13.384  0.1836 -0.1910  0.2301
32294W        W48188  16.696   4.786   2.487 -0.1313 -0.2063  0.0828
32295W        W48189   6.629   9.082  13.393 -0.0108  0.1850 -0.0367
32296W        W48190   8.997   1.431  13.104  0.0227 -0.2510 -0.0888
32297W        W48191   8.426  18.072   3.155 -0.1983 -0.0132 -0.1645
32298W        W48192  16.117  16.147   3.551  0.3056 -0.0779  0.0054
32299W        W48193   2.475  17.328  11.270 -0.1853  0.0678 -0.1265
32300W        W48194  11.155   1.858  11.880 -0.3687 -0.4647  0.0835
32301W        W48195  16.439   5.943  13.968  0.1024  0.0083 -0.0996
32302W        W48196  13.088   1.338   0.966 -0.1320  0.0657 -0.1119
32303W        W48197  13.597  17.783   3.006  0.1286  0.2717  0.1831
32304W        W48198  11.123  18.144   3.126 -0.0740  0.3892  0.1405
32305W        W48199   9.269   5.498  13.011  0.0079 -0.1925 -0.1164
32306W        W48200   9.877   7.153   1.279  0.1494 -0.0523  0.3631
32307W        W48201   0.289  13.100   1.244 -0.1995  0.3996  0.1951
32308W        W48202  16.263   1.063  12.546 -0.2311  0.1741 -0.0998
32309W        W48203   4.420   4.201   1.759  0.0869  0.1895 -0.0829
32310W        W48204  10.906  16.838  12.638  0.4146  0.0726  0.0100
32311W        W48205   5.672   8.177  14.884 -0.2441 -0.2855 -0.1048
32312W        W48206   2.677   7.358   1.454 -0.0987  0.5988  0.0044
32313W        W48207   5.028  12.843  13.317  0.0335 -0.3754 -0.1522
32314W        W48208  10.227  14.162   1.041  0.3562 -0.0722 -0.1566
32315W        W48209  12.127  13.794   5.210  0.0090  0.1858 -0.3348
32316W        W48210   6.295  12.213   0.300 -0.3045  0.1339  0.1740
32317W        W48211   7.697   1.717   3.877 -0.1624 -0.3222  0.2385
32318W        W48212  19.124   0.143   2.264  0.3822  0.2188  0.1669
32319W        W48213  13.987   8.542  12.028 -0.3721 -0.0230 -0.3542
32320W        W48214  13.837  10.160   1.863  0.0797 -0.1655 -0.1951
32321W        W48215  13.067  16.308   0.435 -0.1659 -0.1423  0.2106
32322W        W48216   4.039  18.849   5.319  0.1193 -0.3735  0.1888
32323W        W48217  17.750   1.408   1.338  0.2712  0.2088 -0.1591
32324W        W48218   2.019   3.252   3.099  0.2519  0.0693 -0.1555
32325W        W48219  13.140   3.411  12.922  0.0699 -0.0068 -0.1303
32326W        W48220   0.180   8.468   9.881 -0.1392  0.1242 -0.0338
32327W        W48221  16.141   6.180  14.379 -0.0311 -0.2106 -0.0187
32328W        W48222   1.136   3.428   2.225  0.1242 -0.1309  0.2344
32329W        W48223  14.403  18.967   0.343 -0.2706  0.0820 -0.2735
32330W        W48224  18.200   3.626  14.858 -0.2593  0.1050 -0.1291
32331W        W48225  14.365  11.593   4.210  0.0518 -0.0474 -0.0377
32332W        W48226   1.487  16.905   0.834  0.1051 -0.2291 -0.1073
32333W        W48227   6.774   7.979   4.724 -0.1325  0.0630  0.1857
32334W        W48228   1.497   9.901   3.673  0.2247  0.4683  0.0924
32335W        W48229   1.344   6.142  13.124  0.2013 -0.1557 -0.0652
32336W        W48230  10.171   9.221  11.248  0.0770 -0.2161  0.3978
32337W        W48231   5.870  12.929   9.946 -0.1473 -0.0735  0.0885
32338W        W48232  11.501   5.301   0.165  0.0991 -0.3508  0.2002
32339W        W48233   1.484  13.169   4.004  0.3779  0.2803 -0.1557
32340W        W48234   1.750  17.484  13.581  0.0365 -0.1089 -0.1343
32341W        W48235  18.209  13.196  13.249 -0.0548 -0.0646  0.0267
32342W        W48236  12.266  16.125   1.280  0.0416  0.2027 -0.1279
32343W        W48237   0.995   5.216  12.000 -0.0509 -0.2735  0.0849
32344W        W48238  11.304   0.459   1.833  0.0462  0.1435 -0.0339
32345W        W48239  14.996  17.883   0.135 -0.2167 -0.0040 -0.2659
32346W        W48240   3.988   3.150   1.104  0.1842 -0.1602 -0.0616
32347W        W48241   6.760  12.026   5.576 -0.0405 -0.0203  0.3095
32348W        W48242   5.035  13.485  13.997 -0.1147  0.0171  0.2845
32349W        W48243  18.244   3.467  10.982  0.0621 -0.0210 -0.0268
32350W        W48244  11.489  16.087   1.861 -0.0612 -0.0316 -0.0922
32351W        W48245  14.154   3.436   0.110 -0.0951 -0.1083  0.0495
32352W        W48246  12.409  10.226   1.352 -0.1002 -0.0421 -0.1364
32353W        W48247   0.456  14.396   1.209 -0.0196 -0.3048  0.1788
32354W        W48248  14.781   1.118   0.632 -0.2784 -0.1304 -0.1099
32355W        W48249   1.145  16.260   3.166  0.1648  0.0940  0.2851
32356W        W48250  15.238  19.180   3.661 -0.0218  0.0679 -0.1220
32357W        W48251  11.403  10.310  11.155  0.0496  0.1633  0.1222
32358W        W48252   9.653  15.157  10.510 -0.0719 -0.1967  0.2669
32359W        W48253   3.825   4.434   4.022 -0.0714  0.0815  0.2419
32360W        W48254   7.548  15.022   0.872 -0.1586  0.1162  0.3416
32361W        W48255  12.218   3.565   1.589  0.0554 -0.3029 -0.2758
32362W        W48256   8.563  11.226  15.065  0.3244  0.0596 -0.2197
32363W        W48257  18.111   7.745  10.380  0.0740  0.1439 -0.0949
32364W        W48258  18.471   4.934   0.599  0.2641  0.1040 -0.3527
32365W        W48259   4.056  12.374  15.033 -0.2783  0.0157  0.0933
32366W        W48260  17.541   8.171   0.701 -0.1056  0.2922  0.2462
32367W        W48261   7.222  16.286   3.823 -0.1073 -0.1391  0.0758
32368W        W48262  15.578  15.582   9.131 -0.1262 -0.1481 -0.0520
32369W        W48263  18.603  19.219   2.943 -0.3551 -0.0636 -0.0114
32370W        W48264  10.374   4.850  12.740  0.0378  0.2876  0.1243
32371W        W48265   6.046   1.799   4.508  0.0514  0.0671 -0.1973
32372W        W48266  11.866  17.759   0.725 -0.0469 -0.1939 -0.1931
32373W        W48267  13.661  17.836   1.702  0.2616  0.1382 -0.0333
32374W        W48268  17.098   2.897  11.329 -0.3068 -0.0935 -0.3989
32375W        W48269  19.089  15.586   9.125  0.2129  0.1998  0.0471
32376W        W48270  13.590  16.571   1.796 -0.0899  0.1760 -0.1677
32377W        W48271   1.860   6.509  11.526 -0.2758  0.2075  0.2936
32378W        W48272  18.571  16.602  11.591  0.3099  0.0395 -0.2542
32379W        W48273   6.190  17.963   3.543 -0.2995  0.1444 -0.0683
32380W        W48274   2.523   3.959   4.506  0.1588  0.0475 -0.5902
32381W        W48275   6.235  18.265  10.068  0.1545 -0.0171  0.1006
32382W        W48276   6.171   2.929  14.857  0.0678 -0.0009  0.2184
32383W        W48277  10.981   1.876  13.672  0.0336  0.0016 -0.0952
32384W        W48278  15.625   2.713   0.441  0.0160  0.4196  0.1775
32385W        W48279   5.534  17.898   4.261  0.2884 -0.1873 -0.0586
32386W        W48280  10.871  13.346   5.314  0.3248 -0.0669 -0.1406
32387W        W48281  19.037  15.534  13.348 -0.2559  0.1330 -0.0502
32388W        W48282  17.330   2.509  13.906  0.4051 -0.0762 -0.0275
32389W        W48283   0.838   0.337   5.346  0.0580 -0.0475 -0.1420
32390W        W48284   9.452   5.275   2.154  0.0839 -0.0436 -0.1831
32391W        W48285   6.476  15.375   4.286  0.0144  0.2105 -0.1304
32392W        W48286   0.107   0.402  10.748 -0.0618  0.0748 -0.0157
32393W        W48287  17.343   9.560   4.567 -0.3811 -0.0396 -0.2434
32394W        W48288   7.120   1.388   4.329  0.0047  0.0691  0.1707
32395W        W48289   0.419   2.396   3.617 -0.0077 -0.2266  0.1478
32396W        W48290  11.347   6.418  14.957 -0.2520 -0.0889  0.1932
32397W        W48291  12.449  18.291   5.834  0.2425 -0.2622  0.3662
32398W        W48292  10.775   5.312   4.174 -0.2695  0.2000  0.1460
32399W        W48293  15.586  15.392  13.097 -0.2368  0.1742  0.0338
32400W        W48294  12.667   2.741   4.278  0.0704 -0.0785 -0.0486
32401W        W48295  12.273   9.416  12.281 -0.2508  0.0606  0.0135
32402W        W48296   8.735   5.620  11.269  0.3930 -0.0328 -0.2327
32403W        W48297  17.373  16.049   3.609  0.1939 -0.0162  0.1439
32404W        W48298  17.614   2.311  11.931  0.1769  0.0029  0.1608
32405W        W48299   0.910   7.077   2.212 -0.2696  0.1551  0.0356
32406W        W48300  15.739   1.589  14.354  0.0518 -0.0632  0.3081
32407ION     NA48301  18.514  12.898   1.858 -0.1414  0.2048 -0.1274
32408ION     NA48302  10.957   6.878  14.095  0.0473  0.1417  0.0512
32409ION     NA48303  14.924   5.266   9.799 -0.2932 -0.0543 -0.1951
32410ION     NA48304  16.297   9.384   9.761 -0.1841 -0.0718  0.1038
32411ION     NA48305   9.004  11.541   1.061 -0.0302  0.1784 -0.1275
32412ION     NA48306  18.772  16.155   9.538  0.1567 -0.0916  0.0574
32413ION     NA48307  17.686  18.726   9.521 -0.3695 -0.1199  0.0164
32414ION     NA48308  14.264   6.765   9.748 -0.0180 -0.3246  0.0692
32415ION     NA48309  16.105   7.759   9.926 -0.1829 -0.0344  0.3272
32416ION     NA48310   7.061   1.007   1.063 -0.0416 -0.1455  0.0326
32417ION     NA48311  11.295  18.168   3.743 -0.2893 -0.0883 -0.0547
32418ION     NA48312  14.322  11.559   1.148  0.0170  0.0141  0.0640
32419ION     NA48313  16.426   0.091   9.655  0.0657  0.3212  0.1441
32420ION     NA48314  10.636  13.163   9.421  0.2494  0.3673  0.0268
32421ION     NA48315  12.018   6.492   9.534  0.0931 -0.2764  0.1588
32422ION     NA48316  18.816   3.781  10.131 -0.2066 -0.1840  0.1101
32423ION     NA48317  19.138  15.010  14.852  0.3575 -0.1250  0.0011
32424ION     NA48318  16.245   4.510   9.929 -0.0640 -0.1312 -0.1713
32425ION     NA48319   0.676   3.250  10.517  0.3227 -0.2258 -0.0132
32426ION     NA48320  17.050   8.278   0.699 -0.0039 -0.1286  0.0351
32427ION     NA48321   4.997  17.936  14.393 -0.0792  0.1574  0.3084
32428ION     NA48322   9.949  10.102   5.436  0.0744  0.0643 -0.3491
32429ION     NA48323   6.960  11.147   9.465  0.0812 -0.2693 -0.2098
32430ION     NA48324   7.706   8.197  10.413 -0.1356  0.0447 -0.0893
32431ION     NA48325  12.228   7.171   9.642 -0.1213  0.0509 -0.1646
32432ION     NA48326  13.067  14.795   0.097 -0.3242  0.2118  0.2920
32433ION     NA48327   1.825   3.076  13.899 -0.1082 -0.3222 -0.1521
32434ION     NA48328  17.593   8.529   5.612 -0.2621 -0.0741  0.0198
32435ION     NA48329   0.495  16.727  10.934  0.1603  0.0119  0.0010
32436ION     NA48330   0.947  16.642   4.715 -0.0049 -0.2686 -0.1986
32437ION     NA48331  13.525  16.154   0.567  0.0097  0.1681 -0.1770
32438ION     NA48332  17.746   7.000   9.879  0.0945 -0.1259  0.2184
32439ION     NA48333   5.768  10.110   5.136 -0.0093 -0.3097 -0.0945
32440ION     NA48334  13.752  10.550   9.767 -0.0287  0.1890  0.0243
32441ION     NA48335  12.723   4.177   9.726  0.0690 -0.2551 -0.0072
32442ION     NA48336  17.401   2.796   1.743 -0.1545  0.1119  0.0438
32443ION     NA48337   5.362   5.751  10.054 -0.1726  0.0063 -0.1024
32444ION     NA48338  12.864   6.974   9.849  0.0355  0.2356  0.0424
32445ION     NA48339  12.145  11.574   9.677  0.0498 -0.3495 -0.0898
32446ION     NA48340  16.177   7.265  14.614 -0.2163  0.3404  0.0756
32447ION     NA48341  12.073   1.681   9.474  0.0493 -0.1469 -0.1327
32448ION     NA48342  13.108   7.577   9.723 -0.0187  0.0555 -0.1056
32449ION     NA48343   3.287  13.930  14.251  0.0853  0.1233 -0.1474
32450ION     NA48344  15.751  17.838   9.620  0.1447 -0.0938  0.0674
32451ION     NA48345  19.188   2.692   9.958 -0.0481 -0.1459  0.1792
32452ION     NA48346   2.898  17.199  11.568 -0.1307  0.4096  0.0323
32453ION     NA48347  13.418  15.538   9.507 -0.2670 -0.1939  0.0895
32454ION     NA48348   1.214   1.321   5.192 -0.1463 -0.1193 -0.0896
32455ION     NA48349   3.691  16.555   9.296  0.0870 -0.1542 -0.0242
32456ION     NA48350   6.601  18.153   3.681  0.0992  0.3011  0.1361
32457ION     NA48351   2.115   5.901  15.028 -0.5830 -0.0284  0.0979
32458ION     NA48352  14.604   5.760   9.834 -0.1592 -0.2830 -0.0006
32459ION     NA48353  11.837  10.839  14.118  0.1358  0.1155  0.1914
32460ION     NA48354   1.326  15.168   9.669  0.0139  0.4288  0.0599
32461ION     NA48355   3.658  17.629   5.546 -0.0281 -0.0769 -0.3453
32462ION     NA48356   3.111   4.936   4.931  0.2295  0.1027  0.3110
32463ION     NA48357  13.051   5.378   4.505  0.2511 -0.1413 -0.4360
32464ION     NA48358   6.467   0.001  12.774  0.1392 -0.2257 -0.1604
32465ION     NA48359   5.519   4.874  10.209 -0.1852 -0.0467 -0.0292
32466ION     NA48360   3.526  15.670   9.855 -0.0521 -0.4881 -0.0248
32467ION     NA48361   0.160  15.518   9.501  0.2395  0.4464  0.0415
32468ION     NA48362   4.179  13.071   9.352 -0.2407  0.1701  0.0006
32469ION     NA48363   5.922   8.420  10.211 -0.1749 -0.0842  0.1167
32470ION     NA48364  16.174  17.091   9.440 -0.2584 -0.1051  0.2196
32471ION     NA48365  13.707   5.581  10.684  0.6355  0.1776  0.1869
32472ION     NA48366   1.451   8.442   1.620  0.4150  0.2154 -0.0176
32473ION     NA48367   4.144  11.908  10.775 -0.2647 -0.0560  0.0387
32474ION     NA48368   8.879  15.786   9.537 -0.2196  0.1508 -0.2403
32475ION     NA48369  11.293   1.307   9.415  0.2715  0.4132  0.2712
32476ION     NA48370   2.645  10.166   2.718  0.1082  0.0002  0.1410
32477ION     NA48371  14.047  12.953   2.227 -0.2051 -0.2299 -0.1356
32478ION     NA48372   7.890  13.006   1.040 -0.0671  0.0376 -0.0166
32479ION     NA48373   1.411   2.812  11.405 -0.0161 -0.1194 -0.1373
32480ION     NA48374  18.376  15.188  11.320  0.1149  0.1966 -0.2236
32481ION     NA48375   9.942   2.686   9.838 -0.0031 -0.0916 -0.2145
32482ION     NA48376  15.184   4.208   4.779  0.0119  0.1908 -0.0537
32483ION     NA48377  15.679   7.554   5.498 -0.0281 -0.3520 -0.0154
32484ION     NA48378   8.055   3.782  10.142  0.2980 -0.2514  0.3524
32485ION     NA48379  14.539   2.148   9.428  0.0362 -0.0901  0.0384
32486ION     NA48380  11.647  14.721   9.349  0.2008 -0.1661 -0.0392
32487ION     NA48381  14.081   4.750   9.766  0.3031  0.1470  0.1357
32488ION     NA48382   6.176   5.614   5.764  0.3839 -0.0736  0.0554
32489ION     NA48383  14.248  12.785   4.646 -0.1117  0.2255 -0.0661
32490ION     NA48384   0.727   0.967  13.900  0.1121 -0.0836  0.1014
32491ION     NA48385   6.194  11.521   5.191  0.1624  0.0262  0.0749
32492ION     NA48386  17.618   7.332  12.735  0.0325 -0.4619  0.4420
32493ION     NA48387   7.146   0.165   0.765 -0.0788 -0.4361  0.2150
32494ION     NA48388  13.466   5.111  12.660 -0.1201 -0.1907 -0.0726
32495ION     NA48389  18.763   7.618  14.322 -0.1574  0.1155 -0.0203
32496ION     NA48390   2.279  15.253  10.434  0.0338 -0.0972 -0.2832
32497ION     NA48391  15.189   9.173   9.642 -0.0379 -0.0353  0.1278
32498ION     NA48392   5.010   3.814  13.613 -0.3795  0.3772 -0.1856
32499ION     NA48393  15.743  14.310   5.345 -0.3182  0.0481 -0.0355
32500ION     NA48394   0.799  14.316  12.398 -0.2466 -0.3319  0.1149
32501ION     NA48395   7.488   0.703   5.617 -0.1829 -0.0398  0.0725
32502ION     NA48396   3.645   5.324  11.805 -0.5984  0.0360 -0.1395
32503ION     NA48397   4.004   3.521  14.990  0.2398  0.0123 -0.4637
32504ION     NA48398  10.664  16.754   1.565 -0.1215  0.1085  0.2481
32505ION     NA48399   7.881  11.457   9.449 -0.0384 -0.2238 -0.1542
32506ION     NA48400  17.218  18.736   9.326  0.1608  0.0063 -0.1059
32507ION     NA48401   7.451   1.225   9.962 -0.3167 -0.3365 -0.1448
32508ION     NA48402  18.111   9.218   9.404  0.2771 -0.1172  0.3551
32509ION     NA48403   7.641  17.212   9.069 -0.0486  0.1915 -0.0406
32510ION     NA48404  15.586   8.100   9.902 -0.3373  0.2999  0.1840
32511ION     NA48405   8.196  12.783  14.403  0.0704 -0.1028 -0.0125
32512ION     NA48406   9.557   8.935   9.730  0.4850  0.4198  0.0071
32513ION     NA48407   6.820   3.401  10.027 -0.1034 -0.0555 -0.0766
32514ION     NA48408  18.056  15.995   9.482 -0.1793 -0.1431 -0.0779
32515ION     NA48409   8.297   2.775   9.952 -0.1561 -0.3259 -0.2840
32516ION     NA48410   6.409   2.368   9.923 -0.0923 -0.1465 -0.2203
32517ION     NA48411  18.220   0.539   9.958  0.3906  0.0249  0.2080
32518ION     NA48412  11.287  14.552   2.945 -0.1952 -0.0614  0.2562
32519ION     NA48413  12.177   5.688   9.837 -0.0199  0.0426  0.1625
32520ION     NA48414  15.292   6.120  10.950  0.1781 -0.0008 -0.3858
32521ION     NA48415   7.842  16.750   0.392 -0.2924  0.3047 -0.3403
32522ION     NA48416   8.375  18.946   9.845 -0.1477  0.1477  0.0384
32523ION     NA48417  11.167   4.909   9.458  0.2049 -0.1746 -0.3188
32524ION     NA48418   2.310  17.806   9.964 -0.1270  0.1289  0.1746
32525ION     NA48419   2.669   9.189  10.416 -0.3771 -0.2719 -0.3755
32526ION     NA48420   4.464   0.294  10.434  0.0280 -0.0597  0.2634
32527ION     NA48421   2.275   9.606  11.165  0.0754  0.1880 -0.2000
32528ION     NA48422   7.632   3.500  10.060  0.2741 -0.0705  0.1516
32529ION     NA48423  12.127  12.072   5.149 -0.5037 -0.0797  0.0269
32530ION     NA48424   2.286   2.417   1.687  0.0818 -0.1238 -0.2786
32531ION     NA48425   3.734   8.859   5.420 -0.1286  0.2712 -0.0970
32532ION     NA48426  11.352   7.973   1.427 -0.3713  0.2937 -0.1860
32533ION     NA48427   5.995  15.697  13.465 -0.1712  0.1604  0.1451
32534ION     NA48428  18.361  19.162   5.265 -0.2734 -0.3024 -0.2463
32535ION     NA48429  14.789  16.962   0.368 -0.0001 -0.2591  0.2384
32536ION     NA48430   9.496   1.424  15.041 -0.1309  0.0360  0.2515
32537ION     NA48431  14.429   9.928   9.573 -0.0035  0.0123  0.0825
32538ION     NA48432   6.332  16.178  12.400  0.2953  0.0853  0.1081
32539ION     NA48433   9.927   0.648   3.045 -0.0128 -0.1860  0.1530
32540ION     NA48434  18.827  19.177   9.697  0.5220 -0.1888  0.0136
32541ION     NA48435  17.829  13.085   9.474 -0.2069 -0.2188  0.1023
32542ION     NA48436  13.578   5.889   2.852  0.0663 -0.0606  0.1393
32543ION     NA48437   3.681   3.383   9.895 -0.0581  0.1353 -0.1242
32544ION     NA48438   3.915   8.390  10.184 -0.0056 -0.2635  0.3769
32545ION     NA48439   2.517   0.849  10.027  0.1771 -0.0929  0.0282
32546ION     NA48440   7.755  18.797   5.043  0.0357  0.0817  0.1299
32547ION     NA48441   6.815  14.918   3.113 -0.0680  0.0367  0.0629
32548ION     NA48442   7.804   4.715  10.182 -0.1586  0.3911  0.2015
32549ION     NA48443   4.272  11.373   0.878  0.2752  0.2959  0.1505
32550ION     NA48444  13.805  18.113  12.222 -0.1532  0.0773  0.0844
32551ION     NA48445  16.231  14.910   9.312  0.1275  0.3358 -0.2259
32552ION     NA48446  12.876   1.383   9.475 -0.1125 -0.3550  0.0891
32553ION     NA48447   9.119   7.874   9.411 -0.0889  0.0196 -0.3498
32554ION     NA48448   1.382   8.403  10.049  0.3153  0.0750  0.0278
32555ION     NA48449  14.888  13.073   2.866 -0.0371 -0.2014 -0.0403
32556ION     NA48450   9.989   1.063  13.244  0.0247  0.1249 -0.2137
32557ION     NA48451   2.319   4.663  10.242  0.0111  0.1166  0.0756
32558ION     NA48452   5.519  14.293   9.722 -0.1602 -0.4252 -0.0184
32559ION     NA48453   3.247  14.427   9.405  0.3312 -0.0001 -0.2846
32560ION     NA48454   5.263   1.194   9.893 -0.0687 -0.1201 -0.2989
32561ION     NA48455  12.834   5.596  11.210 -0.0512  0.2893  0.2069
32562ION     NA48456   2.214   1.753  10.180 -0.4048  0.1255  0.0142
32563ION     NA48457   7.374  16.578   2.534  0.2580 -0.4278  0.1164
32564ION     NA48458  17.358   2.729   0.618 -0.0820 -0.1406 -0.1062
32565ION     NA48459   4.722   6.058  10.179  0.1600 -0.3179 -0.0276
32566ION     NA48460   1.488   7.139  10.442 -0.0688  0.0067  0.0820
32567ION     NA48461  16.628  16.250   5.249 -0.4315  0.1777 -0.2329
32568ION     NA48462   2.152  17.029   9.864  0.1572  0.1567 -0.0751
32569ION     NA48463   1.966   9.221   9.922  0.3325  0.1043 -0.1407
32570ION     NA48464  16.555  10.858   4.142  0.2191 -0.0263  0.0027
32571ION     NA48465   5.730  16.497   0.807 -0.1391 -0.0020 -0.2166
32572ION     NA48466   4.390  18.673  10.154 -0.3254  0.1688 -0.0906
32573ION     NA48467   9.762   1.181  11.649  0.4296 -0.0262 -0.0609
32574ION     NA48468   6.493  16.662  10.285  0.1102  0.0749  0.1690
32575ION     NA48469  16.310   9.792   5.130  0.3445 -0.1548  0.3017
32576ION     NA48470   3.705  13.171  15.085  0.1723 -0.0198  0.0895
32577ION     NA48471   7.183   4.420   1.299  0.1821  0.1092 -0.1327
32578ION     NA48472   2.867  18.561  12.463 -0.1737  0.2295  0.0574
32579ION     NA48473  15.403  12.465   5.297 -0.0149 -0.2247 -0.1769
32580ION     NA48474  18.692   1.320   9.836  0.3601  0.1112  0.3225
32581ION     NA48475  16.380   6.098   9.735 -0.0023  0.1938 -0.1438
32582ION     NA48476   3.024   9.918  10.008 -0.2931  0.2609  0.0295
32583ION     NA48477   0.842   2.315  10.040 -0.1289 -0.1483  0.2088
32584ION     NA48478  13.007  15.541   9.788 -0.2520  0.2781 -0.3824
32585ION     NA48479  17.836   1.791   9.838 -0.3506 -0.0251 -0.1148
32586ION     NA48480   4.862   2.227  14.288 -0.0843 -0.0378  0.0324
32587ION     NA48481  17.758   8.714   1.976  0.1047  0.0169  0.0329
32588ION     NA48482   5.170   2.282   5.604 -0.2480  0.0367  0.1340
32589ION     NA48483  12.843  17.852   9.260 -0.0561 -0.2270 -0.5659
32590ION     NA48484   6.199  17.412   9.684 -0.1805  0.2123 -0.3349
32591ION     NA48485   9.843   6.680   9.405  0.0387 -0.2039 -0.1670
32592ION     NA48486   7.058  18.883   9.783 -0.0091 -0.0042 -0.0037
32593ION     NA48487   6.338   6.494   3.391 -0.0518  0.0744  0.2082
32594ION     NA48488  14.857   1.215   9.473  0.0936 -0.0314  0.1044
32595ION     NA48489   2.530   7.459  10.961  0.1006  0.0838 -0.1891
32596ION     NA48490  13.886  13.661  13.944 -0.0081  0.0221 -0.0081
32597ION     NA48491  15.858  13.903  11.968  0.1508  0.0856 -0.0410
32598ION     NA48492  15.984   2.507   9.703 -0.4595  0.0914  0.0954
32599ION     NA48493  18.286  10.197   9.572 -0.2837  0.2722 -0.4023
32600ION     NA48494   7.316   3.687   5.965  0.0524 -0.3620 -0.3648
32601ION     NA48495  18.237   2.747   9.910 -0.0323  0.1877 -0.3293
32602ION     NA48496  11.099  13.313   9.200  0.2740 -0.5433  0.1190
32603ION     NA48497  16.659  10.839   9.434  0.3306 -0.0122 -0.1938
32604ION     NA48498  15.909  11.806  13.046  0.0734 -0.0088 -0.2124
32605ION     NA48499   3.110   2.681  15.100  0.1207 -0.1904  0.0797
32606ION     NA48500  17.237  11.287   9.523 -0.0574 -0.0925 -0.0180
32607ION     NA48501   3.887   4.351   0.375  0.0167  0.4742 -0.1379
32608ION     NA48502   3.909  10.321   9.793  0.1313 -0.1434 -0.1297
32609ION     NA48503  18.870  14.089   4.364  0.1725  0.1725  0.1709
32610ION     NA48504  18.071  10.251   0.619 -0.3214  0.2607  0.0989
32611ION     NA48505  18.755   0.858  14.868  0.2023 -0.0864  0.2213
32612ION     NA48506  17.614  12.194  10.770 -0.0311 -0.0533  0.3113
32613ION     NA48507  13.769   7.677   5.593 -0.2968 -0.3139  0.0579
32614ION     NA48508   4.749   3.742  10.246  0.1416 -0.1992 -0.2003
32615ION     NA48509   2.312   7.729  10.114  0.2583  0.3083  0.0656
32616ION     NA48510   7.152  11.928   5.214 -0.1942  0.0785 -0.0813
32617ION     NA48511   2.481  15.579   3.895  0.0873 -0.0154 -0.0022
32618ION     NA48512   6.215  19.198   9.829  0.2366  0.0239  0.1756
32619ION     NA48513   5.992  10.105   9.623 -0.0894  0.1746  0.0452
32620ION     NA48514   4.389  14.405   2.180  0.1775 -0.0185  0.3030
32621ION     NA48515   7.703   2.698   5.743  0.2011  0.1991  0.1171
32622ION     NA48516   5.599   3.989  10.501  0.0745 -0.0141 -0.3697
32623ION     NA48517   9.327   9.676   9.606 -0.2693 -0.0264  0.1368
32624ION     NA48518   4.517   5.301   5.440  0.0059  0.1475 -0.2806
32625ION     NA48519  15.310  14.754   9.381 -0.3027 -0.4044  0.2249
32626ION     NA48520  13.954   2.146   5.102 -0.0565  0.0429  0.0322
32627ION     NA48521  14.129   5.437   1.339  0.1545  0.2070  0.0605
32628ION     NA48522   7.371   2.416  10.212  0.0055  0.0389 -0.4148
32629ION     NA48523   9.260   2.066  10.202  0.0875 -0.1049  0.0995
32630ION     NA48524  15.394   0.623  12.704  0.2982 -0.0875 -0.1196
32631ION     NA48525   4.342   7.715   2.011 -0.1600 -0.0916 -0.0751
32632ION     NA48526  16.461  12.357   5.214  0.2601 -0.2065  0.1527
32633ION     NA48527   4.323   4.092   6.049  0.4592 -0.2769  0.0754
32634ION     NA48528  10.398   5.196   9.473 -0.0198  0.1092  0.0968
32635ION     NA48529   7.343   6.791   5.637 -0.0088  0.1774 -0.0310
32636ION     NA48530  14.445  13.114  12.017  0.0504 -0.0477  0.4671
32637ION     NA48531   3.000  10.724   9.815  0.0730  0.0899 -0.1821
32638ION     NA48532  11.271   2.247   9.648 -0.0840  0.0229 -0.1464
32639ION     NA48533  10.698  14.133   9.501 -0.0841  0.1229  0.0666
32640ION     NA48534   7.355  17.783   1.334  0.0778  0.0105 -0.3128
32641ION     NA48535  17.875  12.029   5.155  0.2770 -0.1659  0.0913
32642ION     NA48536   9.792  14.621   9.726 -0.0185 -0.2307 -0.4033
32643ION     NA48537   4.254  17.899   9.857 -0.0339 -0.2873 -0.1091
32644ION     NA48538   2.089   5.977   5.611 -0.0251 -0.0492 -0.2717
32645ION     NA48539  18.958  12.064   9.134  0.0274 -0.1920  0.0613
32646ION     NA48540   6.382   4.422  10.208  0.1793 -0.1434  0.3738
32647ION     NA48541  15.423  13.587   3.598  0.1623 -0.0102  0.3863
32648ION     NA48542  13.791   0.114   9.321  0.2608 -0.1718  0.0462
32649ION     NA48543  16.809  10.572   5.228  0.0600 -0.0189  0.0740
32650ION     NA48544   8.164   8.815   9.644  0.0645  0.3451 -0.2154
32651ION     NA48545   0.200   5.496  10.669  0.1109 -0.0490  0.2189
32652ION     NA48546  10.907   5.487   5.502 -0.0416 -0.0115  0.0025
32653ION     NA48547   7.054   7.640   9.967 -0.0441 -0.2289 -0.3055
32654ION     NA48548   1.262  14.189   9.389  0.1058 -0.1186  0.4793
32655ION     NA48549   1.244   2.728   3.113  0.1256  0.0860  0.0598
32656ION     NA48550   1.464   4.059   5.959  0.3763 -0.0242 -0.0020
32657ION     NA48551   3.074  14.685  13.854 -0.4704  0.0823  0.2624
32658ION     NA48552   3.121   0.111  10.013 -0.2997  0.0005  0.1081
32659ION     NA48553  13.215   2.874  13.421 -0.0897 -0.2245 -0.2233
32660ION     NA48554  16.133  18.828   9.552 -0.1118 -0.2832 -0.2449
32661ION     NA48555   2.302   6.754  10.212  0.3319 -0.0606  0.0707
32662ION     NA48556   5.890   7.721   9.984 -0.2739 -0.2376 -0.0068
32663ION     NA48557   5.798  13.626   2.986  0.1677  0.0589 -0.0146
32664ION     NA48558   4.196   0.511   5.622 -0.1504 -0.0098  0.1195
32665ION     NA48559   8.590  16.604  12.927  0.5034 -0.4345 -0.2078
32666ION     NA48560   4.477  14.464   0.220  0.2230 -0.4817  0.1572
32667ION     NA48561   1.371  10.989   9.468  0.2363  0.2762  0.0344
32668ION     NA48562  15.121  18.345   1.759  0.1072  0.2518 -0.0026
32669ION     NA48563  18.293   4.688  15.081  0.0386  0.1106  0.1372
32670ION     NA48564  17.671  17.656   3.567  0.3475  0.1113 -0.1739
32671ION     NA48565  11.934  19.013   1.918 -0.5358  0.1818  0.0920
32672ION     NA48566   0.319  13.969   5.369 -0.0228 -0.1866  0.1407
32673ION     NA48567  12.175  12.629  10.424 -0.2023  0.2962 -0.0128
32674ION     NA48568   4.085  11.390  13.978  0.0317  0.1569  0.1770
32675ION     NA48569   2.737  11.109  14.300 -0.1926 -0.1922  0.2625
32676ION     NA48570  13.541   8.873   3.846 -0.1559  0.0571  0.3747
32677ION     NA48571  16.766   6.972   9.850 -0.0611 -0.0092  0.2202
32678ION     NA48572   0.417  16.090   5.279 -0.2659  0.1174  0.2058
32679ION     NA48573  11.446  17.912   4.892  0.3411  0.1473  0.2540
32680ION     NA48574  14.132   9.215  14.787 -0.2509 -0.0449  0.4348
32681ION     NA48575   3.553   7.068   9.956 -0.1974 -0.0231  0.2567
32682ION     NA48576   6.680   9.015   5.353  0.1900  0.0700 -0.3223
32683ION     NA48577  11.181  12.743   3.745  0.0265  0.1519  0.0352
32684ION     NA48578   0.852   7.794   5.902  0.1351 -0.0697  0.3595
32685ION     NA48579  18.622  18.304   9.335 -0.0609  0.2625 -0.1326
32686ION     NA48580  17.764  18.061   1.226 -0.1863 -0.0266 -0.1104
32687ION     NA48581   0.359   0.425  12.522 -0.0391  0.3802  0.1021
32688ION     NA48582  18.781   8.807   9.757  0.0583 -0.1558  0.2287
32689ION     NA48583   0.824  17.498   0.509 -0.1992  0.1321  0.0424
32690ION     NA48584   1.280   3.730  10.150  0.1089  0.2347 -0.1269
32691ION     NA48585   9.338   4.924  12.226  0.1090 -0.3398  0.3033
32692ION     NA48586   3.051   8.192   9.970 -0.1610 -0.3444  0.0951
32693ION     NA48587   9.336   8.459   1.602 -0.2997  0.0994 -0.0492
32694ION     NA48588   0.687   0.219   9.484  0.0336 -0.2943  0.5758
32695ION     NA48589  17.207   3.987  14.186  0.3575 -0.0042  0.1215
32696ION     NA48590   4.627  16.855   9.608 -0.3001  0.1593 -0.0521
32697ION     NA48591   2.850  13.470   5.370  0.1735 -0.2586  0.1508
32698ION     NA48592   6.752  12.061   0.087 -0.0495 -0.3395 -0.0615
32699ION     NA48593  14.854  11.066  13.005 -0.0298 -0.1659 -0.0933
32700ION     NA48594   0.412  14.500   9.314 -0.0368  0.3416 -0.0834
32701ION     NA48595  13.775  19.021   9.742  0.1047 -0.0846 -0.3746
32702ION     NA48596  14.620   4.277  10.069 -0.1192  0.3976  0.2417
32703ION     NA48597  16.766  13.007   0.336 -0.0430  0.4881 -0.0204
32704ION     NA48598  10.494   8.459   3.084  0.0330 -0.0293 -0.1049
32705ION     NA48599   8.769   6.760   9.773  0.2996 -0.0379 -0.2066
32706ION     NA48600   5.306   3.949   4.199 -0.1118 -0.1455  0.0527
32707ION     NA48601   2.986  17.628   1.724  0.0659 -0.0169 -0.0930
32708ION     NA48602   2.255  12.090   9.495  0.1730  0.1133  0.2447
32709ION     NA48603   8.828   3.674   5.804  0.2858 -0.5182 -0.1114
32710ION     NA48604  18.775  16.790  14.971 -0.4002  0.4608  0.2141
32711ION     NA48605   3.639  10.793   1.513 -0.0613  0.0156  0.3488
32712ION     NA48606   0.564  13.804   9.245  0.3251 -0.1125  0.0448
32713ION     NA48607   5.109  10.363   9.439 -0.6704  0.1422  0.1121
32714ION     NA48608   6.939  13.768   1.603 -0.1194 -0.2829 -0.2061
32715ION     NA48609  17.908   5.078  10.266  0.1041  0.1435 -0.4427
32716ION     NA48610  17.168  15.747   9.788  0.1843  0.0689  0.1395
32717ION     NA48611   5.042  10.465  11.092  0.1184  0.1530 -0.2956
32718ION     NA48612  12.966   7.506  14.533  0.3564  0.0635  0.3162
32719ION     NA48613  12.032   1.349   0.300  0.0083 -0.3291  0.0850
32720ION     NA48614   5.849   1.284   5.745 -0.1080  0.0600  0.1114
32721ION     NA48615   0.742  12.564  12.133 -0.2598  0.1525 -0.1493
32722ION     NA48616   4.932  10.012   9.763 -0.1448 -0.1663 -0.0725
32723ION     NA48617  16.023   5.212   9.911 -0.0932  0.0750  0.1626
32724ION     NA48618  19.049   4.107  12.616  0.3233  0.1667 -0.0087
32725ION     NA48619  17.063   5.624  12.676 -0.0064  0.0705  0.0785
32726ION     NA48620   9.560   7.624   1.200  0.0578  0.1366  0.0813
32727ION     NA48621   7.005  13.673  14.560  0.4528 -0.0650  0.0186
32728ION     NA48622   9.997  18.654   5.159 -0.4041 -0.2957  0.0250
32729ION     NA48623   3.427   1.281   9.977  0.1437 -0.1260 -0.0546
32730ION     NA48624  12.200   2.983  11.147 -0.0231  0.2247 -0.0253
32731ION     NA48625  18.065  14.057   4.786 -0.1740  0.2405 -0.1247
32732ION     NA48626   9.071   0.395   9.833  0.3549 -0.1621 -0.3216
32733ION     NA48627   6.828   3.205  14.752 -0.1616  0.1666 -0.4319
32734ION     NA48628   8.960   6.227  12.691 -0.0620  0.0885  0.1722
32735ION     NA48629   2.023  13.035   5.244  0.1114  0.1317  0.0836
32736ION     NA48630   5.369   9.383  10.374  0.2611  0.2389  0.0966
32737ION     NA48631  18.667   4.423  10.118 -0.0103  0.1740 -0.0776
32738ION     NA48632   3.263  16.059  10.626 -0.2356  0.3088  0.0699
32739ION     NA48633   2.107  14.536  11.537 -0.3728  0.1591 -0.0211
32740ION     NA48634   4.502   7.748  10.150 -0.3130  0.1213  0.1223
32741ION     NA48635   9.059  17.159  14.938 -0.1480 -0.1036 -0.3716
32742ION     NA48636   1.719   0.064  10.151  0.0513 -0.4124  0.1450
32743ION     NA48637  18.559  10.735   9.619  0.1958 -0.1344  0.0578
32744ION     NA48638   2.077  14.422   9.873 -0.2504  0.4202 -0.1298
32745ION     NA48639  15.011  12.516   9.260 -0.0955 -0.3491 -0.2115
32746ION     NA48640  14.427  17.882   9.613  0.1238  0.0107  0.0545
32747ION     NA48641  18.806  14.751   0.676 -0.2210 -0.1999 -0.3542
32748ION     NA48642  10.788   2.608  10.158 -0.1167 -0.1424 -0.1104
32749ION     NA48643   6.285  12.114   9.638 -0.1871  0.2460  0.2008
32750ION     NA48644   6.985   0.437  10.043  0.0014  0.0979  0.2040
32751ION     NA48645  17.723   2.407  13.621  0.1148  0.4028  0.0792
32752ION     NA48646  11.793  15.400  13.317 -0.0104  0.0756 -0.1521
32753ION     NA48647   2.520   5.309   1.410 -0.0181  0.0058  0.2343
32754ION     NA48648   7.906   3.297   1.020  0.3371 -0.1325  0.0875
32755ION     NA48649   6.864   5.211  10.160  0.2056 -0.0641 -0.3991
32756ION     NA48650   7.119   3.317  12.024  0.0243  0.0057 -0.1657
32757ION     NA48651   6.594   6.101  12.722  0.3202 -0.0345 -0.0555
32758ION     NA48652  18.666  14.693   9.314 -0.3844 -0.3800 -0.1820
32759ION     NA48653  11.410  14.728   5.072  0.1673 -0.0502  0.0704
32760ION     NA48654   1.521  18.376   9.848  0.1721  0.0322 -0.1463
32761ION     NA48655  15.679   4.322   9.911 -0.0989 -0.2216 -0.3814
32762ION     NA48656  10.339  16.510  14.485  0.1092 -0.1544 -0.0219
32763ION     NA48657   1.937   5.300   3.914  0.1442 -0.0426  0.1236
32764ION     NA48658  10.035   3.488  10.046  0.0939 -0.0082  0.1915
32765ION     NA48659  14.642  15.006   9.770 -0.1623 -0.0586 -0.0908
32766ION     NA48660   0.271  15.298   1.893  0.5306  0.0819  0.1216
32767ION     NA48661   8.047  17.170   2.924 -0.1651 -0.3285  0.0238
32768ION     NA48662   0.692   8.222   9.870  0.1008 -0.1221  0.0246
32769ION     NA48663  10.201  13.133   1.898 -0.0102 -0.0080  0.3101
32770ION     NA48664   6.626  15.933   9.217  0.2459 -0.3425 -0.1652
32771ION     NA48665  18.762   4.184   5.867 -0.1677  0.0087  0.0962
32772ION     NA48666   0.281   3.536  11.762 -0.0860  0.0490  0.2964
32773ION     NA48667   8.964   5.445   9.932  0.1394  0.0298 -0.2074
32774ION     NA48668  17.451   6.327  12.552  0.1780  0.0106 -0.1689
32775ION     NA48669  13.747   3.948   9.574 -0.0422  0.0405 -0.0202
32776ION     NA48670  16.181  14.542   4.410 -0.2558 -0.5029  0.0086
32777ION     NA48671  13.634  16.821   5.534 -0.2064  0.1825  0.0434
32778ION     NA48672   3.837  16.452   0.538 -0.1114  0.1292  0.1645
32779ION     NA48673   0.283  18.540   9.534 -0.1130 -0.2382 -0.3650
32780ION     NA48674  17.864  17.119   4.527 -0.0809 -0.4024  0.1081
32781ION     NA48675   1.288   0.792  10.172 -0.1205 -0.3262  0.3311
32782ION     NA48676   5.057  15.478   9.530  0.2382  0.1901  0.2409
32783ION     NA48677   4.212  14.781   4.048 -0.0047  0.1007  0.3246
32784ION     NA48678  15.017  16.973  11.190  0.0426 -0.1968 -0.0243
32785ION     NA48679   5.952   6.100  10.983  0.1247  0.0454 -0.0268
32786ION     NA48680  12.891   2.211   9.303  0.0463 -0.0903 -0.3060
32787ION     NA48681  17.526   7.061   5.824  0.0319  0.1017 -0.2328
32788ION     NA48682   1.390   1.722  10.287 -0.0220 -0.0088  0.1834
32789ION     NA48683  14.641  18.977   9.594 -0.1940 -0.3459  0.2098
32790ION     NA48684  10.830  11.694   9.591 -0.0965  0.0810 -0.2595
32791ION     NA48685  12.842   4.451   3.219  0.1767  0.0301  0.1853
32792ION     NA48686  10.753  17.900   9.628  0.1793 -0.0120  0.0537
32793ION     NA48687  14.024  17.086   4.581  0.0169 -0.0629 -0.1407
32794ION     NA48688   4.021   6.552   5.512  0.1316 -0.0273 -0.0397
32795ION     NA48689   6.243   5.949  10.083 -0.2058 -0.1417  0.2164
32796ION     NA48690   8.810  16.368  11.676 -0.0228 -0.2240  0.0851
32797ION     NA48691   7.347  18.756  10.615 -0.2979 -0.2746 -0.0769
32798ION     NA48692  14.641   1.643   9.658 -0.1250  0.0600  0.1995
32799ION     NA48693   0.203   8.900   5.627 -0.2229  0.0940 -0.1982
32800ION     NA48694   4.804   8.689  10.330  0.0392 -0.0080 -0.5658
32801ION     NA48695   8.059   1.950   9.861  0.3946  0.1209  0.0719
32802ION     NA48696  14.720   9.103   5.397  0.2683 -0.4090  0.1287
32803ION     NA48697  18.108  11.942   9.590  0.0309 -0.3442 -0.0892
32804ION     NA48698  13.366   8.938   1.405  0.0363 -0.0047 -0.0020
32805ION     NA48699   3.271  17.741   9.860  0.0271  0.2182 -0.0713
32806ION     NA48700  13.407  14.417   9.505 -0.5444  0.1272 -0.2862
32807ION     NA48701  11.891  15.604   9.200 -0.2316  0.1822 -0.2518
32808ION     NA48702  14.595  11.761   9.440  0.0203 -0.1778  0.0389
32809ION     NA48703  15.577  13.303   9.435 -0.1559  0.1350  0.0319
32810ION     NA48704   3.977   0.360   9.860 -0.0878  0.3174  0.1326
32811ION     NA48705   4.662   8.820   5.586 -0.1509  0.0970  0.4474
32812ION     NA48706  16.555   2.384   5.423 -0.0561  0.0566  0.1528
32813ION     NA48707  14.546  19.214   4.124 -0.0451  0.0207 -0.1023
32814ION     NA48708  10.638  13.512  14.818 -0.0102 -0.1548 -0.0995
32815ION     NA48709   4.902  11.412  12.713  0.2327  0.0277  0.3367
32816ION     NA48710  10.215   3.507   3.261  0.3410 -0.4411  0.2464
32817ION     NA48711  17.988  17.484   9.505  0.3915 -0.3055 -0.0170
32818ION     NA48712  14.539  13.493   9.454 -0.0697  0.1523  0.0262
32819ION     NA48713  11.894  17.482   9.484 -0.1873  0.1193 -0.4921
32820ION     NA48714  17.063   3.634  10.108  0.1192  0.1582 -0.1975
32821ION     NA48715  17.333   0.594   3.142 -0.2410  0.0127  0.0247
32822ION     NA48716  13.538  17.179   9.343  0.1767 -0.0580 -0.1382
32823ION     NA48717  18.863   7.149   6.126  0.1616 -0.1891  0.0444
32824ION     NA48718   6.601  11.183   5.077  0.1751 -0.0025  0.2651
32825ION     NA48719   4.814  14.544   9.379 -0.0876  0.0910 -0.0451
32826ION     NA48720  14.292   1.767  12.707 -0.0530 -0.0634 -0.0368
32827ION     NA48721   7.474  16.003   9.129 -0.1723 -0.0100  0.1732
32828ION     NA48722   7.549  18.824   9.612  0.0665 -0.0454  0.2400
32829ION     NA48723   6.776  13.720   9.694 -0.1621  0.0626  0.0093
32830ION     NA48724   6.530  11.762  13.495  0.2166  0.4251  0.1594
32831ION     NA48725   4.574   4.452  11.756  0.1080 -0.2315 -0.1422
32832ION     NA48726   8.907  10.472   9.442 -0.0581  0.0519  0.0450
32833ION     NA48727  16.319  11.620   9.697  0.1275 -0.0448  0.0894
32834ION     NA48728   5.981  16.550   9.515 -0.1253  0.0071 -0.1089
32835ION     NA48729   1.644  17.122   9.649 -0.1205  0.0417 -0.2259
32836ION     NA48730  15.165   7.579   5.773  0.0554 -0.2147  0.2079
32837ION     NA48731  10.806   7.012   9.465  0.0183 -0.1292 -0.2991
32838ION     NA48732   2.342   9.047  12.383  0.1799  0.0082  0.0046
32839ION     NA48733   4.225   6.803   0.290  0.1535  0.1422 -0.1621
32840ION     NA48734   4.729   1.132   9.741 -0.2734  0.0043  0.3903
32841ION     NA48735   1.766  11.860   9.498 -0.0141  0.2143  0.6601
32842ION     NA48736  17.787  16.706   9.290  0.6249 -0.2713  0.0571
32843ION     NA48737   4.413   7.099   5.732 -0.0688  0.0390 -0.3142
32844ION     NA48738  11.651   3.614   3.205  0.0096  0.1314 -0.2574
32845ION     NA48739  18.820  13.095   9.023 -0.0521 -0.1071 -0.1278
32846ION     NA48740  15.182  15.639   9.361  0.3587 -0.0248  0.1714
32847ION     NA48741   8.104   7.835   9.529 -0.2677  0.2073  0.0202
32848ION     NA48742   1.794  10.638   3.226 -0.1264 -0.1902 -0.1388
32849ION     NA48743  11.296  18.695   9.750 -0.0095  0.1753 -0.3813
32850ION     NA48744  12.915  10.460   9.775  0.1150  0.0161  0.0961
32851ION     NA48745  14.637  18.823   2.158  0.0806  0.0496  0.1623
32852ION     NA48746  14.006   3.069   9.403  0.3508 -0.3405 -0.0139
32853ION     NA48747   3.777  12.076   4.534 -0.1021 -0.1796  0.0861
32854ION     NA48748   6.545  12.756   9.512 -0.2287 -0.1332 -0.0430
32855ION     NA48749   3.276   6.742  10.149 -0.3146  0.1966 -0.0048
32856ION     NA48750  12.462   4.532  13.511 -0.0708 -0.0722  0.2816
32857ION     NA48751  11.569   9.194   5.187 -0.2628  0.0609  0.0371
32858ION     NA48752  12.746   3.086   5.537 -0.1373 -0.1000 -0.2126
32859ION     NA48753   1.652  10.149   9.487 -0.0076 -0.0606 -0.0039
32860ION     NA48754   9.520  12.361   5.401 -0.0180  0.3300  0.0886
32861ION     NA48755   8.588  11.014   9.470  0.3137 -0.3165  0.2004
32862ION     NA48756   4.026   1.000  10.044 -0.1886 -0.1050 -0.1387
32863ION     NA48757  15.913   3.209   3.470 -0.0247  0.4174 -0.1155
32864ION     NA48758   3.732   5.848  10.222 -0.0932 -0.0509  0.1897
32865ION     NA48759  11.030   3.393   9.681  0.3232 -0.1337  0.1322
32866ION     NA48760   5.599  12.524   9.829 -0.0189  0.1139 -0.0889
32867ION     NA48761   8.622   2.066  14.914  0.1681 -0.0786  0.1685
32868ION     NA48762   1.564   2.749  10.395 -0.1789 -0.0053  0.1433
32869ION     NA48763  10.311   5.812   4.874  0.1502 -0.1880  0.2509
32870ION     NA48764  12.996  11.695   5.064 -0.2518 -0.0712 -0.0671
32871ION     NA48765  14.459   1.776  11.290  0.0939 -0.0202 -0.1006
32872ION     NA48766  18.393  13.841   3.291 -0.1305  0.0193 -0.2526
32873ION     NA48767  16.845  16.389   9.386  0.2232  0.1533 -0.0683
32874ION     NA48768   2.796  17.638  14.712  0.0556  0.0351  0.0748
32875ION     NA48769   9.331  13.136   9.415 -0.3157  0.0406  0.3256
32876ION     NA48770  11.596  12.447  14.888 -0.1233 -0.1017 -0.1181
32877ION     NA48771   4.054  13.998   9.347  0.4156 -0.1309 -0.2292
32878ION     NA48772  15.485  18.302   9.548 -0.1625 -0.1742  0.1620
32879ION     NA48773   7.239  12.215   9.285  0.1068  0.1879  0.2567
32880ION     NA48774   0.882  13.751   3.969 -0.1392  0.2043  0.1432
32881ION     NA48775   2.867  11.861   2.736 -0.0680  0.0082 -0.0759
32882ION     NA48776  14.671   3.027   9.360  0.1149  0.2749  0.1132
32883ION     NA48777  13.421  12.627   1.159  0.0257 -0.1033  0.0078
32884ION     NA48778  12.832   6.364   9.890  0.1656  0.0450 -0.2349
32885ION     NA48779  18.529   5.971  10.534  0.0922  0.2814  0.0658
32886ION     NA48780  12.298  14.244   9.092 -0.1031 -0.3122  0.2196
32887ION     NA48781   7.812  10.014   9.873 -0.0783 -0.2166 -0.1960
32888ION     NA48782   9.371  11.528   9.443  0.1601  0.1782  0.0353
32889ION     NA48783   0.322   4.591   6.116  0.2468  0.0638  0.2138
32890ION     NA48784  11.313   3.023   9.453  0.4252 -0.1869 -0.0441
32891ION     NA48785  10.229   8.312   9.650 -0.1275 -0.1168  0.0664
32892ION     NA48786   7.461  11.145   5.155  0.3440  0.0290  0.1933
32893ION     NA48787  13.043   3.608   9.893 -0.1966 -0.1153  0.0315
32894ION     NA48788  17.099  12.589   9.375  0.0386  0.1018  0.2243
32895ION     NA48789   8.600  12.501   5.197 -0.0666 -0.0221  0.1049
32896ION     NA48790   3.967   4.199  14.162  0.0982  0.0882 -0.1971
32897ION     NA48791   2.483   5.333  10.797 -0.0252 -0.1226 -0.2185
32898ION     NA48792  12.653  11.124  13.575 -0.2274 -0.0311 -0.0255
32899ION     NA48793   9.647   4.711   5.016  0.2345  0.3344 -0.3732
32900ION     NA48794  16.626  13.030   2.994  0.3693  0.4215  0.0739
32901ION     NA48795   4.048  11.615   9.444 -0.1473  0.2060 -0.2152
32902ION     NA48796   0.295  11.363   9.297  0.0453 -0.1385 -0.3280
32903ION     NA48797   8.155  17.462   0.117  0.0090 -0.0439 -0.5923
32904ION     NA48798  13.200   4.708   2.172  0.2457 -0.0547 -0.0623
32905ION     NA48799   9.733  10.041   9.561 -0.0255  0.6001 -0.0640
32906ION     NA48800   1.010  16.993   9.655 -0.0163 -0.1739  0.0440
32907ION     NA48801   8.894  15.181   5.214 -0.1884 -0.0366  0.1235
32908ION     NA48802   9.205   3.498  10.127 -0.1967  0.0248 -0.0067
32909ION     NA48803  17.058   0.363   1.307 -0.1323  0.1035 -0.1990
32910ION     NA48804  15.438   0.549   9.793 -0.0307 -0.1531 -0.1322
32911ION     NA48805   1.803   0.563  13.405  0.2248  0.0642 -0.0004
32912ION     NA48806  11.257  16.951   9.467 -0.1980  0.1244 -0.2159
32913ION     NA48807   7.563   4.410  10.515 -0.1111 -0.0214  0.1554
32914ION     NA48808  17.864  13.659   5.328 -0.1464  0.0189  0.0899
32915ION     NA48809   1.584  17.583  11.695  0.4752 -0.0987  0.1513
32916ION     NA48810  13.084   8.696  10.000 -0.0424 -0.1264  0.1618
32917ION     NA48811   9.728  17.677   9.474  0.3352 -0.4299  0.2184
32918ION     NA48812  16.491   8.541   9.832 -0.0836  0.1515  0.1115
32919ION     NA48813  15.553   5.836  10.126 -0.2894 -0.1011  0.0799
32920ION     NA48814   1.327   4.263   1.665  0.0832 -0.0792  0.0841
32921ION     NA48815  10.742   1.378   1.567 -0.0579  0.2771 -0.4386
32922ION     NA48816   9.864  15.347   9.489  0.0449 -0.0355 -0.1394
32923ION     NA48817  14.110  13.192   9.407  0.2407  0.3032 -0.0385
32924ION     NA48818   8.390  14.109   9.413  0.0779  0.0077  0.3012
32925ION     NA48819   3.491   9.552  11.245  0.3197 -0.1207  0.0424
32926ION     NA48820  10.754   4.718  11.815  0.4143 -0.1508 -0.0654
32927ION     NA48821  10.063   0.807   9.819  0.0010 -0.1871 -0.1553
32928ION     NA48822   2.944   3.144  11.230 -0.4558  0.2194 -0.0203
32929ION     NA48823   6.126   9.198   9.989  0.1595  0.0782  0.1074
32930ION     NA48824   2.453  16.330  11.579  0.1983 -0.2435 -0.2182
32931ION     NA48825  12.604  18.219   9.743 -0.1603  0.0525  0.0153
32932ION     NA48826   9.792   0.693  10.794  0.1720  0.1388  0.0454
32933ION     NA48827   2.667   5.908  10.264  0.0881  0.0866 -0.0758
32934ION     NA48828  12.066   7.532  10.243 -0.1542 -0.0976  0.1365
32935ION     NA48829  18.937  13.998  11.025 -0.0524  0.1035  0.0488
32936ION     NA48830   8.468   3.278   5.528 -0.1012  0.0248 -0.3477
32937ION     NA48831  17.092  17.295   9.345  0.1202  0.2960  0.1156
32938ION     NA48832   9.178  18.380   9.532  0.0953 -0.1196  0.0164
32939ION     NA48833   2.993   0.449   2.485 -0.1338 -0.1249  0.0061
32940ION     NA48834  16.812  11.546   5.312  0.0888  0.0083 -0.0367
32941ION     NA48835  18.643   7.021  10.055 -0.0004 -0.0181 -0.1199
32942ION     NA48836  12.545   4.314   0.360 -0.3907 -0.0644 -0.0883
32943ION     NA48837  15.320   4.764   5.546  0.0068 -0.1196 -0.0343
32944ION     NA48838  11.533   4.119   9.519 -0.1616  0.2167 -0.1986
32945ION     NA48839  17.062  11.795   4.322  0.0039 -0.2379 -0.0942
32946ION     NA48840  10.531   1.685   9.828 -0.1934 -0.0227 -0.1479
32947ION     NA48841  14.907   3.563   9.512 -0.1764 -0.2155 -0.0575
32948ION     NA48842   5.447   9.363   4.125  0.1450 -0.1204  0.1624
32949ION     NA48843  13.654  16.881  11.695  0.4199 -0.1106 -0.0408
32950ION     NA48844  13.892   1.019   9.496 -0.1279  0.1980  0.0506
32951ION     NA48845  11.545   5.061   9.701 -0.0968  0.3912 -0.0871
32952ION     NA48846   5.419  16.912   9.453 -0.2039 -0.1955 -0.0170
32953ION     NA48847   2.611  10.528  13.172 -0.1850  0.1983  0.0173
32954ION     NA48848   9.382   7.458   4.132 -0.3498  0.3730 -0.0782
32955ION     NA48849   2.816  16.204   5.169  0.1693 -0.1576  0.0332
32956ION     NA48850  18.248   6.792  10.482 -0.1009 -0.0770 -0.2987
32957ION     NA48851  13.013   5.471   9.818  0.2188 -0.2863 -0.3064
32958ION     NA48852  18.557   9.057   0.906  0.2028 -0.0059 -0.0599
32959ION     NA48853  10.853   3.607   4.089 -0.2581 -0.2995 -0.2819
32960ION     NA48854  12.390   8.931  11.576  0.1786  0.2051  0.2966
32961ION     NA48855  18.348  14.290   2.181 -0.1580 -0.0346  0.0193
32962ION     NA48856   2.814  15.875   5.567  0.5753 -0.0458 -0.1169
32963ION     NA48857   8.658   2.993   1.656  0.1412 -0.3290 -0.2688
32964ION     NA48858   4.139  10.710   9.491  0.1484 -0.2315  0.1288
32965ION     NA48859  12.024   2.423   1.170  0.0508 -0.0013 -0.1909
32966ION     NA48860   4.285   0.711   3.391  0.0646 -0.2535  0.0467
32967ION     NA48861   1.858  10.000  10.859  0.0036  0.0506 -0.0772
32968ION     NA48862   0.836  10.100   9.962 -0.2540  0.3477 -0.1659
32969ION     NA48863  15.095   7.261   9.807 -0.0023 -0.0704 -0.0208
32970ION     NA48864  11.490   0.736   0.525  0.1253 -0.2749 -0.1765
32971ION     NA48865   5.122   9.048  10.085 -0.1451  0.3451 -0.1501
32972ION     NA48866  18.029   3.684  10.200 -0.1120  0.2858 -0.3282
32973ION     NA48867   8.449  13.082   9.387 -0.2296  0.0125 -0.1726
32974ION     NA48868  12.913   9.599  10.071  0.1912 -0.0362 -0.2236
32975ION     NA48869   9.587   6.224   9.531  0.0852 -0.1402  0.2868
32976ION     NA48870   6.720  16.860   5.087  0.0067 -0.4147 -0.1288
32977ION     NA48871   6.882   7.023   3.732  0.0152 -0.0239 -0.2226
32978ION     NA48872   1.708   6.170  10.074  0.2198 -0.0999  0.2015
32979ION     NA48873  12.686  17.442   5.060  0.0718 -0.1707  0.1157
32980ION     NA48874   3.341  12.122   9.483  0.0109  0.2747  0.0303
32981ION     NA48875  15.278  10.181   9.721  0.2144  0.3533  0.2447
32982ION     NA48876   4.836  15.465   4.976 -0.0406 -0.0197 -0.1026
32983ION     NA48877   6.593   1.629  10.280  0.0674  0.1482  0.0045
32984ION     NA48878   0.816  17.631   9.579 -0.1240 -0.1434 -0.1397
32985ION     NA48879  12.003   9.613   9.950 -0.2501 -0.1321 -0.0553
32986ION     NA48880   0.037  18.122  13.395  0.2294 -0.0383 -0.2672
32987ION     NA48881   6.969   9.442   9.849 -0.1517 -0.4224 -0.0210
32988ION     NA48882   7.824   0.758   2.285 -0.1776 -0.3869  0.1620
32989ION     NA48883   7.504   8.022   9.929  0.2936  0.0278  0.0231
32990ION     NA48884  16.538  14.330  14.517  0.2474  0.0424  0.5060
32991ION     NA48885  11.186  14.318   9.512  0.4826 -0.2730  0.0701
32992ION     NA48886  15.002   3.747   5.643 -0.1389 -0.1557  0.0227
32993ION     NA48887   4.195   9.300  10.126 -0.0912 -0.1160  0.3201
32994ION     NA48888  17.255   9.668   1.559  0.0375  0.0315 -0.3337
32995ION     NA48889   6.681   0.755  13.278  0.3903 -0.0399  0.4305
32996ION     NA48890   9.377   4.566   9.902  0.1419  0.1730  0.1857
32997ION     NA48891   1.523  12.320  11.632  0.0405 -0.0194  0.2575
32998ION     NA48892   4.380   5.185  10.330 -0.0459 -0.1761 -0.0685
32999ION     NA48893   5.890  17.285  11.022 -0.0871  0.0867  0.0835
33000ION     NA48894  13.088  14.322   1.060  0.3845 -0.0539  0.2073
33001ION     NA48895  16.916   5.472  10.021  0.0048 -0.0053 -0.2469
33002ION     NA48896   2.266  11.087   9.785 -0.0627 -0.1252 -0.2469
33003ION     NA48897   6.750  17.596  11.233  0.0399 -0.4080 -0.0277
33004ION     NA48898  14.477   3.156   4.843 -0.0767  0.0767 -0.0604
33005ION     NA48899   0.066   6.515  10.316  0.0683 -0.2476  0.0713
33006ION     NA48900   0.130  10.780   2.198  0.1550  0.1688 -0.0437
33007ION     NA48901  11.946   0.412   5.175 -0.0439 -0.2091  0.0191
33008ION     NA48902   5.716  18.292   9.907  0.1356  0.2203 -0.0686
33009ION     NA48903  11.921  18.124  10.984 -0.0919 -0.2189  0.3111
33010ION     NA48904  13.556   5.298   0.657 -0.0298 -0.0611 -0.0776
33011ION     NA48905   2.424  13.781  12.781 -0.0725 -0.0878 -0.0194
33012ION     NA48906   0.346   4.848  10.102  0.3167 -0.1597  0.1921
33013ION     NA48907  10.487   9.159   9.668 -0.2068 -0.1931  0.2025
33014ION     NA48908   2.156   8.565   9.838 -0.1905 -0.1232 -0.3592
33015ION     NA48909  14.857   3.029  10.872 -0.0083  0.7086  0.0350
33016ION     NA48910   8.471  17.099   9.255  0.0371  0.0968 -0.1444
33017ION     NA48911  12.469   9.262  14.950  0.1925 -0.2398 -0.2121
33018ION     NA48912   7.630   6.720   9.994  0.0602  0.0764 -0.0968
33019ION     NA48913   5.238   7.852  10.097  0.3797  0.1518  0.1679
33020ION     NA48914  12.259  10.174   3.499  0.0304  0.1788  0.1869
33021ION     NA48915   7.521  13.064   9.430  0.0292 -0.3033  0.3537
33022ION     NA48916  16.391  13.292   9.333 -0.1452  0.2177  0.2559
33023ION     NA48917   8.641  15.645   4.950 -0.2691 -0.1236  0.2364
33024ION     NA48918  19.210  10.687   0.540  0.1409 -0.0748 -0.3363
33025ION     NA48919   9.615  14.703  11.811 -0.1316  0.2941  0.4689
33026ION     NA48920   4.206  12.686  10.126  0.0615  0.0198  0.1039
33027ION     NA48921   2.527  16.631  14.885 -0.0143  0.0904  0.1701
33028ION     NA48922  18.074  10.619   5.621  0.3959  0.0616 -0.4206
33029ION     NA48923   9.242   2.654   9.889  0.0228  0.0013 -0.2700
33030ION     NA48924   8.174   0.118   5.296  0.2147  0.0902 -0.5518
33031ION     NA48925  15.796   1.493   9.743  0.3312  0.0885 -0.1809
33032ION     NA48926   7.665  14.603   9.475  0.1878  0.1257  0.0893
33033ION     NA48927   0.721   7.693  10.006  0.2540 -0.1253 -0.1375
33034ION     NA48928  13.027  11.618  11.749  0.1895 -0.1804 -0.0628
33035ION     NA48929   6.083  18.547   5.718  0.1081 -0.1479  0.0471
33036ION     NA48930  14.169  17.926   5.222  0.0549 -0.3442 -0.1013
33037ION     NA48931  12.566  14.141   1.143 -0.0730 -0.0141 -0.1603
33038ION     NA48932   5.238   1.924  10.569 -0.1527  0.0073 -0.2714
33039ION     NA48933   2.341   1.967   5.717  0.1727 -0.0647 -0.0415
33040ION     NA48934  12.960  15.919   4.971  0.2636  0.3102  0.1283
33041ION     NA48935  12.147   9.905  11.520  0.0156  0.1160  0.3347
33042ION     NA48936   1.632   5.075  10.261 -0.0265  0.2154  0.0971
33043ION     NA48937   5.996   6.330   4.440 -0.0673 -0.0934  0.1936
33044ION     NA48938  11.430  12.542   9.422 -0.1157 -0.4049 -0.1039
33045ION     NA48939   0.994  14.600   9.203 -0.5670  0.2037 -0.1758
33046ION     NA48940  12.661   8.096   3.206 -0.0358  0.1232 -0.0492
33047ION     NA48941   8.849  14.636  10.265  0.0638  0.0464 -0.1888
33048ION     NA48942  16.345  18.718  12.103  0.3434  0.2613  0.0878
33049ION     NA48943   9.955   7.786   5.472  0.0642  0.2781  0.0710
33050ION     NA48944   7.624   6.517   5.138 -0.1950 -0.2773 -0.1954
33051ION     NA48945  13.580   5.857   9.798 -0.3694  0.2125  0.1289
33052ION     NA48946   2.432   9.344   5.074 -0.1537  0.1115  0.1445
33053ION     NA48947   6.618   2.938   2.554 -0.1601 -0.1931  0.1497
33054ION     NA48948   9.931   7.519   9.231  0.1302  0.0549  0.2672
33055ION     NA48949  12.984   0.531   9.431  0.1137  0.0699 -0.2417
33056ION     NA48950   3.327  14.601   2.214  0.0117 -0.0738  0.4340
33057ION     NA48951   9.235  12.414   9.429  0.2368 -0.0084 -0.1133
33058ION     NA48952   6.877   7.044   0.158  0.0833 -0.1205  0.3639
33059ION     NA48953  12.705  10.583   5.471  0.1553  0.3797  0.0399
33060ION     NA48954  11.644  14.038  13.032  0.0431  0.0240 -0.0560
33061ION     NA48955  15.653   2.434   5.493  0.0150  0.0945 -0.0033
33062ION     NA48956  16.069  15.895   9.612  0.0225 -0.1767  0.4047
33063ION     NA48957   1.041  16.737   5.482  0.3274  0.1073  0.1953
33064ION     NA48958  13.669   1.901   9.552 -0.0055  0.0098  0.0232
33065ION     NA48959  12.671  14.897   9.254  0.0416 -0.1396  0.1587
33066ION     NA48960   6.679  17.278   9.390 -0.2801  0.2851 -0.2370
33067ION     NA48961   7.629  15.139   9.365  0.0510  0.0732  0.0534
33068ION     NA48962  10.265   6.890  10.265  0.1872  0.0136 -0.4368
33069ION     NA48963   4.390  15.292   9.567  0.0506 -0.1540 -0.2451
33070ION     NA48964   3.063  16.328   9.831 -0.1684 -0.1567  0.2288
33071ION     NA48965   9.889  18.532   0.108  0.2384 -0.0931  0.3684
33072ION     NA48966   0.371  12.248   9.246 -0.0784 -0.0563  0.0478
33073ION     NA48967   6.422   6.854  10.170  0.1770  0.0691 -0.0927
33074ION     NA48968   9.970   1.437   5.306  0.3730  0.1271 -0.0515
33075ION     NA48969  10.002  15.982   9.295 -0.1084  0.0693 -0.0805
33076ION     NA48970  12.875   0.457  10.861  0.1790  0.2965 -0.0533
33077ION     NA48971   6.705  13.033   0.074 -0.2838 -0.0405 -0.0902
33078ION     NA48972   3.988   4.334  10.186  0.0990  0.1266  0.2315
33079ION     NA48973  13.017  13.592   9.375  0.0046 -0.2875  0.1074
33080ION     NA48974  14.140  14.957   9.671 -0.3217 -0.3120 -0.0375
33081ION     NA48975  11.752   9.988  11.090 -0.1906 -0.1032  0.3052
33082ION     NA48976   7.492   2.847   9.881  0.0659  0.0232 -0.1882
33083ION     NA48977   6.517   2.018  11.320 -0.2825  0.0790 -0.3523
33084ION     NA48978  13.762  11.560   9.775  0.0451 -0.4953  0.1690
33085ION     NA48979   9.954   5.822   9.915 -0.1276  0.1164  0.1346
33086ION     NA48980  12.461  12.412   9.394 -0.1238  0.0640  0.1538
33087ION     NA48981  15.831  12.541   9.481 -0.0828 -0.4249 -0.1290
33088ION     NA48982   2.721   3.038   3.353 -0.1107 -0.2449  0.0095
33089ION     NA48983   2.467  13.614   9.269  0.1529 -0.0946 -0.1807
33090ION     NA48984  14.988  14.817   5.262 -0.2706 -0.1534  0.0803
33091ION     NA48985   5.944   3.971  13.174  0.3783 -0.1435  0.3405
33092ION     NA48986  17.906   2.023   5.485 -0.1617  0.0437  0.2160
33093ION     NA48987   7.147  18.515  14.528 -0.0711 -0.1832  0.0999
33094ION     NA48988   3.485  18.463  10.170 -0.1558  0.2896 -0.5271
33095ION     NA48989   5.789  13.973  11.268 -0.1464 -0.4108  0.0594
33096ION     NA48990   9.308  16.737   9.459 -0.0302 -0.4521 -0.0718
33097ION     NA48991   6.863  14.634   9.070 -0.1334 -0.0151  0.0613
33098ION     NA48992  13.691  17.189   4.165 -0.0967  0.1774 -0.1703
33099ION     NA48993   9.926  12.291   9.446 -0.0295 -0.1151 -0.1983
33100ION     NA48994   1.255  17.785   5.444 -0.0312  0.2718 -0.3882
33101ION     NA48995  16.870  14.852   9.564  0.1524 -0.2174 -0.0432
33102ION     NA48996  15.282  17.146   9.386 -0.1041 -0.1252  0.1589
33103ION     NA48997  15.493   9.229   1.480 -0.4035  0.0642  0.0910
33104ION     NA48998   8.099  11.209  11.840 -0.1362  0.1146  0.0397
33105ION     NA48999  10.891   6.125  10.332  0.0080  0.0064 -0.0305
33106ION     NA49000   4.838   7.387  11.991  0.1372  0.2472 -0.1502
33107ION     NA49001  16.877  14.049   5.499 -0.0766  0.1362  0.0396
33108ION     NA49002  14.661   0.654   9.702  0.1002 -0.0301  0.0161
33109ION     NA49003   7.959  10.457   9.619 -0.3697  0.0160 -0.1155
33110ION     NA49004  17.081   4.549  10.133  0.0050 -0.0345  0.0763
33111ION     NA49005   0.356   3.939  10.009 -0.1981  0.1115 -0.3591
33112ION     NA49006  13.713  10.184   5.361 -0.3127 -0.2362 -0.2241
33113ION     NA49007  16.796   2.755   9.993 -0.0242  0.2830  0.2317
33114ION     NA49008  17.464   1.348   9.757  0.4318 -0.1146 -0.1074
33115ION     NA49009  11.604   7.855   9.571 -0.0850  0.0684 -0.1226
33116ION     NA49010   5.370   0.208  10.068 -0.4183  0.0982 -0.1097
33117ION     NA49011   0.583   6.810   6.016 -0.1287  0.1570 -0.1342
33118ION     NA49012   0.903  11.445  10.007  0.0645  0.0878 -0.0517
33119ION     NA49013  16.608   0.999   9.983 -0.0119 -0.2934  0.3865
33120ION     NA49014   1.903   5.053  12.432 -0.0516 -0.1935 -0.0727
33121ION     NA49015   8.886  13.588   4.795 -0.0764 -0.1329 -0.1284
33122ION     NA49016  14.576   2.953   1.407  0.1483  0.0308 -0.3135
33123ION     NA49017   7.859   0.353   9.914  0.0157  0.0887 -0.1112
33124ION     NA49018  14.184  15.915   9.736  0.1056  0.1022 -0.1262
33125ION     NA49019   0.067  17.505   9.463 -0.0266 -0.1392 -0.1865
33126ION     NA49020   4.922  13.580   9.395 -0.0619 -0.1200 -0.2435
33127ION     NA49021  15.811  10.851   9.830  0.0619  0.2198  0.0848
33128ION     NA49022  14.761  14.303  10.061  0.3596 -0.0643 -0.1948
33129ION     NA49023  13.587   8.243   9.832  0.1368 -0.3160  0.5383
33130ION     NA49024   0.903   3.733  13.244 -0.0111  0.0080 -0.0019
33131ION     NA49025  12.776  13.034   9.215 -0.1606 -0.0989 -0.1873
33132ION     NA49026  13.697  12.327   9.361 -0.0859  0.1394 -0.2244
33133ION     NA49027  14.642   1.696  10.250 -0.0817  0.1337 -0.0815
33134ION     NA49028  12.217  10.046  10.064  0.1118 -0.1585 -0.2064
33135ION     NA49029   6.865   5.251   3.884  0.1479  0.0271  0.0815
33136ION     NA49030   2.598  11.755  10.526 -0.2692 -0.0642 -0.2103
33137ION     NA49031   5.859  18.379   1.027  0.1919 -0.0368  0.1409
33138ION     NA49032   5.753  11.109   9.530 -0.1118  0.2832 -0.0553
33139ION     NA49033  18.379  15.207   9.487  0.1762  0.0062 -0.1810
33140ION     NA49034   3.123  18.322  14.669 -0.3453 -0.1608 -0.0679
33141ION     NA49035  13.754   0.601   4.449 -0.3145 -0.0831  0.4523
33142ION     NA49036   3.973   6.572  10.130 -0.2201  0.1310 -0.0553
33143ION     NA49037  17.292   7.692   9.821 -0.1886 -0.1068  0.1146
33144ION     NA49038  14.804   5.164   3.817 -0.0752 -0.0839 -0.2271
33145ION     NA49039  10.672  10.787   9.555  0.2028  0.3205  0.1639
33146ION     NA49040   7.350  18.060   9.503 -0.4144  0.1511  0.2417
33147ION     NA49041   4.933  18.650  10.084 -0.1647 -0.0383 -0.1617
33148ION     NA49042   4.901   1.458   0.375 -0.4103 -0.2540  0.1209
33149ION     NA49043   1.321   1.351   5.669  0.1468  0.3265 -0.0655
33150ION     NA49044   7.227   5.829  10.073  0.1674  0.1577 -0.0699
33151ION     NA49045   4.334  19.052   1.945  0.0492 -0.0252  0.2715
33152ION     NA49046   6.810  10.401   5.090 -0.0238 -0.1674  0.0680
33153ION     NA49047  15.798  16.872   4.998  0.3311 -0.1051  0.1140
33154ION     NA49048   0.233   7.391  10.040  0.0230  0.0947 -0.1474
33155ION     NA49049   6.820   8.611   9.925 -0.2379 -0.0514 -0.1272
33156ION     NA49050   3.298  16.267   4.297 -0.0271 -0.0868  0.0267
33157ION     NA49051  15.132   3.291  10.207  0.2041 -0.0399  0.0693
33158ION     NA49052   8.516  14.873   9.559  0.0550  0.1238  0.3336
33159ION     NA49053  16.215  14.325   9.446 -0.1174 -0.4432  0.0052
33160ION     NA49054   0.410  12.818   9.278  0.2013 -0.2629  0.0839
33161ION     NA49055  11.142  19.175   9.581 -0.1480 -0.1868 -0.2795
33162ION     NA49056   8.395   0.981   9.863  0.2636 -0.2174  0.1188
33163ION     NA49057  18.023   8.446   9.794 -0.0874 -0.1480 -0.1124
33164ION     NA49058  11.964   8.731  10.286 -0.0914  0.2065  0.0207
33165ION     NA49059   7.675  13.616   9.433 -0.1265 -0.0063  0.0345
33166ION     NA49060   2.460   3.263  10.334  0.0789 -0.0473  0.1242
33167ION     NA49061  15.064   8.210   9.604 -0.2370  0.1480  0.1950
33168ION     NA49062  18.799   6.241   4.156 -0.2075  0.0468 -0.1554
33169ION     NA49063  17.614  10.920   9.624 -0.0448  0.2989  0.0375
33170ION     NA49064   8.216   5.283   9.990 -0.2668 -0.1122  0.0857
33171ION     NA49065  12.107   0.066   9.383  0.3953  0.0278 -0.1491
33172ION     NA49066  10.949  15.969   9.334 -0.0971  0.1450  0.0731
33173ION     NA49067  14.691  17.906   1.578  0.0463  0.1336 -0.0578
33174ION     NA49068  11.182   8.945  10.064 -0.0051  0.3981  0.2566
33175ION     NA49069  14.573  10.786   9.507 -0.4745 -0.1013 -0.1911
  19.22459  19.22459  15.10966
