INSANE! Membrane UpperLeaflet>loPI:POPI:DPPI:PYPI:ERGO=180.0:5.0:3.0:2.0:10.0 LowerLeaflet>PSPI:POPI:POPS:YOPS:POPE:YOPE:POPC:YOPC:ERGO=6.0:14.0:21.0:9.0:9.0:21.0:12.0:48.0:60.0
49069
    1loPI    C1    1  13.501   4.686  10.742 -0.0765  0.0924 -0.0373
    1loPI    C2    2  13.574   5.053  10.881  0.0409  0.0456  0.0267
    1loPI    C3    3  13.199   4.915  10.869  0.0053  0.1364  0.0799
    1loPI   PO4    4  13.496   4.634  10.528  0.0570  0.3582 -0.1038
    1loPI   GL1    5  13.785   4.708  10.133 -0.1062  0.3488 -0.2272
    1loPI   GL2    6  13.956   5.032  10.302  0.0072  0.2956  0.0888
    1loPI   C1A    7  13.650   4.754   9.788 -0.0051  0.0351 -0.1124
    1loPI   C2A    8  13.738   4.756   9.339  0.0921  0.0043 -0.0786
    1loPI   C3A    9  13.504   4.916   8.957 -0.2235 -0.4572 -0.0464
    1loPI   C4A   10  13.297   4.750   8.564 -0.0448 -0.2265 -0.2284
    1loPI   C5A   11  13.173   4.554   8.301  0.0213 -0.1648 -0.2252
    1loPI   C6A   12  13.079   4.333   7.982 -0.2878  0.1047 -0.0657
    1loPI   C1B   13  13.753   5.201   9.983 -0.1578  0.2513  0.1254
    1loPI   C2B   14  13.608   5.251   9.548  0.2278  0.0955 -0.2993
    1loPI   C3B   15  13.418   5.325   9.204 -0.0426 -0.0421  0.2644
    1loPI   C4B   16  13.378   5.389   8.772  0.1161  0.0001  0.3149
    2loPI    C1   17  10.468   2.066  10.827 -0.1259 -0.1092  0.0825
    2loPI    C2   18  10.706   1.750  10.887 -0.0852 -0.1237 -0.1436
    2loPI    C3   19  10.788   2.099  11.064  0.0272 -0.1652 -0.1129
    2loPI   PO4   20  10.412   2.179  10.603  0.2548  0.0425  0.1139
    2loPI   GL1   21  10.715   2.201  10.184 -0.1882 -0.2034  0.0227
    2loPI   GL2   22  10.873   2.427  10.307 -0.1440 -0.2118  0.5178
    2loPI   C1A   23  10.506   2.277   9.788 -0.1512  0.0522  0.1852
    2loPI   C2A   24  10.482   2.587   9.440 -0.0338  0.4247 -0.2213
    2loPI   C3A   25  10.542   2.654   8.956  0.2372  0.0534 -0.0175
    2loPI   C4A   26  10.712   2.564   8.569 -0.0933 -0.0591  0.1202
    2loPI   C5A   27  10.633   2.301   8.231 -0.0651 -0.1075 -0.0686
    2loPI   C6A   28  10.935   2.023   8.133 -0.0988  0.0929 -0.0426
    2loPI   C1B   29  10.511   2.641  10.091 -0.2882  0.0211 -0.2044
    2loPI   C2B   30  10.455   2.943   9.819  0.0423 -0.2781 -0.0359
    2loPI   C3B   31  10.472   3.093   9.322  0.0813 -0.0248  0.3428
    2loPI   C4B   32  10.418   3.218   8.899 -0.4086  0.2244  0.2940
    3loPI    C1   33   1.298   3.625  10.723 -0.2627  0.0208 -0.1556
    3loPI    C2   34   1.449   3.609  11.093 -0.1540  0.1071 -0.1954
    3loPI    C3   35   1.118   3.403  11.003  0.0546 -0.2532 -0.1614
    3loPI   PO4   36   1.396   3.788  10.612 -0.0680 -0.1558 -0.1675
    3loPI   GL1   37   1.374   4.004  10.285  0.1647  0.1060  0.1239
    3loPI   GL2   38   1.519   4.317  10.316  0.1055 -0.0588 -0.1977
    3loPI   C1A   39   1.317   4.175   9.918  0.1176  0.3386  0.1082
    3loPI   C2A   40   1.358   4.271   9.575 -0.0502  0.1396  0.0302
    3loPI   C3A   41   1.617   4.209   9.269 -0.1840  0.0359 -0.0256
    3loPI   C4A   42   1.570   4.097   8.732 -0.1239  0.1468 -0.1362
    3loPI   C5A   43   1.351   4.068   8.448  0.1205 -0.1747 -0.1927
    3loPI   C6A   44   1.224   3.770   8.068 -0.2830 -0.1554 -0.1508
    3loPI   C1B   45   1.768   4.390   9.997 -0.0519 -0.3235 -0.0441
    3loPI   C2B   46   1.953   4.371   9.623 -0.1284 -0.2621  0.1180
    3loPI   C3B   47   2.091   4.352   9.154  0.0285 -0.0476 -0.0734
    3loPI   C4B   48   2.052   4.301   8.779 -0.3385  0.1306 -0.0313
    4loPI    C1   49   0.269   5.177  10.644  0.1317 -0.0898  0.0280
    4loPI    C2   50   0.027   4.874  10.741  0.2245 -0.1683  0.0163
    4loPI    C3   51   0.168   5.117  11.026  0.1778 -0.1569  0.0298
    4loPI   PO4   52   0.439   5.009  10.422  0.0257 -0.0678 -0.2685
    4loPI   GL1   53   0.467   4.871  10.121  0.2565  0.0049  0.3179
    4loPI   GL2   54   0.716   5.052   9.959  0.1256  0.2612 -0.0466
    4loPI   C1A   55   0.485   4.664   9.704 -0.0385  0.0079  0.0022
    4loPI   C2A   56   0.388   4.653   9.241 -0.0536  0.0355  0.3233
    4loPI   C3A   57   0.318   4.489   8.793  0.1827  0.0056 -0.0797
    4loPI   C4A   58   0.261   4.602   8.391 -0.0329  0.1563 -0.1907
    4loPI   C5A   59  -0.072   4.885   8.164 -0.1315 -0.0559  0.2127
    4loPI   C6A   60  -0.466   4.984   8.030 -0.3458  0.1687  0.0033
    4loPI   C1B   61   0.716   5.046   9.458 -0.0059 -0.3332  0.1395
    4loPI   C2B   62   0.695   5.170   8.936 -0.0022 -0.2345  0.0700
    4loPI   C3B   63   0.669   5.401   8.600 -0.1992  0.0052 -0.0087
    4loPI   C4B   64   0.396   5.761   8.507  0.0298  0.1210 -0.0000
    5loPI    C1   65   7.055  10.596  11.251 -0.2126  0.1033 -0.0949
    5loPI    C2   66   7.005  10.334  11.549 -0.2126 -0.0126 -0.1959
    5loPI    C3   67   6.833  10.694  11.569 -0.3128 -0.0647 -0.1118
    5loPI   PO4   68   7.039  10.403  11.051 -0.0720 -0.0197 -0.1417
    5loPI   GL1   69   7.042  10.072  10.849 -0.2128 -0.0419 -0.0037
    5loPI   GL2   70   6.933  10.243  10.555  0.1052  0.1454 -0.1444
    5loPI   C1A   71   7.205   9.835  10.484  0.1090 -0.1035 -0.0656
    5loPI   C2A   72   7.169   9.820  10.027  0.2598  0.0626 -0.0543
    5loPI   C3A   73   7.358   9.829   9.591 -0.0312  0.0228 -0.0249
    5loPI   C4A   74   7.564   9.999   9.310  0.3163 -0.1722 -0.0968
    5loPI   C5A   75   7.666  10.216   8.935 -0.0631  0.0300 -0.1210
    5loPI   C6A   76   7.855  10.508   8.672 -0.2166  0.2165  0.5023
    5loPI   C1B   77   6.816  10.159  10.168  0.3363 -0.1284 -0.0127
    5loPI   C2B   78   6.961  10.150   9.693 -0.2934 -0.1076 -0.1345
    5loPI   C3B   79   7.063  10.386   9.322 -0.0781  0.1661 -0.1297
    5loPI   C4B   80   7.159  10.274   8.976  0.1320  0.2527  0.1774
    6loPI    C1   81   4.912   3.292  11.028 -0.2264 -0.0139 -0.2890
    6loPI    C2   82   4.767   3.645  11.148  0.0969  0.0097  0.0515
    6loPI    C3   83   4.599   3.305  11.277  0.1898  0.0378  0.2496
    6loPI   PO4   84   5.015   3.281  10.756 -0.1551  0.0230  0.0678
    6loPI   GL1   85   5.252   3.504  10.422 -0.0610 -0.0290 -0.4382
    6loPI   GL2   86   5.084   3.655  10.181  0.0630 -0.4898  0.1475
    6loPI   C1A   87   5.389   3.315  10.082  0.2116 -0.2224 -0.0921
    6loPI   C2A   88   5.609   3.317   9.616  0.0466 -0.0130  0.0404
    6loPI   C3A   89   5.476   3.300   9.288  0.2197 -0.1516 -0.5320
    6loPI   C4A   90   5.664   3.361   8.820 -0.2056  0.1339 -0.1230
    6loPI   C5A   91   5.424   3.228   8.452 -0.0770 -0.2886 -0.0607
    6loPI   C6A   92   5.026   3.167   8.427 -0.0099  0.1829  0.2503
    6loPI   C1B   93   5.140   3.655   9.725  0.0845  0.1619  0.1445
    6loPI   C2B   94   5.191   3.692   9.353 -0.2136 -0.2680  0.3088
    6loPI   C3B   95   5.027   3.722   9.014  0.3793 -0.2310 -0.1689
    6loPI   C4B   96   5.202   3.627   8.641 -0.1700 -0.0647  0.0240
    7loPI    C1   97   3.512   4.017  10.916  0.2297  0.0206  0.1956
    7loPI    C2   98   3.681   3.681  11.055 -0.0018 -0.1399  0.0957
    7loPI    C3   99   3.817   3.850  10.718 -0.1307 -0.3494 -0.0636
    7loPI   PO4  100   3.295   4.028  10.904  0.0807  0.0597  0.0403
    7loPI   GL1  101   3.086   4.248  10.506  0.3246  0.2084 -0.2361
    7loPI   GL2  102   3.158   3.909  10.375 -0.2156 -0.2323 -0.3047
    7loPI   C1A  103   3.194   4.344  10.101  0.0529 -0.0510  0.2132
    7loPI   C2A  104   3.310   4.280   9.709 -0.0855 -0.0387  0.1683
    7loPI   C3A  105   3.326   4.357   9.302  0.0105  0.2151 -0.1553
    7loPI   C4A  106   3.376   4.572   8.850  0.2316 -0.2525  0.1239
    7loPI   C5A  107   3.302   4.500   8.421  0.0252 -0.0830 -0.1532
    7loPI   C6A  108   3.424   4.159   8.246 -0.2304 -0.3498 -0.0325
    7loPI   C1B  109   3.146   3.832   9.924 -0.1667 -0.2575 -0.1425
    7loPI   C2B  110   3.247   3.861   9.409  0.0511 -0.3473 -0.1206
    7loPI   C3B  111   3.300   3.945   8.997  0.2023 -0.5255  0.1707
    7loPI   C4B  112   3.370   3.828   8.655 -0.0773  0.0207  0.1869
    8loPI    C1  113   0.098  14.847  11.153 -0.1270  0.0640  0.0659
    8loPI    C2  114   0.496  14.827  11.115 -0.1275  0.0843  0.0498
    8loPI    C3  115   0.320  14.690  11.447 -0.1410 -0.2878 -0.1065
    8loPI   PO4  116  -0.011  14.688  10.907 -0.1336  0.1353 -0.1503
    8loPI   GL1  117  -0.268  14.561  10.563  0.1497  0.2066  0.0618
    8loPI   GL2  118  -0.428  14.865  10.386  0.0245  0.3381 -0.0136
    8loPI   C1A  119   0.151  14.313  10.432 -0.1337  0.0421 -0.4910
    8loPI   C2A  120   0.378  14.318  10.042  0.2968  0.0680  0.0344
    8loPI   C3A  121   0.396  14.185   9.632 -0.0701  0.1041 -0.1047
    8loPI   C4A  122   0.392  14.200   9.283 -0.2196  0.0217  0.1441
    8loPI   C5A  123   0.350  14.096   8.825  0.1289 -0.3086 -0.0540
    8loPI   C6A  124   0.588  14.405   8.511 -0.0943  0.0799  0.0041
    8loPI   C1B  125  -0.385  14.824   9.909 -0.1763  0.0102 -0.1900
    8loPI   C2B  126  -0.322  14.836   9.454  0.0845 -0.2242 -0.6366
    8loPI   C3B  127  -0.195  14.736   9.058 -0.0908  0.1750  0.0981
    8loPI   C4B  128  -0.151  14.789   8.668  0.2638 -0.0610 -0.4414
    9loPI    C1  129   3.838   4.840  11.060 -0.3231  0.0885 -0.1672
    9loPI    C2  130   3.719   4.881  11.440 -0.2082 -0.1123 -0.1081
    9loPI    C3  131   3.737   4.518  11.274  0.3968 -0.1028 -0.0874
    9loPI   PO4  132   3.620   4.977  10.806 -0.0471  0.1214  0.0009
    9loPI   GL1  133   3.745   5.274  10.512  0.1614  0.3606 -0.0298
    9loPI   GL2  134   3.901   4.990  10.383  0.0724 -0.2344  0.3510
    9loPI   C1A  135   3.512   5.288  10.121 -0.3296 -0.1989  0.2383
    9loPI   C2A  136   3.546   5.362   9.741 -0.0210 -0.1424 -0.0595
    9loPI   C3A  137   3.589   5.417   9.327  0.0349 -0.3075  0.1647
    9loPI   C4A  138   3.671   5.528   8.910  0.0587 -0.4366 -0.0135
    9loPI   C5A  139   3.500   5.624   8.528 -0.1440  0.0405 -0.4131
    9loPI   C6A  140   3.440   5.814   8.016 -0.0512 -0.0009  0.2005
    9loPI   C1B  141   3.943   4.981   9.889 -0.0193  0.0474 -0.0833
    9loPI   C2B  142   4.004   5.034   9.449 -0.0700  0.2077  0.2678
    9loPI   C3B  143   4.044   5.109   9.016 -0.0801  0.0374 -0.2137
    9loPI   C4B  144   3.954   5.245   8.657 -0.0889  0.0405  0.2067
   10loPI    C1  145  15.114  10.248  11.589 -0.1731  0.0792  0.0736
   10loPI    C2  146  15.472  10.426  11.599 -0.0021 -0.2598  0.1518
   10loPI    C3  147  15.315  10.273  11.934 -0.2669 -0.0305  0.1371
   10loPI   PO4  148  14.954  10.394  11.422  0.1112 -0.1365  0.3428
   10loPI   GL1  149  14.954  10.365  10.881 -0.0892  0.0421 -0.1177
   10loPI   GL2  150  14.658  10.459  10.693  0.1426  0.0433 -0.2421
   10loPI   C1A  151  15.207  10.303  10.596 -0.1102 -0.0044  0.1253
   10loPI   C2A  152  15.169  10.355  10.122 -0.1238 -0.0822 -0.1320
   10loPI   C3A  153  15.252  10.461   9.791 -0.1298  0.2834  0.1430
   10loPI   C4A  154  15.311  10.415   9.327  0.1064  0.2067 -0.3097
   10loPI   C5A  155  15.458  10.399   8.938  0.1865  0.1540  0.0062
   10loPI   C6A  156  15.189  10.510   8.631  0.0333  0.0796  0.3803
   10loPI   C1B  157  14.734  10.543  10.279 -0.3401 -0.0355  0.3621
   10loPI   C2B  158  14.767  10.484   9.822 -0.1809  0.0553 -0.1009
   10loPI   C3B  159  14.825  10.579   9.438  0.0848 -0.0992  0.1177
   10loPI   C4B  160  14.747  10.683   9.001 -0.3124  0.2915 -0.3699
   11loPI    C1  161  11.664  16.119  10.829  0.0890  0.0738 -0.0482
   11loPI    C2  162  11.895  16.365  11.043  0.2099  0.0078 -0.1007
   11loPI    C3  163  11.749  16.032  11.210 -0.2090  0.2649  0.0655
   11loPI   PO4  164  11.773  16.129  10.626 -0.0086 -0.0849  0.4251
   11loPI   GL1  165  12.034  16.209  10.321  0.0378 -0.0582  0.0329
   11loPI   GL2  166  12.351  16.148  10.266  0.0256  0.0068  0.2571
   11loPI   C1A  167  11.794  16.111  10.026  0.0778  0.0103  0.3616
   11loPI   C2A  168  11.733  16.207   9.544  0.1137 -0.1380 -0.1535
   11loPI   C3A  169  11.767  16.291   9.163 -0.2208 -0.1310 -0.1577
   11loPI   C4A  170  11.835  16.306   8.729  0.1934  0.1082  0.3390
   11loPI   C5A  171  11.597  16.017   8.391 -0.1682 -0.0938 -0.1860
   11loPI   C6A  172  11.203  15.926   8.219 -0.0652  0.2460 -0.0376
   11loPI   C1B  173  12.276  16.092   9.845  0.1349  0.1415  0.0106
   11loPI   C2B  174  12.173  16.047   9.392  0.0107 -0.2801 -0.2688
   11loPI   C3B  175  12.238  16.097   9.003 -0.1260 -0.0161 -0.0488
   11loPI   C4B  176  12.357  16.141   8.578  0.0472  0.2722  0.1900
   12loPI    C1  177  15.479   6.789  10.858 -0.2894  0.1214 -0.0985
   12loPI    C2  178  15.399   6.880  11.239 -0.1828 -0.1008 -0.0214
   12loPI    C3  179  15.762   6.745  11.137 -0.1032  0.2761 -0.2596
   12loPI   PO4  180  15.237   6.699  10.744  0.0315 -0.0526 -0.1476
   12loPI   GL1  181  14.933   6.975  10.462 -0.1288  0.2397  0.0092
   12loPI   GL2  182  15.079   6.752  10.288  0.1560 -0.2643 -0.1407
   12loPI   C1A  183  14.931   7.169  10.119  0.3503 -0.1309 -0.0314
   12loPI   C2A  184  15.000   7.178   9.726 -0.3479  0.0260 -0.1638
   12loPI   C3A  185  15.056   7.288   9.295 -0.0020 -0.1488  0.0016
   12loPI   C4A  186  14.988   7.303   8.864  0.0749 -0.4025  0.2781
   12loPI   C5A  187  15.119   7.326   8.446  0.1264  0.3163 -0.1991
   12loPI   C6A  188  15.507   7.214   8.155  0.3150 -0.1482  0.0091
   12loPI   C1B  189  15.327   6.546   9.963  0.2237 -0.1691  0.1044
   12loPI   C2B  190  15.690   6.500   9.649  0.1194 -0.1579 -0.1755
   12loPI   C3B  191  15.640   6.473   9.175 -0.1310  0.2828 -0.0796
   12loPI   C4B  192  15.577   6.494   8.722 -0.0760  0.1711  0.0381
   13loPI    C1  193  11.109  13.969  11.384  0.1052  0.1332 -0.0075
   13loPI    C2  194  11.337  13.742  11.621  0.0414  0.1093  0.0314
   13loPI    C3  195  11.129  14.046  11.776  0.1898  0.2455 -0.0332
   13loPI   PO4  196  11.019  13.782  11.243  0.1604 -0.0909 -0.3070
   13loPI   GL1  197  11.111  13.714  10.833  0.2178  0.1751 -0.1827
   13loPI   GL2  198  11.051  13.947  10.669 -0.0202  0.0318  0.3208
   13loPI   C1A  199  11.254  13.512  10.461  0.3739 -0.1929  0.1728
   13loPI   C2A  200  11.418  13.561  10.119 -0.0539 -0.0493  0.1847
   13loPI   C3A  201  11.326  13.609   9.620 -0.1522 -0.1046  0.2339
   13loPI   C4A  202  11.357  13.518   9.230 -0.1010 -0.0467  0.2305
   13loPI   C5A  203  11.439  13.541   8.796  0.1325 -0.2395  0.1070
   13loPI   C6A  204  11.589  13.903   8.559  0.0481  0.0232 -0.0422
   13loPI   C1B  205  11.201  13.990  10.269  0.1015  0.1002 -0.1017
   13loPI   C2B  206  11.251  14.063   9.789  0.0999 -0.0464 -0.2918
   13loPI   C3B  207  11.198  14.038   9.367  0.1614 -0.2656 -0.0322
   13loPI   C4B  208  11.301  14.146   8.950  0.1380 -0.0461  0.1594
   14loPI    C1  209   1.631   0.739  10.745 -0.0667 -0.0197 -0.1617
   14loPI    C2  210   1.585   1.013  11.033 -0.0749 -0.0848 -0.1005
   14loPI    C3  211   1.601   0.625  11.128  0.0464 -0.0989 -0.1760
   14loPI   PO4  212   1.727   0.894  10.558 -0.2537  0.2393 -0.1465
   14loPI   GL1  213   1.877   0.890  10.163  0.2717 -0.1931 -0.1526
   14loPI   GL2  214   1.813   1.184  10.090  0.0007 -0.2406 -0.3601
   14loPI   C1A  215   2.115   0.748   9.823  0.0758 -0.0954 -0.0131
   14loPI   C2A  216   2.371   1.011   9.639 -0.0246  0.3025  0.0134
   14loPI   C3A  217   2.529   0.989   9.287  0.0716  0.0744 -0.1124
   14loPI   C4A  218   2.716   0.902   8.885  0.3953 -0.2357  0.1523
   14loPI   C5A  219   3.064   0.689   8.642  0.0107  0.0581 -0.0532
   14loPI   C6A  220   3.256   0.717   8.211  0.2692  0.0276 -0.0708
   14loPI   C1B  221   1.969   1.333   9.661  0.3091 -0.0681  0.0117
   14loPI   C2B  222   2.048   1.373   9.160  0.2363  0.1352 -0.0180
   14loPI   C3B  223   2.216   1.659   8.832  0.3804 -0.1320 -0.0754
   14loPI   C4B  224   2.304   1.717   8.414 -0.0007  0.2568 -0.2294
   15loPI    C1  225  12.079  11.500  11.409  0.2888  0.3085 -0.0656
   15loPI    C2  226  12.079  11.778  11.696  0.0683  0.0444  0.1961
   15loPI    C3  227  12.238  11.418  11.767  0.2222  0.0524 -0.0930
   15loPI   PO4  228  12.048  11.613  11.206  0.1650 -0.0266 -0.0759
   15loPI   GL1  229  12.228  11.472  10.882 -0.1320 -0.0883  0.0070
   15loPI   GL2  230  12.118  11.305  10.704 -0.0030  0.1391 -0.1266
   15loPI   C1A  231  12.156  11.792  10.574  0.0455 -0.0638  0.1597
   15loPI   C2A  232  12.086  11.861  10.100 -0.0242 -0.0324  0.2086
   15loPI   C3A  233  12.114  11.877   9.657 -0.3098  0.1784 -0.3143
   15loPI   C4A  234  12.247  11.996   9.230  0.2908  0.0520 -0.0870
   15loPI   C5A  235  12.199  12.004   8.762  0.0165 -0.1020 -0.1566
   15loPI   C6A  236  11.917  11.903   8.366 -0.2548  0.1535  0.0830
   15loPI   C1B  237  12.140  11.364  10.268 -0.2513  0.0277 -0.1019
   15loPI   C2B  238  12.224  11.349   9.797 -0.0499 -0.0117 -0.1043
   15loPI   C3B  239  12.284  11.464   9.420 -0.0229  0.5091 -0.1433
   15loPI   C4B  240  12.365  11.483   8.998 -0.1854 -0.1748  0.1535
   16loPI    C1  241  17.344   4.488  10.689  0.0522 -0.0089  0.0345
   16loPI    C2  242  17.341   4.224  10.989 -0.1910  0.1308  0.1573
   16loPI    C3  243  17.022   4.259  10.751  0.0512 -0.0761 -0.2074
   16loPI   PO4  244  17.524   4.504  10.535 -0.0019  0.0827  0.4940
   16loPI   GL1  245  17.733   4.498  10.134 -0.1435 -0.1549  0.2825
   16loPI   GL2  246  17.899   4.640   9.992  0.1789  0.1614 -0.0864
   16loPI   C1A  247  17.788   4.342   9.643 -0.0282 -0.1383  0.1602
   16loPI   C2A  248  17.774   4.397   9.117  0.1810 -0.1643  0.1299
   16loPI   C3A  249  17.599   4.269   8.757 -0.1727  0.0100  0.0429
   16loPI   C4A  250  17.465   4.106   8.325  0.0159 -0.0199  0.0231
   16loPI   C5A  251  17.091   4.041   8.254  0.0627 -0.1544 -0.3564
   16loPI   C6A  252  16.851   4.190   7.876 -0.0273  0.0172  0.1364
   16loPI   C1B  253  17.857   4.856   9.659 -0.0536 -0.2139 -0.0253
   16loPI   C2B  254  17.650   4.874   9.282  0.0018  0.2157  0.0979
   16loPI   C3B  255  17.337   4.759   8.913 -0.1106 -0.1865 -0.1325
   16loPI   C4B  256  17.149   5.052   8.535  0.0720  0.1568  0.1517
   17loPI    C1  257  11.022   9.055  11.395 -0.0676 -0.0056 -0.0297
   17loPI    C2  258  11.395   9.021  11.534 -0.0579 -0.1613 -0.0913
   17loPI    C3  259  11.085   8.956  11.778 -0.0470  0.0483 -0.0191
   17loPI   PO4  260  11.054   8.860  11.164 -0.0930  0.0833  0.0676
   17loPI   GL1  261  11.037   8.867  10.710  0.2082 -0.2469  0.0800
   17loPI   GL2  262  11.355   9.016  10.818  0.1012 -0.3114  0.0121
   17loPI   C1A  263  10.955   8.953  10.264  0.1068 -0.1635  0.1274
   17loPI   C2A  264  10.719   8.807   9.931 -0.0987  0.1110  0.0841
   17loPI   C3A  265  10.554   8.827   9.478 -0.1996 -0.0153  0.0377
   17loPI   C4A  266  10.720   8.965   8.963 -0.3178 -0.3369  0.2829
   17loPI   C5A  267  11.065   9.102   8.798 -0.1223 -0.2613 -0.0431
   17loPI   C6A  268  11.359   9.297   8.707 -0.1408  0.2361 -0.2593
   17loPI   C1B  269  11.325   9.269  10.480 -0.0039  0.1035  0.1171
   17loPI   C2B  270  11.309   9.396  10.075 -0.0459  0.1988 -0.1525
   17loPI   C3B  271  11.359   9.403   9.589 -0.2383  0.0751 -0.0079
   17loPI   C4B  272  11.291   9.408   9.166  0.0025 -0.1374 -0.3440
   18loPI    C1  273  16.151   2.351  10.603 -0.2050 -0.1331  0.0261
   18loPI    C2  274  15.970   2.173  10.912 -0.0519 -0.2167  0.0686
   18loPI    C3  275  16.074   2.559  10.936 -0.3970 -0.1134 -0.0293
   18loPI   PO4  276  16.134   2.116  10.480 -0.1074 -0.3924 -0.1047
   18loPI   GL1  277  16.268   2.078  10.066 -0.0151  0.2130  0.1001
   18loPI   GL2  278  16.490   1.803   9.998  0.0383 -0.2393  0.0709
   18loPI   C1A  279  16.237   1.904   9.638  0.3550 -0.2251  0.3402
   18loPI   C2A  280  16.532   1.794   9.254 -0.0239 -0.3176 -0.1600
   18loPI   C3A  281  16.628   1.708   8.780 -0.0485  0.1222 -0.0568
   18loPI   C4A  282  16.693   2.009   8.446 -0.0854  0.0998  0.1883
   18loPI   C5A  283  16.704   2.393   8.146 -0.2145  0.1222 -0.4340
   18loPI   C6A  284  16.788   2.379   7.678 -0.0134  0.2694 -0.0849
   18loPI   C1B  285  16.552   1.484   9.650 -0.0186  0.3067 -0.0607
   18loPI   C2B  286  16.464   1.204   9.398  0.2815 -0.2600 -0.0634
   18loPI   C3B  287  16.516   1.234   8.975 -0.2488 -0.1146 -0.0450
   18loPI   C4B  288  16.587   0.940   8.659  0.0060  0.0840 -0.0523
   19loPI    C1  289   5.380   0.612  10.905 -0.1363 -0.1834 -0.0692
   19loPI    C2  290   5.640   0.318  10.828  0.0064 -0.0847  0.0306
   19loPI    C3  291   5.455   0.335  11.183  0.0082 -0.0466  0.0298
   19loPI   PO4  292   5.485   0.800  10.686 -0.1909 -0.0402 -0.0583
   19loPI   GL1  293   5.729   0.855  10.285  0.0789 -0.1926  0.0424
   19loPI   GL2  294   5.703   0.541  10.250 -0.0383 -0.0415 -0.1705
   19loPI   C1A  295   5.551   0.971   9.824 -0.0619  0.1206 -0.1355
   19loPI   C2A  296   5.722   0.930   9.395  0.0254 -0.2127 -0.0145
   19loPI   C3A  297   5.733   1.032   8.935  0.1438  0.3229 -0.2354
   19loPI   C4A  298   5.676   0.956   8.533  0.2125  0.1855 -0.1313
   19loPI   C5A  299   5.972   0.856   8.214 -0.0620  0.1526 -0.2980
   19loPI   C6A  300   6.280   0.739   7.969 -0.0387  0.0349 -0.0302
   19loPI   C1B  301   5.997   0.715   9.927  0.1472 -0.0962  0.2030
   19loPI   C2B  302   6.165   0.741   9.493  0.0311  0.0641 -0.0885
   19loPI   C3B  303   6.153   0.657   9.168 -0.2525  0.0137 -0.0301
   19loPI   C4B  304   6.054   0.709   8.719  0.0119 -0.3223 -0.2492
   20loPI    C1  305  12.846   7.661  11.126 -0.0497  0.0611 -0.0534
   20loPI    C2  306  12.482   7.630  11.288  0.0014 -0.1120  0.0312
   20loPI    C3  307  12.574   7.420  10.960  0.0770 -0.1970  0.1064
   20loPI   PO4  308  12.908   7.963  11.227  0.1488  0.0765  0.0908
   20loPI   GL1  309  12.821   8.346  10.981  0.1115 -0.1366  0.0485
   20loPI   GL2  310  12.774   8.558  10.827 -0.1383  0.2217 -0.3231
   20loPI   C1A  311  12.718   8.057  10.611 -0.1019 -0.1200  0.0527
   20loPI   C2A  312  12.534   8.018  10.149 -0.1174  0.0612 -0.0331
   20loPI   C3A  313  12.436   7.986   9.710  0.0890 -0.1913 -0.0972
   20loPI   C4A  314  12.554   7.945   9.250 -0.0744 -0.3682 -0.1057
   20loPI   C5A  315  12.501   8.155   8.859 -0.0801  0.1270  0.0720
   20loPI   C6A  316  12.662   8.546   8.786  0.0973  0.2995  0.1449
   20loPI   C1B  317  12.804   8.425  10.352 -0.4074 -0.1393 -0.2934
   20loPI   C2B  318  12.855   8.328   9.924 -0.1267  0.1618 -0.0463
   20loPI   C3B  319  12.849   8.290   9.497 -0.0098  0.4952 -0.0523
   20loPI   C4B  320  12.957   8.439   9.181  0.0472  0.4241 -0.0120
   21loPI    C1  321  14.560  16.284  11.242  0.0679  0.0094  0.1407
   21loPI    C2  322  14.300  16.588  11.227 -0.0358 -0.0835  0.0408
   21loPI    C3  323  14.675  16.652  11.348 -0.0763  0.0709  0.0864
   21loPI   PO4  324  14.560  16.168  10.949  0.0225 -0.0188  0.0416
   21loPI   GL1  325  14.542  16.142  10.538  0.1611 -0.1030  0.1229
   21loPI   GL2  326  14.404  16.453  10.357  0.2876 -0.1749  0.1290
   21loPI   C1A  327  14.479  15.916  10.182  0.0845  0.2041  0.0382
   21loPI   C2A  328  14.531  15.880   9.776 -0.0789 -0.0857  0.0983
   21loPI   C3A  329  14.714  15.800   9.352  0.2932 -0.1872  0.0873
   21loPI   C4A  330  14.700  15.711   8.953  0.0283  0.0913  0.2562
   21loPI   C5A  331  14.966  15.603   8.730 -0.2970  0.2320  0.1464
   21loPI   C6A  332  15.098  15.214   8.714  0.0009  0.2358 -0.0284
   21loPI   C1B  333  14.430  16.371   9.861  0.1564  0.0207 -0.0568
   21loPI   C2B  334  14.519  16.339   9.459 -0.0819  0.0808  0.2297
   21loPI   C3B  335  14.657  16.302   9.091 -0.4345  0.0946 -0.1004
   21loPI   C4B  336  14.682  16.251   8.600  0.0868 -0.0267  0.0490
   22loPI    C1  337  15.913   8.138  11.498  0.0291 -0.0190  0.2394
   22loPI    C2  338  15.626   8.396  11.392 -0.0103 -0.0951  0.1596
   22loPI    C3  339  15.835   8.456  11.728 -0.0831 -0.0104  0.1901
   22loPI   PO4  340  15.973   8.087  11.259 -0.2022 -0.0734  0.0631
   22loPI   GL1  341  15.918   7.985  10.783  0.0256  0.0819  0.1113
   22loPI   GL2  342  15.787   7.738  10.616 -0.4162 -0.3250 -0.0091
   22loPI   C1A  343  15.948   8.332  10.552 -0.0445  0.2079 -0.0054
   22loPI   C2A  344  15.925   8.624  10.221 -0.0645  0.2171  0.3406
   22loPI   C3A  345  16.076   8.614   9.687 -0.1193 -0.1083 -0.1692
   22loPI   C4A  346  16.179   8.678   9.259  0.0605  0.1605  0.1088
   22loPI   C5A  347  16.221   8.639   8.749  0.2060 -0.1483 -0.1088
   22loPI   C6A  348  16.322   8.679   8.393 -0.0312 -0.0370  0.0002
   22loPI   C1B  349  15.760   7.938  10.232  0.2424  0.1901 -0.4155
   22loPI   C2B  350  15.794   7.800   9.705 -0.1656  0.0622  0.1460
   22loPI   C3B  351  15.853   7.792   9.334  0.0362 -0.0194 -0.0671
   22loPI   C4B  352  15.903   7.810   8.859  0.1091  0.0582 -0.1426
   23loPI    C1  353   5.774  14.328  11.398  0.0932  0.0579  0.0844
   23loPI    C2  354   5.687  14.653  11.615 -0.2721  0.1418 -0.1778
   23loPI    C3  355   5.414  14.364  11.569  0.0311 -0.1831  0.0082
   23loPI   PO4  356   5.881  14.397  11.220 -0.0148 -0.0306 -0.0704
   23loPI   GL1  357   5.913  14.577  10.817 -0.2386 -0.1556  0.1370
   23loPI   GL2  358   5.790  14.452  10.606 -0.1317 -0.0449  0.4141
   23loPI   C1A  359   5.944  14.859  10.374  0.1610  0.2225 -0.2664
   23loPI   C2A  360   6.041  14.565  10.057  0.0591 -0.0445  0.1575
   23loPI   C3A  361   6.190  14.519   9.687  0.0229 -0.0238 -0.0336
   23loPI   C4A  362   6.295  14.587   9.253 -0.0691 -0.0706  0.1184
   23loPI   C5A  363   6.224  14.939   8.952 -0.1263 -0.2396 -0.2396
   23loPI   C6A  364   6.137  15.357   8.693  0.0551  0.0621 -0.1128
   23loPI   C1B  365   5.590  14.245  10.212 -0.3655 -0.1608 -0.2251
   23loPI   C2B  366   5.707  14.222   9.827  0.0345  0.3172  0.1282
   23loPI   C3B  367   5.727  14.330   9.449  0.0067 -0.0853  0.0207
   23loPI   C4B  368   5.947  14.357   9.024 -0.0201  0.1183 -0.1452
   24loPI    C1  369  14.346   6.440  11.123 -0.0856 -0.0485  0.1634
   24loPI    C2  370  14.573   6.131  11.006  0.1473  0.2188 -0.1083
   24loPI    C3  371  14.731   6.421  11.233 -0.1709 -0.0445  0.4737
   24loPI   PO4  372  14.111   6.372  10.975  0.0668 -0.0937 -0.2035
   24loPI   GL1  373  13.916   6.448  10.575  0.1168 -0.1710 -0.0839
   24loPI   GL2  374  14.196   6.568  10.483 -0.2086  0.0638  0.0621
   24loPI   C1A  375  13.735   6.599  10.147  0.0575  0.1137  0.1672
   24loPI   C2A  376  13.740   6.705   9.755 -0.3013  0.0813 -0.1780
   24loPI   C3A  377  13.693   6.666   9.303  0.1934 -0.1801 -0.3514
   24loPI   C4A  378  13.640   6.714   8.855 -0.0896 -0.3036  0.0326
   24loPI   C5A  379  13.423   6.997   8.534 -0.1033  0.1551 -0.0096
   24loPI   C6A  380  12.906   7.041   8.364  0.0883 -0.2729  0.0215
   24loPI   C1B  381  14.230   6.479  10.134 -0.0023 -0.0979  0.1919
   24loPI   C2B  382  14.298   6.489   9.685  0.0136  0.1944  0.1990
   24loPI   C3B  383  14.183   6.526   9.228  0.0795  0.0951  0.0522
   24loPI   C4B  384  14.105   6.425   8.811 -0.3326  0.0134 -0.0694
   25loPI    C1  385   0.959   2.770  10.480  0.1134 -0.0462  0.1118
   25loPI    C2  386   0.906   2.957  10.830 -0.0955 -0.1157  0.1185
   25loPI    C3  387   0.820   2.568  10.796  0.0552 -0.1419  0.0254
   25loPI   PO4  388   1.168   2.794  10.399  0.0096  0.1060 -0.1214
   25loPI   GL1  389   1.495   2.905  10.003 -0.4369  0.1531 -0.1903
   25loPI   GL2  390   1.888   2.736   9.971 -0.3037 -0.0184 -0.3754
   25loPI   C1A  391   1.192   3.185   9.847  0.0060  0.1529 -0.1930
   25loPI   C2A  392   1.273   3.080   9.423  0.2734  0.2125  0.1611
   25loPI   C3A  393   1.325   3.133   9.056  0.2364 -0.0192 -0.0476
   25loPI   C4A  394   1.434   3.136   8.634  0.0379 -0.0109  0.0631
   25loPI   C5A  395   1.584   3.405   8.291  0.2347 -0.0539  0.1371
   25loPI   C6A  396   1.738   3.871   8.245  0.1204  0.1045  0.0971
   25loPI   C1B  397   2.198   2.896   9.763  0.2072  0.0497 -0.0575
   25loPI   C2B  398   2.156   3.039   9.443 -0.0117  0.0279 -0.1973
   25loPI   C3B  399   2.312   2.934   8.941  0.1000  0.0311 -0.1008
   25loPI   C4B  400   2.308   2.759   8.531  0.0081  0.0971 -0.4906
   26loPI    C1  401   8.465   6.717  11.342 -0.0312  0.0335  0.1599
   26loPI    C2  402   8.557   6.370  11.518 -0.3682 -0.0275  0.2240
   26loPI    C3  403   8.512   6.700  11.739  0.0600  0.0853  0.1513
   26loPI   PO4  404   8.322   6.605  11.078  0.1935 -0.2257 -0.2331
   26loPI   GL1  405   8.377   6.410  10.843  0.1246  0.1176  0.3233
   26loPI   GL2  406   8.295   6.724  10.622 -0.2604 -0.0388  0.0971
   26loPI   C1A  407   8.273   6.256  10.449 -0.2297  0.1084  0.2496
   26loPI   C2A  408   8.254   6.273  10.051  0.0233  0.1037  0.3991
   26loPI   C3A  409   8.225   6.472   9.681  0.1436 -0.0459 -0.0469
   26loPI   C4A  410   8.257   6.607   9.167 -0.0104 -0.0534  0.1049
   26loPI   C5A  411   8.302   6.775   8.765  0.2252  0.1922 -0.3354
   26loPI   C6A  412   8.592   6.815   8.435  0.1119  0.1907  0.0245
   26loPI   C1B  413   8.296   6.721  10.175  0.3299 -0.2518  0.0394
   26loPI   C2B  414   8.243   6.954   9.826 -0.1788  0.1311 -0.0479
   26loPI   C3B  415   8.235   7.078   9.403  0.1231  0.0146  0.0291
   26loPI   C4B  416   8.276   7.361   9.045  0.2398  0.0353 -0.0667
   27loPI    C1  417   7.508   6.887  11.456  0.1595 -0.0581  0.1274
   27loPI    C2  418   7.602   7.254  11.583 -0.0498  0.0146  0.0766
   27loPI    C3  419   7.308   7.050  11.761 -0.2047  0.0336 -0.1525
   27loPI   PO4  420   7.549   6.937  11.159 -0.1358 -0.1570 -0.0567
   27loPI   GL1  421   7.872   6.905  10.866  0.0042 -0.2572  0.0996
   27loPI   GL2  422   7.646   6.716  10.715 -0.2490 -0.2935 -0.1630
   27loPI   C1A  423   7.953   7.154  10.532  0.0548  0.2168 -0.0933
   27loPI   C2A  424   7.890   7.196  10.144  0.0639 -0.0676  0.1795
   27loPI   C3A  425   7.832   7.181   9.642  0.0984 -0.0399 -0.1320
   27loPI   C4A  426   7.765   7.354   9.188 -0.0952 -0.1437  0.3034
   27loPI   C5A  427   7.835   7.283   8.723  0.0892 -0.2154  0.1865
   27loPI   C6A  428   7.699   7.088   8.371 -0.1643  0.3258  0.0899
   27loPI   C1B  429   7.834   6.669  10.367  0.0678  0.3249  0.0062
   27loPI   C2B  430   7.795   6.700   9.982 -0.0537 -0.0283  0.3940
   27loPI   C3B  431   7.876   6.754   9.503 -0.1259  0.2091  0.2477
   27loPI   C4B  432   7.917   6.917   9.061 -0.0855 -0.1617 -0.1326
   28loPI    C1  433  11.930  13.811  11.043 -0.0857  0.1199  0.0353
   28loPI    C2  434  11.898  13.881  11.435 -0.2031  0.1571  0.0195
   28loPI    C3  435  12.165  13.615  11.300 -0.1389  0.1692  0.1218
   28loPI   PO4  436  11.996  14.064  10.882 -0.0601  0.1449 -0.0183
   28loPI   GL1  437  11.841  14.289  10.556  0.1125  0.1353 -0.0468
   28loPI   GL2  438  11.572  14.355  10.434  0.0021 -0.0406  0.1401
   28loPI   C1A  439  12.137  14.218  10.137 -0.4078  0.0774 -0.0722
   28loPI   C2A  440  12.079  14.194   9.670  0.0530 -0.0057 -0.0219
   28loPI   C3A  441  12.164  14.279   9.305 -0.0773  0.3448 -0.0505
   28loPI   C4A  442  12.297  14.360   8.914  0.0027  0.1397  0.0443
   28loPI   C5A  443  12.219  14.509   8.487  0.0420 -0.0365  0.0231
   28loPI   C6A  444  12.452  14.427   8.167 -0.0135 -0.1894 -0.0587
   28loPI   C1B  445  11.639  14.319   9.932  0.0936 -0.0438  0.0523
   28loPI   C2B  446  11.615  14.394   9.527 -0.1660  0.2577  0.1689
   28loPI   C3B  447  11.685  14.405   9.114 -0.1240 -0.1634  0.0185
   28loPI   C4B  448  11.690  14.444   8.685  0.0913 -0.0117  0.0027
   29loPI    C1  449  10.470   3.862  11.077 -0.1481  0.2908  0.0326
   29loPI    C2  450  10.133   3.654  11.131 -0.0495  0.1189 -0.0071
   29loPI    C3  451  10.318   3.821  11.445  0.0039 -0.0633  0.0598
   29loPI   PO4  452  10.451   3.896  10.806 -0.4903 -0.1114 -0.2860
   29loPI   GL1  453  10.439   3.716  10.464  0.1722  0.3263  0.0485
   29loPI   GL2  454  10.723   3.926  10.380  0.4830 -0.0445  0.2252
   29loPI   C1A  455  10.170   3.706  10.022  0.0155 -0.0491  0.1323
   29loPI   C2A  456  10.140   3.800   9.613  0.1329 -0.1394  0.0651
   29loPI   C3A  457  10.144   3.941   9.209 -0.3950  0.1903 -0.0191
   29loPI   C4A  458  10.354   3.741   8.838 -0.1422  0.0036  0.0094
   29loPI   C5A  459  10.751   3.676   8.592  0.0312  0.0381 -0.1360
   29loPI   C6A  460  11.106   3.815   8.330  0.2097 -0.2907  0.0466
   29loPI   C1B  461  10.580   4.035   9.930 -0.1786 -0.0323 -0.1784
   29loPI   C2B  462  10.619   4.093   9.442 -0.0765  0.1051  0.1349
   29loPI   C3B  463  10.708   4.022   9.033 -0.0303  0.2429 -0.0081
   29loPI   C4B  464  10.932   4.226   8.747 -0.2679  0.1714  0.2710
   30loPI    C1  465  11.865   9.584  11.596 -0.0083 -0.1218 -0.0513
   30loPI    C2  466  11.523   9.440  11.745  0.0527 -0.2584 -0.0411
   30loPI    C3  467  11.869   9.261  11.833  0.1198 -0.1620 -0.1077
   30loPI   PO4  468  11.763   9.709  11.338 -0.1766 -0.1370  0.1573
   30loPI   GL1  469  11.893   9.851  10.902  0.0178  0.0426 -0.0520
   30loPI   GL2  470  11.728   9.597  10.681 -0.1664  0.0156 -0.2271
   30loPI   C1A  471  12.048   9.942  10.540 -0.0936 -0.0897  0.3007
   30loPI   C2A  472  12.010   9.992  10.169  0.1190  0.2945 -0.3930
   30loPI   C3A  473  12.103  10.078   9.743 -0.1220  0.0086  0.0287
   30loPI   C4A  474  12.164  10.141   9.362 -0.0725 -0.3241  0.1424
   30loPI   C5A  475  12.103  10.214   8.913  0.2213  0.2419  0.1179
   30loPI   C6A  476  11.938  10.429   8.539 -0.1051  0.3103 -0.1032
   30loPI   C1B  477  11.725   9.588  10.266  0.2878 -0.0425  0.0168
   30loPI   C2B  478  11.643   9.759   9.854  0.2225 -0.1104  0.0903
   30loPI   C3B  479  11.756   9.757   9.439 -0.0474 -0.0007  0.1591
   30loPI   C4B  480  11.827   9.840   8.947  0.1952 -0.0460  0.1544
   31loPI    C1  481  17.382   2.591  10.831  0.1669 -0.0091  0.1283
   31loPI    C2  482  17.716   2.784  10.937  0.1668  0.0655 -0.0044
   31loPI    C3  483  17.364   2.975  10.941  0.1190 -0.0230  0.1699
   31loPI   PO4  484  17.443   2.475  10.544 -0.0194 -0.0186  0.1058
   31loPI   GL1  485  17.454   2.604  10.112 -0.1284 -0.0145  0.1506
   31loPI   GL2  486  17.228   2.793   9.953  0.2230 -0.3534  0.1909
   31loPI   C1A  487  17.824   2.805   9.918  0.1819  0.0132  0.1285
   31loPI   C2A  488  17.885   2.787   9.533  0.0037 -0.1705 -0.3432
   31loPI   C3A  489  17.639   2.836   9.152  0.0467 -0.2238  0.2504
   31loPI   C4A  490  17.441   2.867   8.804  0.0259  0.0279 -0.0957
   31loPI   C5A  491  17.327   2.701   8.542 -0.0408  0.0581  0.0195
   31loPI   C6A  492  17.121   2.939   8.244  0.0609 -0.1992 -0.0626
   31loPI   C1B  493  17.423   2.671   9.609  0.2363  0.2191  0.0507
   31loPI   C2B  494  17.254   2.483   9.281 -0.1268 -0.2883 -0.1391
   31loPI   C3B  495  16.997   2.580   8.897  0.1772 -0.1172  0.1516
   31loPI   C4B  496  16.800   2.683   8.500  0.0533 -0.0325 -0.0975
   32loPI    C1  497   7.708   9.414  11.139 -0.2411 -0.0428 -0.2267
   32loPI    C2  498   7.501   9.570  11.444 -0.0566 -0.0288 -0.1072
   32loPI    C3  499   7.666   9.207  11.479 -0.0458 -0.0326 -0.1954
   32loPI   PO4  500   7.767   9.687  11.038 -0.2221 -0.1155  0.1223
   32loPI   GL1  501   7.651  10.032  10.829 -0.1749  0.3450 -0.1051
   32loPI   GL2  502   7.984   9.933  10.548  0.0635 -0.0671  0.2119
   32loPI   C1A  503   7.451  10.224  10.523  0.2253 -0.0292 -0.0658
   32loPI   C2A  504   7.341  10.268  10.087 -0.0979  0.2546 -0.0750
   32loPI   C3A  505   7.409  10.306   9.647 -0.1022  0.0360 -0.0886
   32loPI   C4A  506   7.454  10.638   9.176 -0.0715  0.0506 -0.1444
   32loPI   C5A  507   7.447  10.738   8.826  0.0193  0.2063 -0.0235
   32loPI   C6A  508   7.112  10.669   8.549 -0.2376  0.0839 -0.0111
   32loPI   C1B  509   8.210  10.030  10.211 -0.0645 -0.0227 -0.1599
   32loPI   C2B  510   8.350  10.193   9.818  0.0883 -0.1781 -0.1184
   32loPI   C3B  511   8.364  10.558   9.503 -0.2090 -0.0770 -0.0663
   32loPI   C4B  512   8.411  10.663   9.134  0.0387 -0.0719  0.0438
   33loPI    C1  513   1.925   4.423  10.602 -0.2280 -0.0018 -0.1977
   33loPI    C2  514   1.967   4.094  10.378  0.1094 -0.1834  0.1195
   33loPI    C3  515   1.784   4.073  10.733 -0.0698  0.0218  0.0423
   33loPI   PO4  516   2.161   4.509  10.639  0.0281 -0.3518  0.0754
   33loPI   GL1  517   2.422   4.830  10.382  0.0736  0.1024 -0.0281
   33loPI   GL2  518   2.101   4.862  10.240 -0.0408 -0.0453 -0.0744
   33loPI   C1A  519   2.481   4.950   9.937 -0.1145  0.0757  0.2865
   33loPI   C2A  520   2.657   5.042   9.533 -0.2553  0.1301 -0.3051
   33loPI   C3A  521   2.592   5.012   9.025  0.1436  0.1852  0.1678
   33loPI   C4A  522   2.579   5.082   8.616 -0.1689 -0.3271 -0.1879
   33loPI   C5A  523   2.441   5.010   8.204  0.0064 -0.0635  0.0891
   33loPI   C6A  524   2.193   5.060   7.824 -0.1635  0.1422  0.2749
   33loPI   C1B  525   1.890   4.833   9.843 -0.2056 -0.2549  0.1002
   33loPI   C2B  526   2.074   4.856   9.381  0.0403  0.2733 -0.3023
   33loPI   C3B  527   2.033   4.813   8.966 -0.0896 -0.4154 -0.0512
   33loPI   C4B  528   2.170   4.756   8.558  0.1255 -0.2083 -0.2394
   34loPI    C1  529  11.972   1.036  10.630  0.2573 -0.0583  0.0515
   34loPI    C2  530  11.947   1.385  10.824  0.1655  0.1052 -0.2472
   34loPI    C3  531  12.214   1.110  10.940  0.0451  0.1562  0.1687
   34loPI   PO4  532  12.026   1.088  10.413  0.3612  0.1168 -0.2029
   34loPI   GL1  533  11.928   1.303  10.005  0.0368  0.1854 -0.1259
   34loPI   GL2  534  11.836   1.042   9.896 -0.0105 -0.0176 -0.2297
   34loPI   C1A  535  11.914   1.452   9.619  0.0712  0.2694  0.2189
   34loPI   C2A  536  12.095   1.661   9.307 -0.1105 -0.2496  0.1947
   34loPI   C3A  537  12.209   1.674   8.856 -0.0639 -0.3743  0.1240
   34loPI   C4A  538  12.391   1.817   8.437 -0.1087 -0.1668  0.0260
   34loPI   C5A  539  12.654   1.945   8.162 -0.1637  0.0881  0.3105
   34loPI   C6A  540  12.963   1.809   8.014  0.0697  0.4330 -0.1698
   34loPI   C1B  541  11.772   0.859   9.558 -0.1288  0.1699 -0.3144
   34loPI   C2B  542  11.444   0.854   9.258 -0.0095  0.0469 -0.1415
   34loPI   C3B  543  11.029   0.816   8.991 -0.0418 -0.1358 -0.3107
   34loPI   C4B  544  10.726   0.748   8.820  0.1940 -0.2937 -0.0269
   35loPI    C1  545  15.638   9.694  11.278  0.3237  0.0058  0.0336
   35loPI    C2  546  15.800  10.036  11.408 -0.1389  0.1797  0.1734
   35loPI    C3  547  15.484   9.880  11.597 -0.0379 -0.2393  0.0081
   35loPI   PO4  548  15.629   9.849  10.928 -0.1940  0.0164 -0.0690
   35loPI   GL1  549  15.424   9.904  10.483 -0.1652  0.2687 -0.0665
   35loPI   GL2  550  15.644  10.175  10.490  0.0847 -0.2127  0.0110
   35loPI   C1A  551  15.370   9.854  10.025  0.1780 -0.0867 -0.0851
   35loPI   C2A  552  15.396   9.921   9.617 -0.2239  0.1096  0.4063
   35loPI   C3A  553  15.486   9.771   9.211  0.1798 -0.2936 -0.1475
   35loPI   C4A  554  15.179   9.930   8.950  0.1488 -0.0206 -0.2136
   35loPI   C5A  555  15.277   9.753   8.555  0.0266  0.0476 -0.2455
   35loPI   C6A  556  15.350   9.500   8.288  0.2018  0.0104  0.2810
   35loPI   C1B  557  15.727  10.261  10.101  0.0222  0.4641  0.1087
   35loPI   C2B  558  15.777  10.330   9.654  0.3083  0.3453 -0.0835
   35loPI   C3B  559  15.837  10.055   9.281 -0.0599 -0.3163 -0.0280
   35loPI   C4B  560  15.807  10.079   8.871  0.1891 -0.0082  0.1594
   36loPI    C1  561  16.092  11.563  11.484 -0.1382  0.0333 -0.0636
   36loPI    C2  562  15.933  11.317  11.211  0.1009 -0.1703 -0.0231
   36loPI    C3  563  16.065  11.171  11.559  0.2086  0.0223  0.0183
   36loPI   PO4  564  15.992  11.785  11.405  0.3213 -0.2792 -0.1699
   36loPI   GL1  565  15.904  12.041  10.958  0.0096  0.0882 -0.2735
   36loPI   GL2  566  15.628  12.262  10.924 -0.1300 -0.0873 -0.2877
   36loPI   C1A  567  15.835  12.012  10.527  0.3083  0.1486 -0.1312
   36loPI   C2A  568  15.684  12.104  10.102 -0.1055 -0.1046 -0.0942
   36loPI   C3A  569  15.730  12.168   9.761  0.1152 -0.0089 -0.0352
   36loPI   C4A  570  15.865  12.092   9.318 -0.2108  0.2479  0.1606
   36loPI   C5A  571  15.713  11.784   9.050 -0.2083  0.0651 -0.0358
   36loPI   C6A  572  15.716  11.478   8.738  0.1311 -0.0560  0.1152
   36loPI   C1B  573  15.378  12.284  10.560 -0.0365 -0.0382  0.4014
   36loPI   C2B  574  15.149  12.262  10.127 -0.0600 -0.0187  0.2986
   36loPI   C3B  575  15.236  12.308   9.717  0.1779  0.1368 -0.1325
   36loPI   C4B  576  15.406  12.225   9.325 -0.1534 -0.1197  0.0518
   37loPI    C1  577   9.144   0.650  11.194 -0.0221  0.1949 -0.2760
   37loPI    C2  578   9.323   1.007  11.218 -0.0136  0.1794 -0.0886
   37loPI    C3  579   9.273   0.786  11.548 -0.0679  0.0310 -0.1951
   37loPI   PO4  580   9.281   0.588  10.877  0.0640 -0.0376 -0.3683
   37loPI   GL1  581   9.330   0.304  10.481  0.0198  0.2583 -0.3636
   37loPI   GL2  582   9.012   0.560  10.468 -0.2523 -0.1124 -0.1353
   37loPI   C1A  583   9.301   0.297  10.042 -0.2982 -0.3071  0.0015
   37loPI   C2A  584   9.271   0.277   9.579  0.0766 -0.2242 -0.0267
   37loPI   C3A  585   9.198   0.257   9.152  0.1668  0.3283  0.0633
   37loPI   C4A  586   9.133   0.263   8.695  0.0623  0.2197 -0.1531
   37loPI   C5A  587   8.890   0.184   8.335 -0.1900  0.0185 -0.1333
   37loPI   C6A  588   8.815   0.210   7.938  0.1798 -0.0842 -0.3795
   37loPI   C1B  589   8.797   0.670  10.137 -0.0990  0.2039  0.0107
   37loPI   C2B  590   8.819   0.479   9.651  0.0034 -0.0648 -0.4903
   37loPI   C3B  591   8.772   0.450   9.195 -0.1531 -0.1620 -0.1454
   37loPI   C4B  592   8.643   0.489   8.695 -0.0716 -0.1134 -0.1581
   38loPI    C1  593   0.797  10.248  10.904  0.4892  0.0446  0.1995
   38loPI    C2  594   0.621  10.607  10.924  0.2029 -0.0692 -0.1602
   38loPI    C3  595   0.540  10.328  11.200  0.0790 -0.0072 -0.1333
   38loPI   PO4  596   0.767  10.248  10.646  0.2957  0.1824 -0.1884
   38loPI   GL1  597   0.911  10.196  10.291 -0.1181 -0.0107 -0.2696
   38loPI   GL2  598   1.205  10.029  10.159 -0.0717 -0.1716  0.2453
   38loPI   C1A  599   0.776  10.234   9.899 -0.3489  0.1056  0.1377
   38loPI   C2A  600   0.811  10.208   9.495 -0.3647  0.0516  0.2241
   38loPI   C3A  601   0.858  10.316   9.070  0.2534  0.2526  0.2490
   38loPI   C4A  602   0.886  10.461   8.616 -0.1584 -0.1928  0.0626
   38loPI   C5A  603   0.742  10.548   8.245  0.0768 -0.1810 -0.0813
   38loPI   C6A  604   0.324  10.608   8.162  0.0235  0.2046 -0.2314
   38loPI   C1B  605   1.277  10.081   9.684 -0.0323  0.0832 -0.0021
   38loPI   C2B  606   1.319  10.052   9.305 -0.1014 -0.1110  0.2132
   38loPI   C3B  607   1.520   9.951   8.892 -0.2398  0.2011  0.0817
   38loPI   C4B  608   1.448  10.098   8.508  0.0719 -0.0214  0.0622
   39loPI    C1  609  12.924  16.235  11.039 -0.4343  0.0740  0.0075
   39loPI    C2  610  12.884  15.943  11.309 -0.2544  0.1051  0.0695
   39loPI    C3  611  12.940  16.320  11.430  0.0792  0.0837 -0.0087
   39loPI   PO4  612  12.742  16.172  10.775 -0.1948 -0.4607 -0.2419
   39loPI   GL1  613  12.932  16.209  10.341 -0.3291  0.1256 -0.1422
   39loPI   GL2  614  13.073  16.365  10.083  0.0157  0.0318  0.2839
   39loPI   C1A  615  13.071  15.912   9.963 -0.0415 -0.0412 -0.1699
   39loPI   C2A  616  13.233  15.826   9.567 -0.0399 -0.1393  0.2658
   39loPI   C3A  617  13.203  15.823   9.047  0.4242  0.0304  0.0100
   39loPI   C4A  618  13.442  15.778   8.642  0.1490 -0.0911 -0.1573
   39loPI   C5A  619  13.876  15.801   8.570 -0.0517 -0.2026 -0.0486
   39loPI   C6A  620  14.150  16.058   8.299  0.1605 -0.1143  0.0649
   39loPI   C1B  621  13.150  16.341   9.646  0.3049  0.1434 -0.0610
   39loPI   C2B  622  13.228  16.332   9.191  0.1724  0.0079  0.0757
   39loPI   C3B  623  13.272  16.251   8.731 -0.4740  0.0200  0.3717
   39loPI   C4B  624  13.005  16.161   8.406 -0.1231 -0.0247 -0.1228
   40loPI    C1  625   1.231   2.235  10.684  0.0407 -0.0604  0.0054
   40loPI    C2  626   1.138   1.913  10.902  0.1277 -0.0815  0.0116
   40loPI    C3  627   1.106   2.278  11.062  0.1098 -0.0920  0.0321
   40loPI   PO4  628   1.133   2.259  10.459 -0.2677 -0.0874  0.1054
   40loPI   GL1  629   1.300   2.297  10.079  0.0885  0.0591 -0.3320
   40loPI   GL2  630   1.289   1.917  10.002  0.0379 -0.3165 -0.0017
   40loPI   C1A  631   1.362   2.506   9.698  0.1023 -0.1623  0.0966
   40loPI   C2A  632   1.734   2.809   9.508 -0.0401  0.0008  0.1498
   40loPI   C3A  633   1.751   2.855   9.089 -0.1296  0.0284  0.0250
   40loPI   C4A  634   1.711   2.666   8.662 -0.2890  0.1782  0.0296
   40loPI   C5A  635   1.870   2.479   8.332  0.0472 -0.0234 -0.2318
   40loPI   C6A  636   2.311   2.324   8.226  0.0782  0.0958 -0.0474
   40loPI   C1B  637   1.103   2.001   9.649  0.2659 -0.4079 -0.1528
   40loPI   C2B  638   1.255   1.950   9.195 -0.0470 -0.0745  0.1792
   40loPI   C3B  639   1.265   1.946   8.815 -0.1734 -0.1175  0.2437
   40loPI   C4B  640   1.197   1.974   8.384  0.3679 -0.0714 -0.0673
   41loPI    C1  641   4.133   4.409  10.974 -0.1339 -0.1054  0.0814
   41loPI    C2  642   4.007   4.072  11.149 -0.1108 -0.1018  0.1049
   41loPI    C3  643   4.173   4.362  11.369 -0.0442 -0.1142  0.0715
   41loPI   PO4  644   3.960   4.395  10.790  0.0843  0.0328 -0.2070
   41loPI   GL1  645   3.725   4.498  10.463  0.0100 -0.1395  0.0269
   41loPI   GL2  646   3.617   4.155  10.389  0.0393 -0.2339 -0.0392
   41loPI   C1A  647   3.810   4.460  10.034 -0.2583 -0.0834  0.0869
   41loPI   C2A  648   3.786   4.518   9.594 -0.0430 -0.0509  0.0199
   41loPI   C3A  649   3.812   4.626   9.151 -0.1970  0.0387  0.1782
   41loPI   C4A  650   3.804   4.723   8.704 -0.1504  0.1340  0.0877
   41loPI   C5A  651   3.761   4.702   8.222 -0.0804  0.0704 -0.1977
   41loPI   C6A  652   3.788   4.332   8.012 -0.2152 -0.1837  0.1002
   41loPI   C1B  653   3.695   3.942   9.984  0.3276  0.0404 -0.0362
   41loPI   C2B  654   3.700   3.948   9.528  0.1897  0.1366  0.2565
   41loPI   C3B  655   3.817   4.163   9.154 -0.1861  0.0062  0.3480
   41loPI   C4B  656   3.701   4.222   8.733  0.0016  0.2246  0.0954
   42loPI    C1  657   5.343   7.601  11.068 -0.1778 -0.0159 -0.0744
   42loPI    C2  658   5.136   7.902  11.229 -0.0238 -0.0085  0.1134
   42loPI    C3  659   5.177   7.558  11.429  0.0213 -0.0619  0.0130
   42loPI   PO4  660   5.212   7.563  10.878 -0.1990 -0.1153  0.1053
   42loPI   GL1  661   5.352   7.575  10.573  0.2585  0.0439  0.1547
   42loPI   GL2  662   5.625   7.692  10.433  0.2875  0.3866  0.0351
   42loPI   C1A  663   5.084   7.550  10.112 -0.0139 -0.1826 -0.1070
   42loPI   C2A  664   5.092   7.545   9.678 -0.1776 -0.2688 -0.1036
   42loPI   C3A  665   5.207   7.609   9.272  0.0856 -0.0095 -0.0771
   42loPI   C4A  666   5.220   7.567   8.814  0.1204 -0.2406  0.2639
   42loPI   C5A  667   5.055   7.361   8.456  0.0156 -0.0444  0.0590
   42loPI   C6A  668   4.875   7.076   8.225  0.1498  0.1295  0.0224
   42loPI   C1B  669   5.600   7.803   9.961 -0.0104 -0.4292  0.1653
   42loPI   C2B  670   5.606   7.792   9.595 -0.0667 -0.0100  0.4615
   42loPI   C3B  671   5.637   7.785   9.067  0.1988 -0.0879  0.0242
   42loPI   C4B  672   5.793   7.528   8.689  0.4826  0.2118 -0.1228
   43loPI    C1  673  10.028   0.770  10.916  0.0516  0.2360 -0.1899
   43loPI    C2  674   9.714   0.834  10.677 -0.1601  0.0153  0.0234
   43loPI    C3  675   9.801   0.463  10.798  0.0510  0.1027  0.1455
   43loPI   PO4  676  10.211   0.855  10.785  0.2627  0.3041  0.0447
   43loPI   GL1  677  10.098   1.200  10.551 -0.1208  0.1594 -0.1712
   43loPI   GL2  678  10.031   0.951  10.318 -0.1097 -0.2170 -0.1042
   43loPI   C1A  679  10.186   1.383  10.119  0.0810 -0.0925  0.2519
   43loPI   C2A  680  10.126   1.500   9.719 -0.1629 -0.3009 -0.0332
   43loPI   C3A  681   9.995   1.642   9.284 -0.0510 -0.1993  0.2893
   43loPI   C4A  682  10.113   1.824   8.911  0.0275 -0.0614 -0.2396
   43loPI   C5A  683  10.153   2.082   8.567  0.1134  0.1862 -0.1290
   43loPI   C6A  684  10.097   2.288   8.188 -0.0119 -0.0053  0.0442
   43loPI   C1B  685   9.809   1.128   9.872  0.2809  0.1978  0.0709
   43loPI   C2B  686   9.637   1.174   9.421 -0.0513 -0.1904  0.1910
   43loPI   C3B  687   9.780   1.279   8.988  0.1810  0.0794 -0.1973
   43loPI   C4B  688   9.854   1.477   8.611 -0.1405 -0.1269 -0.1668
   44loPI    C1  689   1.327   8.656  10.575  0.3736  0.0255  0.2153
   44loPI    C2  690   1.214   8.557  10.946 -0.3140  0.1960  0.0651
   44loPI    C3  691   1.346   8.927  10.868 -0.0711  0.1302  0.1532
   44loPI   PO4  692   1.255   8.445  10.441 -0.0314 -0.2332 -0.2675
   44loPI   GL1  693   1.112   8.228  10.191  0.0209  0.0621  0.0241
   44loPI   GL2  694   0.786   8.323  10.070  0.2471  0.0771  0.0557
   44loPI   C1A  695   1.222   8.166   9.784  0.0184  0.0085  0.3256
   44loPI   C2A  696   1.089   8.161   9.333 -0.0375 -0.0641  0.1135
   44loPI   C3A  697   1.244   8.335   8.870  0.1939 -0.1381  0.0030
   44loPI   C4A  698   1.316   8.372   8.392  0.1912  0.2086 -0.1514
   44loPI   C5A  699   1.128   8.503   8.012 -0.3782  0.0648 -0.0296
   44loPI   C6A  700   0.823   8.738   8.140  0.1071 -0.2158 -0.2341
   44loPI   C1B  701   0.644   8.281   9.621  0.0081  0.2196  0.1183
   44loPI   C2B  702   0.551   8.243   9.228  0.3485  0.0179  0.1669
   44loPI   C3B  703   0.660   8.349   8.910 -0.0183  0.1680  0.2096
   44loPI   C4B  704   0.880   8.367   8.572  0.1732  0.0142 -0.2741
   45loPI    C1  705   0.133   7.813  11.012 -0.0265  0.2563  0.0166
   45loPI    C2  706   0.097   7.863  11.407  0.2213  0.0491  0.0679
   45loPI    C3  707   0.339   7.579  11.262 -0.0572 -0.0430 -0.2308
   45loPI   PO4  708  -0.222   7.856  10.836  0.1820  0.1037 -0.1277
   45loPI   GL1  709  -0.348   7.906  10.460 -0.0058  0.3810 -0.0467
   45loPI   GL2  710  -0.144   7.677  10.302  0.0008  0.0812  0.1250
   45loPI   C1A  711  -0.156   8.209  10.124 -0.0953  0.0167  0.2040
   45loPI   C2A  712  -0.314   8.191   9.717  0.0205 -0.1949  0.0457
   45loPI   C3A  713  -0.249   8.181   9.207  0.1239 -0.1712 -0.2593
   45loPI   C4A  714  -0.096   8.191   8.742 -0.1670 -0.0373  0.0966
   45loPI   C5A  715   0.064   7.906   8.431 -0.0640 -0.2101 -0.3448
   45loPI   C6A  716   0.198   7.975   7.957  0.0104  0.1086  0.2711
   45loPI   C1B  717  -0.034   7.723   9.936 -0.0578  0.1032  0.2740
   45loPI   C2B  718  -0.228   7.684   9.586 -0.2519 -0.0998 -0.0904
   45loPI   C3B  719  -0.250   7.600   9.159 -0.2044 -0.2502 -0.1106
   45loPI   C4B  720   0.036   7.537   8.820 -0.1510 -0.1154  0.2147
   46loPI    C1  721   9.694   8.856  11.413  0.2846  0.0922  0.0931
   46loPI    C2  722   9.352   8.754  11.594  0.1069  0.1435 -0.2064
   46loPI    C3  723   9.683   8.814  11.811 -0.0519  0.0117  0.0785
   46loPI   PO4  724   9.626   8.662  11.144  0.0881 -0.2025  0.1242
   46loPI   GL1  725   9.585   8.748  10.735  0.0637 -0.0001  0.1129
   46loPI   GL2  726   9.292   8.678  10.682 -0.0023  0.0197  0.2434
   46loPI   C1A  727   9.531   8.905  10.317 -0.1078  0.1043  0.0402
   46loPI   C2A  728   9.301   9.066   9.998  0.0695  0.1340 -0.1234
   46loPI   C3A  729   9.162   9.195   9.525  0.0350  0.2243 -0.0233
   46loPI   C4A  730   9.127   9.275   9.146 -0.0755 -0.2389 -0.1946
   46loPI   C5A  731   9.228   9.434   8.789 -0.0284  0.0911 -0.1468
   46loPI   C6A  732   9.627   9.529   8.633 -0.0036 -0.0530  0.0076
   46loPI   C1B  733   9.106   8.694  10.316 -0.0309 -0.1070  0.0559
   46loPI   C2B  734   8.867   8.805   9.939 -0.0579  0.1864  0.0802
   46loPI   C3B  735   8.812   8.722   9.557  0.0380  0.0353  0.0427
   46loPI   C4B  736   8.784   8.452   9.213 -0.3547 -0.0874 -0.0469
   47loPI    C1  737  10.846   7.872  11.318  0.0311  0.1838 -0.0684
   47loPI    C2  738  11.211   8.024  11.381  0.1208 -0.1160  0.1613
   47loPI    C3  739  11.131   7.647  11.485 -0.1734 -0.1468 -0.1570
   47loPI   PO4  740  10.816   7.921  11.074  0.0814  0.0201  0.0509
   47loPI   GL1  741  10.847   7.697  10.619 -0.1400 -0.0053  0.0737
   47loPI   GL2  742  10.810   7.440  10.484 -0.2462  0.1366 -0.1552
   47loPI   C1A  743  10.970   7.920  10.297 -0.0819 -0.0028 -0.0983
   47loPI   C2A  744  10.795   8.133   9.941  0.0686 -0.1199  0.0215
   47loPI   C3A  745  10.594   8.320   9.561  0.2285  0.2376  0.0814
   47loPI   C4A  746  10.536   8.373   9.191  0.2937 -0.0867 -0.0251
   47loPI   C5A  747  10.358   8.107   8.887 -0.1512  0.0263 -0.0950
   47loPI   C6A  748  10.078   8.121   8.537 -0.2279  0.2385  0.0779
   47loPI   C1B  749  10.665   7.627  10.078 -0.2757  0.1388 -0.0203
   47loPI   C2B  750  10.671   7.785   9.571 -0.0180 -0.1807  0.0578
   47loPI   C3B  751  10.743   7.896   9.197 -0.1708  0.0449  0.0678
   47loPI   C4B  752  10.943   7.720   8.837 -0.0690  0.1678  0.0150
   48loPI    C1  753   3.051  12.829  11.068  0.3232 -0.0801 -0.0421
   48loPI    C2  754   3.032  13.145  11.312  0.0869 -0.0129 -0.1438
   48loPI    C3  755   3.198  12.804  11.439 -0.0022  0.0319  0.0983
   48loPI   PO4  756   3.196  12.941  10.869 -0.1767 -0.0765 -0.0098
   48loPI   GL1  757   3.206  13.147  10.537  0.0046 -0.1632  0.1087
   48loPI   GL2  758   2.894  13.295  10.351 -0.0991 -0.0183  0.2754
   48loPI   C1A  759   3.366  13.046  10.000  0.0691 -0.0036 -0.2934
   48loPI   C2A  760   3.355  13.129   9.576 -0.2259 -0.2506  0.0443
   48loPI   C3A  761   3.411  13.062   9.137  0.1405 -0.3333  0.2087
   48loPI   C4A  762   3.611  13.145   8.745  0.0246 -0.1931  0.4511
   48loPI   C5A  763   3.832  13.390   8.461 -0.0655 -0.0230  0.0998
   48loPI   C6A  764   4.011  13.735   8.306  0.3019 -0.1064 -0.1473
   48loPI   C1B  765   2.906  13.242   9.923  0.0192 -0.0151 -0.1470
   48loPI   C2B  766   2.954  13.314   9.492 -0.0100 -0.2107  0.0223
   48loPI   C3B  767   3.202  13.479   9.208 -0.2041 -0.0275  0.1423
   48loPI   C4B  768   3.235  13.450   8.741 -0.2929 -0.1219  0.2126
   49loPI    C1  769  16.401  14.419  11.129 -0.1528  0.1152 -0.0094
   49loPI    C2  770  16.611  14.327  10.801 -0.0779  0.1255  0.0355
   49loPI    C3  771  16.780  14.544  11.092 -0.0892 -0.0256  0.1560
   49loPI   PO4  772  16.188  14.486  11.051  0.1905 -0.3220  0.3799
   49loPI   GL1  773  16.016  14.311  10.757  0.1449  0.0518 -0.1654
   49loPI   GL2  774  15.752  13.986  10.846 -0.0998  0.3945  0.1655
   49loPI   C1A  775  16.142  14.262  10.230  0.1864 -0.2889 -0.2698
   49loPI   C2A  776  16.140  14.319   9.767  0.1943 -0.3091  0.1295
   49loPI   C3A  777  16.271  14.228   9.406 -0.1200  0.0225 -0.1810
   49loPI   C4A  778  16.307  14.156   8.929  0.3465  0.1967 -0.2167
   49loPI   C5A  779  16.519  13.902   8.592  0.2940  0.1646  0.0846
   49loPI   C6A  780  16.688  13.713   8.167 -0.2570  0.0532 -0.0663
   49loPI   C1B  781  15.778  13.993  10.416 -0.0632  0.1326  0.0876
   49loPI   C2B  782  15.850  13.978   9.975  0.1540  0.0853  0.2296
   49loPI   C3B  783  15.804  13.925   9.592  0.1426 -0.2729 -0.2802
   49loPI   C4B  784  15.944  13.894   9.156 -0.0151  0.0940  0.2492
   50loPI    C1  785   6.781  16.560  10.860  0.0191 -0.0882  0.1606
   50loPI    C2  786   6.506  16.487  11.141  0.0311 -0.0700  0.1772
   50loPI    C3  787   6.807  16.739  11.217 -0.0220  0.0131  0.1133
   50loPI   PO4  788   6.715  16.637  10.685  0.0551  0.1273 -0.0446
   50loPI   GL1  789   6.568  16.585  10.220  0.1761  0.1016 -0.0958
   50loPI   GL2  790   6.781  16.853  10.242 -0.0803 -0.0182 -0.4140
   50loPI   C1A  791   6.402  16.569   9.828  0.0333  0.0565 -0.1038
   50loPI   C2A  792   6.336  16.700   9.379  0.1721 -0.0899 -0.2721
   50loPI   C3A  793   6.162  16.691   9.037 -0.2481  0.1997 -0.1857
   50loPI   C4A  794   6.114  16.418   8.712  0.2063  0.2975 -0.0390
   50loPI   C5A  795   5.899  16.052   8.567  0.1291 -0.1404 -0.1208
   50loPI   C6A  796   5.956  15.724   8.338 -0.1214 -0.2651  0.0361
   50loPI   C1B  797   6.809  16.909   9.836 -0.2658 -0.1836  0.1718
   50loPI   C2B  798   6.823  16.826   9.297  0.3541 -0.4036 -0.0008
   50loPI   C3B  799   7.010  16.932   8.793  0.1158 -0.2909  0.0958
   50loPI   C4B  800   7.166  17.198   8.480  0.0125 -0.0481  0.1932
   51loPI    C1  801   1.494  10.004  10.610 -0.1908 -0.0959  0.0735
   51loPI    C2  802   1.273  10.334  10.562 -0.1260 -0.0859 -0.1698
   51loPI    C3  803   1.375  10.213  10.930 -0.1118  0.1901 -0.0808
   51loPI   PO4  804   1.657  10.004  10.445  0.0720 -0.2786  0.1106
   51loPI   GL1  805   1.795   9.938  10.032 -0.0642 -0.1713 -0.3412
   51loPI   GL2  806   1.991   9.799  10.169  0.0990 -0.1065  0.2286
   51loPI   C1A  807   1.797   9.936   9.570  0.1651 -0.1965 -0.3013
   51loPI   C2A  808   1.875  10.146   9.180 -0.0530  0.0520 -0.2609
   51loPI   C3A  809   1.877  10.194   8.684 -0.3194 -0.2972 -0.0904
   51loPI   C4A  810   2.089  10.513   8.511  0.2573  0.3943 -0.1274
   51loPI   C5A  811   2.529  10.685   8.485 -0.2136 -0.1811 -0.0471
   51loPI   C6A  812   2.899  10.917   8.492 -0.1129 -0.1701 -0.1634
   51loPI   C1B  813   2.265   9.800   9.716 -0.3313 -0.0091 -0.0493
   51loPI   C2B  814   2.302   9.769   9.360  0.1714 -0.1358  0.0422
   51loPI   C3B  815   2.282  10.030   8.959  0.0908  0.0421 -0.0314
   51loPI   C4B  816   2.363  10.148   8.592  0.0888  0.2911 -0.1965
   52loPI    C1  817  17.384  12.702  11.498  0.0835  0.1067 -0.0428
   52loPI    C2  818  17.241  12.413  11.734 -0.3303  0.3262 -0.0160
   52loPI    C3  819  17.521  12.663  11.872 -0.0853  0.0420  0.0129
   52loPI   PO4  820  17.322  12.596  11.271  0.2081  0.0394 -0.0196
   52loPI   GL1  821  17.039  12.732  10.901 -0.0092  0.0223  0.0664
   52loPI   GL2  822  17.387  12.694  10.805  0.0355 -0.2400  0.2627
   52loPI   C1A  823  17.068  13.045  10.614 -0.0898  0.2115  0.1030
   52loPI   C2A  824  16.957  13.023  10.185  0.0514 -0.2927  0.2010
   52loPI   C3A  825  16.902  13.071   9.798 -0.2283  0.2484  0.1727
   52loPI   C4A  826  16.946  13.070   9.308 -0.3716 -0.1357  0.0513
   52loPI   C5A  827  17.018  13.217   8.941 -0.1835  0.0956  0.0215
   52loPI   C6A  828  17.137  13.239   8.512  0.2152 -0.0876  0.3402
   52loPI   C1B  829  17.556  12.574  10.450  0.1276 -0.0424 -0.2602
   52loPI   C2B  830  17.648  12.594   9.978 -0.1340  0.0745 -0.0479
   52loPI   C3B  831  17.677  12.421   9.497  0.3605  0.0639  0.2181
   52loPI   C4B  832  17.685  12.540   9.051 -0.0245  0.0648  0.2962
   53loPI    C1  833   8.979   7.887  11.468  0.0342  0.0539  0.2717
   53loPI    C2  834   8.622   7.810  11.632  0.0619 -0.3167  0.1661
   53loPI    C3  835   8.927   7.558  11.690  0.2071 -0.1927 -0.0462
   53loPI   PO4  836   8.935   7.934  11.191  0.0850  0.0878 -0.3443
   53loPI   GL1  837   8.743   7.782  10.874 -0.1704 -0.2075  0.0044
   53loPI   GL2  838   9.073   7.757  10.729  0.3317 -0.0652 -0.1580
   53loPI   C1A  839   8.467   7.892  10.548  0.0510 -0.1722 -0.0693
   53loPI   C2A  840   8.419   7.948  10.096  0.4552  0.1505  0.2123
   53loPI   C3A  841   8.431   8.048   9.759 -0.1231 -0.0250  0.0990
   53loPI   C4A  842   8.361   8.068   9.341 -0.2053 -0.0235  0.2300
   53loPI   C5A  843   8.396   8.247   8.935 -0.1127 -0.1749  0.0703
   53loPI   C6A  844   8.687   8.502   8.718 -0.0950 -0.3457  0.0251
   53loPI   C1B  845   9.303   7.901  10.316  0.1768 -0.2272 -0.1325
   53loPI   C2B  846   9.391   7.955   9.886 -0.0905  0.1047  0.2398
   53loPI   C3B  847   9.343   7.880   9.422  0.0103  0.1116  0.1155
   53loPI   C4B  848   9.235   7.672   9.013  0.1603  0.1621 -0.0077
   54loPI    C1  849   8.936   8.574  11.268 -0.0247  0.1886 -0.0483
   54loPI    C2  850   9.160   8.874  11.129  0.1382  0.0408 -0.1088
   54loPI    C3  851   8.851   8.951  11.371  0.1496  0.2599 -0.1616
   54loPI   PO4  852   8.898   8.398  11.064  0.0433  0.2700 -0.0498
   54loPI   GL1  853   8.768   8.402  10.708  0.1281  0.1686 -0.2799
   54loPI   GL2  854   8.432   8.516  10.593 -0.0634  0.0330  0.1473
   54loPI   C1A  855   8.872   8.177  10.326 -0.0369 -0.1832  0.2295
   54loPI   C2A  856   8.868   8.267   9.894 -0.1027  0.0871 -0.1836
   54loPI   C3A  857   9.132   8.296   9.538  0.3645 -0.2699  0.0385
   54loPI   C4A  858   9.230   8.276   9.100  0.0326 -0.0785  0.1770
   54loPI   C5A  859   9.303   8.600   8.679 -0.0791  0.2897 -0.1205
   54loPI   C6A  860   9.303   8.769   8.270 -0.1733  0.0206  0.0353
   54loPI   C1B  861   8.570   8.594  10.289 -0.1696  0.1483 -0.0296
   54loPI   C2B  862   8.357   8.533   9.886 -0.3887 -0.3405  0.4433
   54loPI   C3B  863   8.375   8.550   9.443  0.1425  0.0374 -0.1270
   54loPI   C4B  864   8.310   8.686   9.064 -0.0898 -0.0650 -0.2268
   55loPI    C1  865  13.005  10.116  11.624 -0.0299  0.0171 -0.0610
   55loPI    C2  866  13.020   9.859  11.931 -0.2826 -0.2022 -0.2278
   55loPI    C3  867  12.856  10.220  11.981  0.1469 -0.0353  0.0294
   55loPI   PO4  868  13.108   9.988  11.336 -0.0499 -0.1357 -0.2774
   55loPI   GL1  869  13.016  10.074  10.986  0.1926 -0.0358 -0.0838
   55loPI   GL2  870  13.286  10.093  10.861  0.0021 -0.2309  0.1140
   55loPI   C1A  871  12.908  10.021  10.536 -0.1254  0.1498 -0.1061
   55loPI   C2A  872  12.924  10.190  10.238 -0.0136 -0.3187 -0.2463
   55loPI   C3A  873  12.971  10.199   9.777  0.1374  0.1979 -0.0426
   55loPI   C4A  874  12.908  10.297   9.337  0.0787  0.0635 -0.0245
   55loPI   C5A  875  12.935  10.345   8.931  0.0175  0.2657 -0.1549
   55loPI   C6A  876  13.081  10.170   8.526  0.0832  0.0954 -0.1615
   55loPI   C1B  877  13.478  10.074  10.391  0.0336 -0.0021  0.0668
   55loPI   C2B  878  13.438  10.083   9.943 -0.2099  0.0320 -0.1618
   55loPI   C3B  879  13.495  10.082   9.484 -0.1639  0.1072  0.3515
   55loPI   C4B  880  13.350  10.060   8.922  0.1566  0.1186  0.0148
   56loPI    C1  881   5.939  11.501  11.440  0.0021  0.1632  0.2908
   56loPI    C2  882   6.019  11.122  11.536 -0.0603  0.1581  0.3236
   56loPI    C3  883   6.131  11.418  11.781  0.0424  0.1652  0.2685
   56loPI   PO4  884   6.046  11.568  11.259 -0.1094  0.0842  0.0056
   56loPI   GL1  885   6.044  11.517  10.851 -0.0340  0.0287  0.1252
   56loPI   GL2  886   6.008  11.219  10.805  0.0846 -0.0949 -0.0721
   56loPI   C1A  887   5.897  11.686  10.400  0.1263 -0.0501 -0.0118
   56loPI   C2A  888   5.840  11.500   9.916  0.2917  0.3188 -0.0683
   56loPI   C3A  889   5.894  11.097   9.594 -0.3338 -0.2724  0.1040
   56loPI   C4A  890   6.099  11.013   9.266  0.2056 -0.3925 -0.2478
   56loPI   C5A  891   6.151  10.829   8.980  0.2425  0.2708  0.0419
   56loPI   C6A  892   5.858  10.712   8.675  0.2065  0.0750 -0.0303
   56loPI   C1B  893   5.958  11.196  10.376 -0.2140  0.3340 -0.4676
   56loPI   C2B  894   5.560  11.133  10.147 -0.1077  0.0647  0.3915
   56loPI   C3B  895   5.400  11.222   9.773  0.2121 -0.1813 -0.1438
   56loPI   C4B  896   5.393  11.304   9.358 -0.1057 -0.1382  0.2976
   57loPI    C1  897   9.482   7.824  11.349 -0.1367 -0.1016  0.0397
   57loPI    C2  898   9.490   7.617  11.691  0.1761  0.0810  0.1472
   57loPI    C3  899   9.446   8.014  11.699 -0.1474  0.0529 -0.0445
   57loPI   PO4  900   9.418   7.710  11.198 -0.0053  0.2120  0.1923
   57loPI   GL1  901   9.555   7.441  10.874  0.3188  0.1414 -0.0104
   57loPI   GL2  902   9.415   7.302  10.741 -0.2121  0.0553  0.3124
   57loPI   C1A  903   9.729   7.558  10.462 -0.3144 -0.2624 -0.1799
   57loPI   C2A  904   9.812   7.830  10.086  0.0011  0.0517  0.0871
   57loPI   C3A  905   9.811   8.227   9.802 -0.0518  0.1503  0.3007
   57loPI   C4A  906   9.689   8.300   9.376 -0.1628 -0.0480 -0.2497
   57loPI   C5A  907   9.907   8.303   8.985 -0.0537 -0.2881  0.0834
   57loPI   C6A  908  10.186   8.589   8.781 -0.0505  0.0510 -0.1835
   57loPI   C1B  909   9.296   7.453  10.259  0.1997 -0.0928  0.1489
   57loPI   C2B  910   9.317   7.420   9.802 -0.0287 -0.0045  0.0243
   57loPI   C3B  911   9.494   7.359   9.452 -0.0363 -0.1757 -0.0313
   57loPI   C4B  912   9.724   7.257   8.981  0.2505  0.2474 -0.0432
   58loPI    C1  913   6.842   3.009  11.244 -0.1372 -0.0500  0.0068
   58loPI    C2  914   6.514   3.050  11.469 -0.0197 -0.1150  0.1924
   58loPI    C3  915   6.721   2.708  11.478 -0.1353 -0.1987 -0.1816
   58loPI   PO4  916   6.762   3.071  10.947  0.4312  0.0526 -0.2925
   58loPI   GL1  917   6.891   2.916  10.530  0.1066 -0.0784  0.2051
   58loPI   GL2  918   7.216   2.846  10.403  0.1964 -0.2775 -0.0942
   58loPI   C1A  919   6.782   2.870  10.053  0.3778  0.1229 -0.4880
   58loPI   C2A  920   6.848   2.931   9.610 -0.4346  0.1088  0.1514
   58loPI   C3A  921   6.916   3.000   9.164 -0.1170 -0.1054  0.1033
   58loPI   C4A  922   6.886   2.996   8.755  0.2305 -0.2872  0.1051
   58loPI   C5A  923   6.650   3.071   8.439 -0.2854 -0.1466 -0.2908
   58loPI   C6A  924   6.374   3.135   8.254 -0.1144  0.3029  0.1663
   58loPI   C1B  925   7.274   3.006   9.938 -0.2194 -0.4010 -0.2211
   58loPI   C2B  926   7.311   3.128   9.511 -0.2310  0.0363  0.1835
   58loPI   C3B  927   7.361   3.180   9.082 -0.2153 -0.1667 -0.1777
   58loPI   C4B  928   7.347   3.181   8.638  0.1312  0.1255  0.1173
   59loPI    C1  929   4.842   7.853  10.782 -0.2559 -0.0218 -0.3474
   59loPI    C2  930   4.484   7.998  10.679 -0.3424  0.0483  0.0369
   59loPI    C3  931   4.591   7.985  11.064  0.0970  0.0908 -0.0787
   59loPI   PO4  932   5.002   7.995  10.570  0.0811  0.2252 -0.0019
   59loPI   GL1  933   4.854   8.066  10.170  0.0274  0.0198  0.3193
   59loPI   GL2  934   4.745   8.335  10.269  0.1526 -0.1573  0.0758
   59loPI   C1A  935   5.102   8.028   9.857 -0.0558  0.1032 -0.1273
   59loPI   C2A  936   5.146   8.092   9.435 -0.0075 -0.0131  0.1514
   59loPI   C3A  937   5.240   8.092   9.127 -0.3375 -0.4433  0.1737
   59loPI   C4A  938   5.348   8.148   8.619  0.0286  0.2716  0.2860
   59loPI   C5A  939   5.418   7.818   8.386  0.2033  0.1078  0.1618
   59loPI   C6A  940   5.495   7.423   8.218  0.0668  0.1635  0.3539
   59loPI   C1B  941   4.701   8.321   9.827 -0.1848 -0.0562  0.1738
   59loPI   C2B  942   4.763   8.395   9.401 -0.0664 -0.2749  0.1807
   59loPI   C3B  943   4.760   8.453   9.010  0.1171  0.3514 -0.1470
   59loPI   C4B  944   4.918   8.363   8.647 -0.0531  0.1340 -0.2307
   60loPI    C1  945   4.576   0.360  10.960  0.2139  0.1189 -0.1402
   60loPI    C2  946   4.474   0.686  11.168  0.0375  0.0151 -0.0612
   60loPI    C3  947   4.215   0.524  10.910 -0.0245 -0.2861  0.1848
   60loPI   PO4  948   4.787   0.411  10.862 -0.4089  0.1163  0.3706
   60loPI   GL1  949   4.895   0.550  10.505 -0.0753 -0.0653 -0.1469
   60loPI   GL2  950   5.242   0.368  10.445 -0.1670  0.0713 -0.0545
   60loPI   C1A  951   4.748   0.453  10.050  0.1748 -0.2947 -0.1013
   60loPI   C2A  952   4.698   0.542   9.517 -0.2482  0.0742  0.0971
   60loPI   C3A  953   4.754   0.601   9.094  0.0212  0.0938  0.0116
   60loPI   C4A  954   4.777   0.697   8.731 -0.1738 -0.0770 -0.0092
   60loPI   C5A  955   5.070   0.590   8.391 -0.2251  0.1157 -0.2410
   60loPI   C6A  956   5.477   0.701   8.166  0.3056 -0.0951 -0.1800
   60loPI   C1B  957   5.271   0.507   9.952  0.4272  0.0248 -0.1132
   60loPI   C2B  958   5.126   0.769   9.606 -0.2342 -0.1862 -0.4704
   60loPI   C3B  959   5.233   0.747   9.247 -0.1809  0.0350 -0.0487
   60loPI   C4B  960   5.287   0.829   8.790  0.0527  0.1603 -0.2674
   61loPI    C1  961  16.937   0.706  10.902  0.2551 -0.0180 -0.0879
   61loPI    C2  962  16.993   0.353  11.082  0.3080 -0.0258 -0.1195
   61loPI    C3  963  17.105   0.690  11.264  0.0119 -0.0037  0.0279
   61loPI   PO4  964  17.028   0.708  10.655 -0.3406  0.2686 -0.3194
   61loPI   GL1  965  16.968   0.498  10.297  0.1490 -0.2631 -0.0077
   61loPI   GL2  966  16.742   0.446  10.146  0.1749  0.0955 -0.4581
   61loPI   C1A  967  17.091   0.580   9.873  0.0284 -0.0296 -0.2564
   61loPI   C2A  968  17.259   0.411   9.564 -0.3818 -0.1790  0.0913
   61loPI   C3A  969  17.348   0.360   9.133 -0.0334 -0.0632 -0.0356
   61loPI   C4A  970  17.360   0.244   8.779  0.0893  0.0561 -0.0904
   61loPI   C5A  971  17.174   0.410   8.373  0.2571  0.1272 -0.3227
   61loPI   C6A  972  16.936   0.876   8.302 -0.5681 -0.2670  0.2962
   61loPI   C1B  973  16.421   0.380   9.797  0.0961 -0.2003 -0.3515
   61loPI   C2B  974  16.313   0.612   9.451  0.2481 -0.1708 -0.1514
   61loPI   C3B  975  16.372   0.745   9.060  0.2322  0.1974 -0.1429
   61loPI   C4B  976  16.070   0.988   8.918  0.0927  0.1536 -0.0443
   62loPI    C1  977  12.457   1.734  10.717 -0.1415 -0.0114 -0.0226
   62loPI    C2  978  12.781   1.561  10.875 -0.1621  0.1451  0.1957
   62loPI    C3  979  12.468   1.649  11.108 -0.2175  0.3238  0.0554
   62loPI   PO4  980  12.533   1.910  10.566 -0.0395 -0.0771  0.0646
   62loPI   GL1  981  12.433   2.116  10.144 -0.2849 -0.0527  0.0158
   62loPI   GL2  982  12.494   2.310  10.023 -0.1209 -0.0579  0.3359
   62loPI   C1A  983  12.448   1.909   9.678 -0.0954 -0.1178  0.2592
   62loPI   C2A  984  12.408   2.025   9.307  0.0739 -0.0649 -0.0083
   62loPI   C3A  985  12.583   2.004   8.963  0.1352  0.0040 -0.1513
   62loPI   C4A  986  12.664   2.229   8.661  0.1283 -0.1874 -0.2472
   62loPI   C5A  987  12.695   2.551   8.324 -0.0019 -0.1132  0.0096
   62loPI   C6A  988  12.444   2.732   8.064  0.3698 -0.1446  0.2499
   62loPI   C1B  989  12.351   2.443   9.600  0.0578 -0.0848  0.1800
   62loPI   C2B  990  12.405   2.563   9.147 -0.0228 -0.1085  0.1528
   62loPI   C3B  991  12.365   2.652   8.683  0.1729  0.0369 -0.0312
   62loPI   C4B  992  12.095   2.921   8.480  0.1712 -0.0709 -0.0577
   63loPI    C1  993  14.261  10.881  11.503  0.0197 -0.1733 -0.0763
   63loPI    C2  994  14.566  10.691  11.678  0.0142 -0.1592 -0.0512
   63loPI    C3  995  14.192  10.559  11.730 -0.0041 -0.0572  0.0828
   63loPI   PO4  996  14.351  11.003  11.284  0.0265 -0.2857 -0.4192
   63loPI   GL1  997  14.583  10.988  10.929 -0.5455  0.3059 -0.0502
   63loPI   GL2  998  14.938  10.966  10.904 -0.0339  0.1903 -0.1019
   63loPI   C1A  999  14.645  11.024  10.504 -0.0271  0.2268 -0.0413
   63loPI   C2A 1000  14.672  11.048  10.012 -0.3519 -0.1242  0.1977
   63loPI   C3A 1001  14.636  11.053   9.604  0.0356 -0.0405 -0.2458
   63loPI   C4A 1002  14.679  11.131   9.186  0.0636 -0.1134 -0.1548
   63loPI   C5A 1003  14.764  11.102   8.716  0.3526 -0.1417  0.2726
   63loPI   C6A 1004  14.798  11.356   8.333  0.0537 -0.0606  0.3174
   63loPI   C1B 1005  15.167  10.766  10.562  0.1973  0.1928 -0.3641
   63loPI   C2B 1006  15.167  10.934  10.144  0.1194 -0.0508  0.1437
   63loPI   C3B 1007  15.106  10.978   9.691  0.0592  0.1451  0.3063
   63loPI   C4B 1008  15.205  10.896   9.286 -0.0670 -0.0714 -0.1356
   64loPI    C1 1009   5.394   4.788  11.221 -0.0095  0.2948  0.0533
   64loPI    C2 1010   5.132   4.492  11.280  0.3091 -0.0170 -0.0595
   64loPI    C3 1011   5.226   4.738  11.581 -0.0125  0.0196  0.0154
   64loPI   PO4 1012   5.411   4.843  10.904  0.0170  0.0963 -0.0646
   64loPI   GL1 1013   5.216   4.857  10.488 -0.1509  0.0016  0.1836
   64loPI   GL2 1014   5.281   5.223  10.478 -0.0008 -0.0616  0.2550
   64loPI   C1A 1015   5.217   4.681  10.218 -0.0888 -0.1133 -0.1292
   64loPI   C2A 1016   5.174   4.586   9.712 -0.0404 -0.2171  0.0975
   64loPI   C3A 1017   5.254   4.682   9.296  0.0001 -0.1904  0.2328
   64loPI   C4A 1018   5.306   4.761   8.856 -0.2302  0.0347 -0.0156
   64loPI   C5A 1019   5.171   4.604   8.446  0.1109 -0.3148 -0.0276
   64loPI   C6A 1020   4.939   4.418   8.101  0.1634 -0.2620  0.1628
   64loPI   C1B 1021   5.354   5.151  10.074 -0.2847 -0.0397  0.3433
   64loPI   C2B 1022   5.339   5.128   9.615  0.1007 -0.0838  0.0880
   64loPI   C3B 1023   5.334   5.267   9.212  0.0066 -0.1717 -0.1878
   64loPI   C4B 1024   5.439   5.285   8.737  0.0361  0.0663  0.1992
   65loPI    C1 1025  14.241   2.810  10.601  0.0379  0.2201 -0.1784
   65loPI    C2 1026  14.010   2.820  10.927 -0.0202  0.3962 -0.2241
   65loPI    C3 1027  14.407   2.861  10.961 -0.0055  0.2057 -0.1564
   65loPI   PO4 1028  14.075   2.788  10.430  0.0664  0.2218 -0.0583
   65loPI   GL1 1029  14.119   2.902   9.906  0.2554  0.2688 -0.0348
   65loPI   GL2 1030  13.789   2.823  10.013 -0.3834 -0.2788 -0.2415
   65loPI   C1A 1031  14.099   2.962   9.429 -0.0638  0.0512  0.1396
   65loPI   C2A 1032  13.872   3.067   9.111  0.2375 -0.0377  0.1556
   65loPI   C3A 1033  13.710   3.074   8.731 -0.0926 -0.0513 -0.0539
   65loPI   C4A 1034  13.297   3.100   8.630  0.1011  0.2482  0.0387
   65loPI   C5A 1035  12.870   3.163   8.633 -0.1927  0.0445 -0.0770
   65loPI   C6A 1036  12.570   3.042   8.454 -0.3370 -0.4385 -0.4872
   65loPI   C1B 1037  13.654   2.989   9.665  0.1516 -0.5001 -0.2259
   65loPI   C2B 1038  13.395   3.048   9.291  0.0517 -0.0347  0.2612
   65loPI   C3B 1039  13.016   3.302   9.200  0.0822  0.0995 -0.3517
   65loPI   C4B 1040  12.582   3.332   9.345  0.1056 -0.1703 -0.1714
   66loPI    C1 1041  10.378   4.370  11.152  0.0400  0.0187 -0.1345
   66loPI    C2 1042  10.450   4.662  11.416 -0.1766  0.1340 -0.2013
   66loPI    C3 1043  10.325   4.304  11.543 -0.0946  0.1295 -0.1333
   66loPI   PO4 1044  10.221   4.472  10.947  0.1078  0.3815  0.0878
   66loPI   GL1 1045  10.159   4.503  10.502  0.3435 -0.1271 -0.2607
   66loPI   GL2 1046  10.328   4.252  10.446 -0.1284 -0.2379  0.0015
   66loPI   C1A 1047  10.257   4.691  10.038 -0.0618  0.3167  0.2090
   66loPI   C2A 1048  10.225   4.913   9.676  0.2141 -0.4927  0.1043
   66loPI   C3A 1049  10.199   5.353   9.449  0.0518 -0.0399  0.1669
   66loPI   C4A 1050  10.388   5.689   9.276 -0.1278 -0.1371  0.2710
   66loPI   C5A 1051  10.616   5.990   9.263 -0.1338  0.1766  0.0787
   66loPI   C6A 1052  10.912   6.181   9.012 -0.0490 -0.2204 -0.1189
   66loPI   C1B 1053  10.106   4.193  10.089  0.0211 -0.0623  0.3211
   66loPI   C2B 1054  10.171   4.331   9.643  0.2934 -0.0975 -0.1235
   66loPI   C3B 1055  10.270   4.458   9.176 -0.0506  0.0085 -0.1786
   66loPI   C4B 1056  10.487   4.382   8.830  0.0575  0.0038  0.0040
   67loPI    C1 1057   5.302  13.650  10.965 -0.1705 -0.0969 -0.0590
   67loPI    C2 1058   5.161  13.470  11.292 -0.0620  0.0641  0.0781
   67loPI    C3 1059   5.531  13.388  11.162 -0.0104  0.1892  0.1438
   67loPI   PO4 1060   5.135  13.584  10.760 -0.1053 -0.0347 -0.0517
   67loPI   GL1 1061   5.127  13.423  10.438  0.0807 -0.0032  0.2340
   67loPI   GL2 1062   4.999  13.156  10.390 -0.2100 -0.2627 -0.3009
   67loPI   C1A 1063   5.124  13.448   9.930  0.2108 -0.3168 -0.0981
   67loPI   C2A 1064   5.146  13.480   9.441  0.0925  0.0817 -0.0633
   67loPI   C3A 1065   5.087  13.450   8.991 -0.2498 -0.1488 -0.0236
   67loPI   C4A 1066   5.122  13.074   8.717  0.1160 -0.1680 -0.1437
   67loPI   C5A 1067   5.101  12.700   8.546 -0.0753  0.2407 -0.0676
   67loPI   C6A 1068   5.047  12.665   8.135  0.2888 -0.1350  0.0716
   67loPI   C1B 1069   4.795  13.071  10.045  0.0260 -0.1600  0.1180
   67loPI   C2B 1070   4.708  12.825   9.649 -0.0067 -0.1006  0.2590
   67loPI   C3B 1071   4.718  12.423   9.602  0.1491 -0.1728 -0.1757
   67loPI   C4B 1072   4.304  12.167   9.701 -0.2505 -0.0172  0.1903
   68loPI    C1 1073   0.092  11.009  11.189  0.2084 -0.0796 -0.0248
   68loPI    C2 1074   0.286  10.742  11.414 -0.1165 -0.0805  0.2627
   68loPI    C3 1075   0.144  11.077  11.580  0.1188  0.1840 -0.0567
   68loPI   PO4 1076   0.267  10.973  10.976  0.1928  0.3922 -0.1640
   68loPI   GL1 1077   0.244  11.219  10.563 -0.1271  0.0818  0.1522
   68loPI   GL2 1078  -0.081  11.115  10.565 -0.0147  0.1119 -0.0356
   68loPI   C1A 1079   0.111  11.408  10.161 -0.0127 -0.0502 -0.0335
   68loPI   C2A 1080   0.007  11.355   9.782  0.1112 -0.2058 -0.0958
   68loPI   C3A 1081   0.066  11.478   9.356 -0.3724 -0.1576  0.2445
   68loPI   C4A 1082   0.040  11.488   8.959  0.1763  0.1515 -0.2983
   68loPI   C5A 1083  -0.036  11.477   8.582 -0.0271  0.0660 -0.1562
   68loPI   C6A 1084  -0.199  11.401   8.176  0.2829 -0.0624 -0.3471
   68loPI   C1B 1085  -0.277  11.127  10.143 -0.2036 -0.1078 -0.3846
   68loPI   C2B 1086  -0.405  11.141   9.713 -0.1000  0.4037 -0.0396
   68loPI   C3B 1087  -0.437  11.181   9.238  0.0260 -0.0628 -0.1755
   68loPI   C4B 1088  -0.524  11.378   8.791 -0.3570  0.0409 -0.1077
   69loPI    C1 1089  16.084  16.566  11.163  0.1425  0.0050 -0.2099
   69loPI    C2 1090  15.702  16.665  11.229  0.0945 -0.1708 -0.2172
   69loPI    C3 1091  15.874  16.376  11.445  0.3223  0.1270  0.0091
   69loPI   PO4 1092  16.057  16.604  10.874 -0.3342  0.1434 -0.0249
   69loPI   GL1 1093  16.378  16.448  10.571  0.1015  0.1959  0.2745
   69loPI   GL2 1094  16.622  16.619  10.515 -0.0775 -0.1552 -0.0949
   69loPI   C1A 1095  16.254  16.368  10.112  0.1160 -0.0475 -0.2356
   69loPI   C2A 1096  16.401  16.225   9.779  0.1594  0.2272  0.0826
   69loPI   C3A 1097  16.381  16.147   9.381  0.0242 -0.1321 -0.2264
   69loPI   C4A 1098  16.297  15.994   8.922  0.4399  0.2870 -0.0343
   69loPI   C5A 1099  16.207  16.089   8.462  0.0252  0.2316 -0.2768
   69loPI   C6A 1100  15.769  16.190   8.414  0.0278  0.0246 -0.2826
   69loPI   C1B 1101  16.728  16.640  10.017  0.0140  0.0652 -0.0655
   69loPI   C2B 1102  16.783  16.532   9.516 -0.0935 -0.0317 -0.0166
   69loPI   C3B 1103  16.779  16.342   9.120  0.1295 -0.0459  0.3103
   69loPI   C4B 1104  16.696  16.217   8.693  0.1855 -0.0620  0.0742
   70loPI    C1 1105  13.158  15.697  10.925 -0.2399  0.2475  0.0191
   70loPI    C2 1106  13.137  15.349  10.728  0.2617  0.0024  0.3767
   70loPI    C3 1107  12.875  15.430  11.020  0.0639 -0.0144  0.2068
   70loPI   PO4 1108  13.185  15.899  10.776 -0.3760 -0.1065  0.1346
   70loPI   GL1 1109  13.426  15.986  10.488 -0.1433 -0.1526  0.4632
   70loPI   GL2 1110  13.203  15.683  10.312  0.3116 -0.0797  0.0407
   70loPI   C1A 1111  13.488  16.159  10.160  0.0708  0.1041 -0.0875
   70loPI   C2A 1112  13.658  16.278   9.695 -0.2314 -0.2378  0.3856
   70loPI   C3A 1113  13.666  16.135   9.372 -0.2925 -0.0795  0.0303
   70loPI   C4A 1114  13.651  16.073   9.013 -0.1018  0.0991  0.0786
   70loPI   C5A 1115  13.743  16.316   8.687  0.0943 -0.1332  0.0350
   70loPI   C6A 1116  13.709  16.327   8.294  0.2287  0.1330  0.2361
   70loPI   C1B 1117  13.298  15.405  10.138  0.1265 -0.1446  0.0576
   70loPI   C2B 1118  13.312  15.304   9.725 -0.1164 -0.1471  0.0020
   70loPI   C3B 1119  13.369  15.323   9.302  0.1650 -0.0717  0.0935
   70loPI   C4B 1120  13.257  15.380   8.896 -0.4263  0.2128 -0.0434
   71loPI    C1 1121  16.223   7.167  11.142  0.0728  0.2821  0.0336
   71loPI    C2 1122  15.855   7.244  11.278 -0.0688 -0.2814 -0.0046
   71loPI    C3 1123  16.173   7.330  11.504 -0.2223  0.1371  0.0618
   71loPI   PO4 1124  16.152   7.289  10.860  0.0503  0.1467 -0.1589
   71loPI   GL1 1125  16.263   7.583  10.651  0.1103  0.1596  0.2186
   71loPI   GL2 1126  16.342   7.497  10.442  0.1001 -0.3178  0.1457
   71loPI   C1A 1127  15.872   7.430  10.262 -0.3044  0.3171 -0.1647
   71loPI   C2A 1128  15.904   7.266   9.807  0.1503  0.2926 -0.3167
   71loPI   C3A 1129  15.989   7.252   9.384  0.2506  0.3248  0.0992
   71loPI   C4A 1130  15.980   7.257   8.934  0.2176 -0.3294 -0.0971
   71loPI   C5A 1131  15.971   7.371   8.599  0.0597 -0.1053  0.1682
   71loPI   C6A 1132  15.862   7.706   8.331 -0.1209  0.0279  0.0951
   71loPI   C1B 1133  16.245   7.621   9.945 -0.0118 -0.3076  0.0596
   71loPI   C2B 1134  16.323   7.673   9.480  0.0261 -0.2691 -0.4384
   71loPI   C3B 1135  16.305   7.566   9.033 -0.1559 -0.3831  0.0208
   71loPI   C4B 1136  16.435   7.598   8.615  0.2852 -0.1207 -0.0384
   72loPI    C1 1137   1.314  12.505  11.230 -0.0326 -0.1585  0.1837
   72loPI    C2 1138   1.115  12.253  11.468 -0.0247 -0.0465  0.3101
   72loPI    C3 1139   1.276  12.586  11.620  0.0551 -0.0177  0.1637
   72loPI   PO4 1140   1.189  12.592  11.050 -0.1416  0.0008  0.2720
   72loPI   GL1 1141   1.304  12.732  10.608  0.0026 -0.0107  0.0536
   72loPI   GL2 1142   1.279  13.019  10.425  0.0594 -0.5288 -0.1664
   72loPI   C1A 1143   1.312  12.551  10.279  0.0172  0.1504 -0.2690
   72loPI   C2A 1144   1.318  12.510   9.850 -0.0206  0.1985  0.1062
   72loPI   C3A 1145   1.257  12.521   9.372 -0.1263 -0.0230 -0.1766
   72loPI   C4A 1146   1.291  12.660   8.918 -0.2276  0.0250 -0.0157
   72loPI   C5A 1147   1.500  12.887   8.759 -0.1049 -0.0275 -0.1944
   72loPI   C6A 1148   1.912  13.047   8.879  0.1808  0.0627  0.2534
   72loPI   C1B 1149   1.126  12.960  10.105  0.0308  0.0973  0.0672
   72loPI   C2B 1150   1.189  12.995   9.699 -0.2151  0.0313  0.0303
   72loPI   C3B 1151   1.174  13.013   9.231 -0.1035  0.1051  0.0684
   72loPI   C4B 1152   1.010  13.072   8.815  0.0957  0.3000  0.1596
   73loPI    C1 1153   9.757  11.699  10.791  0.0192 -0.1445  0.0798
   73loPI    C2 1154   9.940  11.852  11.113  0.0720  0.0433 -0.0382
   73loPI    C3 1155  10.116  11.561  10.903  0.0496 -0.0608  0.0865
   73loPI   PO4 1156   9.741  11.898  10.675 -0.0280 -0.0487  0.3095
   73loPI   GL1 1157   9.639  11.850  10.296 -0.4338  0.1148  0.0480
   73loPI   GL2 1158   9.296  11.866  10.337 -0.2484  0.1786 -0.1127
   73loPI   C1A 1159   9.742  11.825   9.918 -0.1323  0.0643 -0.0453
   73loPI   C2A 1160   9.897  11.583   9.708  0.0018 -0.1412 -0.2617
   73loPI   C3A 1161   9.974  11.283   9.402 -0.1015 -0.0459 -0.1656
   73loPI   C4A 1162  10.033  11.206   8.910  0.1778 -0.0366 -0.1522
   73loPI   C5A 1163  10.231  11.222   8.609  0.1382  0.1017 -0.1364
   73loPI   C6A 1164  10.652  11.425   8.561 -0.0343 -0.1429 -0.0511
   73loPI   C1B 1165   9.271  11.867   9.834  0.0797  0.2671  0.0507
   73loPI   C2B 1166   9.335  11.843   9.478  0.0118  0.0850 -0.0520
   73loPI   C3B 1167   9.370  11.801   9.027  0.0975 -0.1332 -0.1390
   73loPI   C4B 1168   9.348  11.895   8.656  0.2445  0.1195 -0.1460
   74loPI    C1 1169  12.298  10.684  11.363  0.0021  0.1463  0.1066
   74loPI    C2 1170  12.422  10.590  11.732  0.1042 -0.0135  0.0325
   74loPI    C3 1171  12.045  10.512  11.621  0.0319  0.1653  0.1486
   74loPI   PO4 1172  12.592  10.756  11.171  0.0959 -0.3230  0.1500
   74loPI   GL1 1173  12.952  10.756  10.892 -0.1799 -0.1564 -0.0866
   74loPI   GL2 1174  12.836  10.482  10.758 -0.0550 -0.2236  0.0895
   74loPI   C1A 1175  13.173  11.002  10.672  0.4422  0.1535 -0.0198
   74loPI   C2A 1176  13.255  11.059  10.274 -0.0160  0.2507 -0.2529
   74loPI   C3A 1177  13.229  11.061   9.872 -0.1921 -0.1754  0.3474
   74loPI   C4A 1178  13.255  11.066   9.448 -0.5011 -0.1581 -0.1056
   74loPI   C5A 1179  13.332  11.052   9.022 -0.2708  0.1539  0.2613
   74loPI   C6A 1180  13.572  11.071   8.632 -0.2086 -0.0276 -0.3255
   74loPI   C1B 1181  12.875  10.705  10.320  0.0449  0.4120 -0.0353
   74loPI   C2B 1182  12.861  10.703   9.903  0.2328  0.1561  0.2692
   74loPI   C3B 1183  12.793  10.763   9.474 -0.0268 -0.2493  0.0717
   74loPI   C4B 1184  12.918  10.800   9.103 -0.0117  0.1981  0.2362
   75loPI    C1 1185   8.008   1.425  10.982 -0.1398  0.0221 -0.2766
   75loPI    C2 1186   7.646   1.258  10.948 -0.0879 -0.2069  0.2110
   75loPI    C3 1187   7.819   1.291  11.308  0.2338  0.2115  0.0276
   75loPI   PO4 1188   8.123   1.385  10.851 -0.2234  0.0550  0.0930
   75loPI   GL1 1189   8.210   1.556  10.379 -0.0110  0.2105 -0.0108
   75loPI   GL2 1190   8.197   1.830  10.198 -0.4639 -0.0067 -0.0531
   75loPI   C1A 1191   7.939   1.353   9.894  0.1989 -0.0033 -0.3193
   75loPI   C2A 1192   7.912   1.419   9.437  0.0471 -0.1847  0.1017
   75loPI   C3A 1193   7.912   1.539   9.029  0.2251  0.0532 -0.2164
   75loPI   C4A 1194   8.018   1.579   8.611  0.1949  0.2487  0.4358
   75loPI   C5A 1195   8.102   1.204   8.302  0.0862 -0.0020  0.1163
   75loPI   C6A 1196   8.176   0.818   8.061 -0.0405 -0.3084 -0.0865
   75loPI   C1B 1197   8.457   1.616   9.817  0.0654 -0.1773 -0.3852
   75loPI   C2B 1198   8.738   1.582   9.434  0.1002 -0.2011 -0.3398
   75loPI   C3B 1199   8.934   1.777   8.985 -0.1133  0.4594 -0.2554
   75loPI   C4B 1200   9.024   1.699   8.497 -0.1456 -0.3092 -0.1542
   76loPI    C1 1201  16.376  13.246  11.768 -0.0455 -0.1204  0.0098
   76loPI    C2 1202  16.402  12.848  11.747 -0.0411 -0.1234  0.0716
   76loPI    C3 1203  16.096  13.018  11.940  0.0937 -0.1004  0.2671
   76loPI   PO4 1204  16.705  13.245  11.517  0.0322 -0.1603  0.0372
   76loPI   GL1 1205  16.718  13.115  11.064  0.2051 -0.1286  0.2185
   76loPI   GL2 1206  16.730  13.421  10.816  0.0204 -0.1506 -0.2028
   76loPI   C1A 1207  16.454  13.059  10.662 -0.1804 -0.4681  0.2974
   76loPI   C2A 1208  16.407  12.936  10.307  0.0160 -0.1675 -0.3050
   76loPI   C3A 1209  16.471  12.799   9.866  0.1000  0.0845 -0.0668
   76loPI   C4A 1210  16.572  12.728   9.403  0.1417 -0.1384 -0.2851
   76loPI   C5A 1211  16.672  12.625   8.941 -0.1105 -0.0066 -0.0468
   76loPI   C6A 1212  16.784  12.758   8.555 -0.0542 -0.0997 -0.2299
   76loPI   C1B 1213  16.881  13.450  10.393 -0.4124 -0.3759 -0.0254
   76loPI   C2B 1214  16.777  13.494  10.027 -0.2057  0.0253 -0.1514
   76loPI   C3B 1215  17.025  13.610   9.638  0.1045  0.3522 -0.1353
   76loPI   C4B 1216  17.051  13.584   9.282 -0.2787  0.1643  0.2737
   77loPI    C1 1217   6.045   5.024  11.494 -0.2660  0.2389  0.0175
   77loPI    C2 1218   5.770   4.838  11.718  0.0311 -0.0303  0.1660
   77loPI    C3 1219   5.971   5.150  11.867 -0.0066 -0.0002  0.1538
   77loPI   PO4 1220   5.834   4.963  11.216 -0.0140 -0.0592 -0.0257
   77loPI   GL1 1221   5.917   5.002  10.755  0.1572 -0.3194  0.0478
   77loPI   GL2 1222   6.227   4.861  10.564 -0.0162 -0.1400  0.0931
   77loPI   C1A 1223   5.798   5.278  10.418  0.1197 -0.1181  0.0877
   77loPI   C2A 1224   5.800   5.330   9.908 -0.0766  0.0112  0.3029
   77loPI   C3A 1225   5.755   5.421   9.554 -0.0847  0.1976 -0.0322
   77loPI   C4A 1226   5.833   5.466   9.143  0.3718 -0.2733  0.1654
   77loPI   C5A 1227   5.958   5.486   8.637  0.1954  0.2407 -0.0889
   77loPI   C6A 1228   6.353   5.248   8.464  0.1068  0.1583  0.0748
   77loPI   C1B 1229   6.135   5.039  10.146 -0.2261  0.0557  0.1048
   77loPI   C2B 1230   6.285   5.122   9.728  0.0318 -0.0301 -0.1921
   77loPI   C3B 1231   6.177   5.179   9.454 -0.1099 -0.0885 -0.3353
   77loPI   C4B 1232   6.237   5.162   9.050 -0.0445  0.1833 -0.1114
   78loPI    C1 1233   2.358   0.286  10.855  0.0730 -0.1635  0.1756
   78loPI    C2 1234   2.088   0.535  11.013 -0.1162 -0.0330 -0.3330
   78loPI    C3 1235   2.477   0.630  11.022 -0.1534  0.1123 -0.2153
   78loPI   PO4 1236   2.321   0.241  10.645  0.1800 -0.1763  0.0109
   78loPI   GL1 1237   2.491   0.249  10.231 -0.0101  0.0050 -0.0050
   78loPI   GL2 1238   2.606  -0.056  10.332 -0.2248 -0.2264 -0.0031
   78loPI   C1A 1239   2.110   0.275   9.984 -0.1762 -0.2000 -0.3584
   78loPI   C2A 1240   2.304   0.289   9.616  0.1416 -0.0739 -0.0888
   78loPI   C3A 1241   2.378   0.488   9.234 -0.1403 -0.2090 -0.1095
   78loPI   C4A 1242   2.366   0.462   8.770 -0.0522 -0.0745 -0.0107
   78loPI   C5A 1243   2.603   0.680   8.408  0.0987 -0.0727  0.4361
   78loPI   C6A 1244   2.736   0.739   7.958 -0.0520 -0.1095 -0.1250
   78loPI   C1B 1245   2.351  -0.168   9.891 -0.0637  0.1088 -0.0714
   78loPI   C2B 1246   2.361  -0.272   9.445 -0.0627  0.1298 -0.0665
   78loPI   C3B 1247   2.669  -0.450   9.100  0.0167  0.0194  0.0002
   78loPI   C4B 1248   2.846  -0.827   8.934  0.2626 -0.1237 -0.3216
   79loPI    C1 1249   0.746   5.529  10.722 -0.1188  0.1145  0.2150
   79loPI    C2 1250   0.738   5.134  10.783  0.1137  0.0586 -0.0921
   79loPI    C3 1251   1.084   5.332  10.804  0.0459  0.1949 -0.2431
   79loPI   PO4 1252   0.584   5.559  10.498  0.1541  0.0519 -0.1119
   79loPI   GL1 1253   0.328   5.464  10.112 -0.0031 -0.0314  0.0858
   79loPI   GL2 1254   0.035   5.364  10.061 -0.1876 -0.1999  0.2260
   79loPI   C1A 1255   0.379   5.327   9.696 -0.1877 -0.1712 -0.0282
   79loPI   C2A 1256   0.282   5.165   9.289 -0.0174  0.1559  0.0066
   79loPI   C3A 1257   0.206   5.006   8.852  0.1099 -0.2695 -0.0877
   79loPI   C4A 1258  -0.056   4.857   8.740  0.2206 -0.1691  0.1385
   79loPI   C5A 1259  -0.384   4.628   8.413 -0.0471  0.0705  0.0492
   79loPI   C6A 1260  -0.743   4.551   8.217  0.2812  0.1475  0.1121
   79loPI   C1B 1261  -0.035   5.717   9.794 -0.0030  0.4518 -0.3986
   79loPI   C2B 1262  -0.058   5.980   9.437 -0.1994 -0.1897  0.1705
   79loPI   C3B 1263  -0.032   6.013   8.981  0.1299  0.0169 -0.0019
   79loPI   C4B 1264  -0.132   5.754   8.577 -0.1226 -0.0646 -0.0728
   80loPI    C1 1265   1.161  14.281  11.293 -0.1721 -0.0849  0.2295
   80loPI    C2 1266   1.409  14.012  11.455 -0.0812 -0.0203  0.1984
   80loPI    C3 1267   1.188  14.248  11.691  0.0659  0.0875  0.2292
   80loPI   PO4 1268   1.145  14.142  11.065  0.3820  0.2105 -0.1360
   80loPI   GL1 1269   1.275  14.271  10.748  0.0845  0.2295  0.0067
   80loPI   GL2 1270   1.026  14.432  10.553  0.1482 -0.0151 -0.0901
   80loPI   C1A 1271   1.422  13.985  10.433  0.1099  0.0260  0.2958
   80loPI   C2A 1272   1.434  13.826   9.982 -0.1517  0.2640  0.0446
   80loPI   C3A 1273   1.456  13.859   9.517  0.0330 -0.0413 -0.1182
   80loPI   C4A 1274   1.316  13.808   9.147  0.0019  0.1042  0.0415
   80loPI   C5A 1275   1.279  13.732   8.738  0.2044  0.0702  0.1139
   80loPI   C6A 1276   1.408  13.336   8.470  0.1203 -0.1046 -0.1003
   80loPI   C1B 1277   1.277  14.363  10.194 -0.1232 -0.2012 -0.0295
   80loPI   C2B 1278   1.433  14.298   9.822  0.3025  0.1977 -0.1453
   80loPI   C3B 1279   1.310  14.306   9.284  0.1070 -0.2438 -0.0860
   80loPI   C4B 1280   1.264  14.307   8.863  0.3944 -0.0190  0.1192
   81loPI    C1 1281  12.820   9.271  11.393 -0.1496  0.1739 -0.1501
   81loPI    C2 1282  13.057   9.550  11.552 -0.0953  0.0024  0.0743
   81loPI    C3 1283  12.747   9.409  11.761 -0.1046 -0.1264 -0.0258
   81loPI   PO4 1284  12.724   9.354  11.045 -0.0488  0.0400  0.0240
   81loPI   GL1 1285  12.668   9.718  10.818 -0.2041  0.2640  0.1320
   81loPI   GL2 1286  12.498   9.908  10.841 -0.2535 -0.0543  0.0569
   81loPI   C1A 1287  12.722   9.480  10.462 -0.3264 -0.2274  0.1339
   81loPI   C2A 1288  12.755   9.293  10.057  0.1422 -0.2467 -0.0151
   81loPI   C3A 1289  12.723   9.408   9.586  0.2545 -0.0358  0.0344
   81loPI   C4A 1290  12.717   9.514   9.168 -0.0479  0.1128 -0.1691
   81loPI   C5A 1291  12.755   9.283   8.799  0.0949 -0.1328 -0.0424
   81loPI   C6A 1292  12.982   9.330   8.476  0.2114  0.1718  0.0583
   81loPI   C1B 1293  12.472   9.880  10.321  0.2682  0.2444 -0.3113
   81loPI   C2B 1294  12.620   9.876   9.927 -0.1969  0.3117  0.1411
   81loPI   C3B 1295  12.610   9.911   9.483 -0.0159  0.0158  0.1068
   81loPI   C4B 1296  12.560  10.084   9.065 -0.0829  0.1334  0.0207
   82loPI    C1 1297   8.564   1.311  11.123  0.1435  0.0300 -0.0855
   82loPI    C2 1298   8.826   1.046  11.268  0.2444  0.2013  0.0493
   82loPI    C3 1299   8.809   1.415  11.422 -0.1703  0.1515  0.1345
   82loPI   PO4 1300   8.583   1.235  10.875  0.0942 -0.2339 -0.0152
   82loPI   GL1 1301   8.727   1.132  10.540 -0.2334  0.0499 -0.0551
   82loPI   GL2 1302   8.922   1.137  10.324  0.1650  0.2440  0.2879
   82loPI   C1A 1303   8.418   1.095  10.165  0.0078  0.3033  0.0191
   82loPI   C2A 1304   8.283   1.136   9.661 -0.1320 -0.2479 -0.0621
   82loPI   C3A 1305   8.356   1.213   9.252  0.1167  0.0953  0.0632
   82loPI   C4A 1306   8.404   1.246   8.805 -0.1088 -0.2073 -0.0029
   82loPI   C5A 1307   8.508   1.502   8.463  0.1900 -0.1168 -0.1842
   82loPI   C6A 1308   8.218   1.691   8.047  0.1335 -0.0873 -0.1121
   82loPI   C1B 1309   8.812   1.174   9.837 -0.2922 -0.1453  0.2396
   82loPI   C2B 1310   8.769   0.940   9.510  0.0152 -0.1123 -0.0523
   82loPI   C3B 1311   8.769   1.057   9.073  0.0443 -0.2875 -0.1285
   82loPI   C4B 1312   8.892   1.231   8.656  0.1990  0.1027 -0.0761
   83loPI    C1 1313   7.256  14.813  11.309  0.1422  0.1655  0.0243
   83loPI    C2 1314   7.413  15.155  11.446  0.1837  0.0743  0.2061
   83loPI    C3 1315   7.510  14.806  11.618  0.1731 -0.0337 -0.0043
   83loPI   PO4 1316   7.172  14.818  11.105  0.3108 -0.1448  0.1353
   83loPI   GL1 1317   7.223  14.874  10.675 -0.1664  0.0133 -0.0103
   83loPI   GL2 1318   7.019  14.613  10.591  0.0220 -0.1781 -0.1706
   83loPI   C1A 1319   7.297  15.035  10.296  0.1898 -0.0094  0.0359
   83loPI   C2A 1320   7.518  15.062   9.933  0.1285 -0.0280  0.2340
   83loPI   C3A 1321   7.435  15.001   9.515 -0.0703 -0.3308 -0.1950
   83loPI   C4A 1322   7.501  15.024   9.063  0.2385  0.1417  0.1036
   83loPI   C5A 1323   7.488  14.733   8.594  0.0085 -0.0018 -0.0055
   83loPI   C6A 1324   7.785  14.470   8.404  0.0715  0.2235 -0.3032
   83loPI   C1B 1325   6.968  14.707  10.084  0.0001  0.2419 -0.2500
   83loPI   C2B 1326   7.059  14.651   9.612  0.0800 -0.0715 -0.4286
   83loPI   C3B 1327   7.140  14.696   9.213  0.0978  0.1773  0.0249
   83loPI   C4B 1328   7.030  14.761   8.776 -0.1482 -0.0065  0.1312
   84loPI    C1 1329   4.660  16.729  11.247  0.0108 -0.0085  0.0982
   84loPI    C2 1330   4.361  16.610  11.010  0.1296 -0.0875 -0.0132
   84loPI    C3 1331   4.399  16.456  11.377  0.0112 -0.0487  0.0156
   84loPI   PO4 1332   4.855  16.673  11.024  0.1317  0.0269 -0.2008
   84loPI   GL1 1333   4.773  16.492  10.662  0.2061 -0.0605 -0.1061
   84loPI   GL2 1334   4.708  16.708  10.443 -0.2254  0.1592 -0.3112
   84loPI   C1A 1335   4.345  16.257  10.447  0.0055  0.0444  0.1588
   84loPI   C2A 1336   4.361  16.310  10.042  0.1965 -0.1460  0.1349
   84loPI   C3A 1337   4.529  16.603   9.761  0.1441 -0.0903  0.1645
   84loPI   C4A 1338   4.788  16.488   9.353  0.1469 -0.0336 -0.1372
   84loPI   C5A 1339   4.900  16.262   8.914  0.0820 -0.0917  0.0488
   84loPI   C6A 1340   5.118  16.172   8.493 -0.2571  0.2547  0.1454
   84loPI   C1B 1341   4.846  16.859  10.084 -0.2911 -0.0270 -0.1270
   84loPI   C2B 1342   4.842  17.059   9.764 -0.0318 -0.0288 -0.1959
   84loPI   C3B 1343   5.012  17.020   9.378  0.0093  0.0974 -0.0965
   84loPI   C4B 1344   5.147  16.929   8.944 -0.0549  0.1325 -0.0708
   85loPI    C1 1345  14.067   4.134  10.747 -0.1432 -0.1341 -0.0523
   85loPI    C2 1346  13.905   3.820  10.560 -0.1024 -0.0821 -0.1764
   85loPI    C3 1347  14.197   3.764  10.827 -0.1732 -0.1582 -0.1144
   85loPI   PO4 1348  13.995   4.315  10.538 -0.0796  0.2552 -0.2988
   85loPI   GL1 1349  13.872   4.107  10.173 -0.3641  0.0238  0.1354
   85loPI   GL2 1350  14.012   3.825   9.974 -0.0540  0.0989 -0.1268
   85loPI   C1A 1351  13.753   4.255   9.751  0.0270 -0.1032 -0.2291
   85loPI   C2A 1352  13.798   4.034   9.362  0.1385 -0.1609  0.0118
   85loPI   C3A 1353  13.819   3.907   8.949 -0.1186  0.0878  0.1407
   85loPI   C4A 1354  13.832   3.914   8.453  0.0600  0.0015 -0.1068
   85loPI   C5A 1355  13.792   4.179   8.230  0.0741  0.0408  0.0856
   85loPI   C6A 1356  14.006   4.309   7.995  0.1226 -0.1299  0.2450
   85loPI   C1B 1357  14.223   3.983   9.574  0.1723  0.0670 -0.0524
   85loPI   C2B 1358  14.307   3.997   9.157 -0.0641  0.0474 -0.0164
   85loPI   C3B 1359  14.305   3.946   8.737  0.4315  0.1383  0.0772
   85loPI   C4B 1360  14.316   3.966   8.293  0.0500  0.1923 -0.1699
   86loPI    C1 1361   3.659   8.430  10.944  0.0078 -0.1643 -0.1650
   86loPI    C2 1362   4.002   8.247  11.038 -0.0317 -0.0981  0.1187
   86loPI    C3 1363   3.653   8.067  11.111 -0.0657 -0.0033  0.1917
   86loPI   PO4 1364   3.596   8.444  10.657 -0.1388 -0.3161 -0.1763
   86loPI   GL1 1365   3.535   8.294  10.207 -0.2213  0.2281  0.0958
   86loPI   GL2 1366   3.252   8.216  10.043 -0.0344  0.2982  0.0453
   86loPI   C1A 1367   3.775   8.433   9.883 -0.0039 -0.0093 -0.0197
   86loPI   C2A 1368   3.870   8.459   9.511 -0.0628 -0.3417  0.0567
   86loPI   C3A 1369   3.914   8.554   9.025 -0.1343 -0.2198 -0.2395
   86loPI   C4A 1370   3.849   8.617   8.597 -0.1520 -0.3913  0.2352
   86loPI   C5A 1371   3.932   8.436   8.159 -0.1172 -0.3692 -0.0508
   86loPI   C6A 1372   4.260   8.416   7.875  0.1317  0.2762  0.2400
   86loPI   C1B 1373   3.299   8.280   9.650  0.2094  0.0810  0.0198
   86loPI   C2B 1374   3.443   8.378   9.205  0.0957  0.0648  0.0094
   86loPI   C3B 1375   3.430   8.366   8.816  0.0214  0.0326  0.2239
   86loPI   C4B 1376   3.437   8.373   8.384 -0.2481 -0.0498  0.1760
   87loPI    C1 1377   0.239   2.151  10.783 -0.0302 -0.0230  0.1531
   87loPI    C2 1378   0.105   1.996  11.127 -0.4034 -0.2796 -0.1004
   87loPI    C3 1379   0.257   1.757  10.845  0.2592 -0.0311  0.0295
   87loPI   PO4 1380   0.086   2.343  10.728 -0.2309  0.1857  0.1126
   87loPI   GL1 1381   0.004   2.280  10.265  0.1406  0.0416  0.0385
   87loPI   GL2 1382  -0.096   2.083  10.004 -0.1709  0.0816  0.0410
   87loPI   C1A 1383   0.285   2.409   9.865 -0.2443  0.2287  0.0138
   87loPI   C2A 1384   0.419   2.476   9.438  0.1375  0.1430  0.0745
   87loPI   C3A 1385   0.319   2.720   9.069 -0.2376  0.1250 -0.1198
   87loPI   C4A 1386   0.021   2.614   8.716 -0.1865  0.0509  0.1252
   87loPI   C5A 1387  -0.123   2.482   8.342 -0.1675 -0.1923  0.2790
   87loPI   C6A 1388  -0.513   2.540   8.047  0.0971  0.0807 -0.0016
   87loPI   C1B 1389  -0.077   2.274   9.565  0.0620  0.1171 -0.0890
   87loPI   C2B 1390  -0.191   2.283   9.142 -0.4782  0.3680  0.0304
   87loPI   C3B 1391  -0.428   2.313   8.827  0.1584  0.1082 -0.1661
   87loPI   C4B 1392  -0.690   2.254   8.431 -0.2750 -0.3615 -0.1456
   88loPI    C1 1393   8.167   8.497  11.363  0.1535 -0.2940  0.1081
   88loPI    C2 1394   8.453   8.624  11.114  0.0074  0.0782  0.1249
   88loPI    C3 1395   8.529   8.591  11.505 -0.0344  0.4009  0.1634
   88loPI   PO4 1396   7.961   8.526  11.185  0.3338  0.2910 -0.1062
   88loPI   GL1 1397   7.999   8.639  10.766  0.2767 -0.0508 -0.1477
   88loPI   GL2 1398   7.834   8.857  10.606 -0.2071 -0.4402  0.0749
   88loPI   C1A 1399   8.039   8.219  10.397 -0.3963  0.0951 -0.1690
   88loPI   C2A 1400   7.978   8.218   9.976  0.2211  0.1037 -0.0577
   88loPI   C3A 1401   7.959   8.232   9.588 -0.0935  0.1117 -0.1414
   88loPI   C4A 1402   7.953   8.308   9.116  0.1077 -0.0121  0.0950
   88loPI   C5A 1403   7.953   8.300   8.661 -0.1138  0.0540 -0.0129
   88loPI   C6A 1404   7.622   8.333   8.468 -0.2457  0.0312  0.0615
   88loPI   C1B 1405   8.040   8.730  10.255  0.2191 -0.0030 -0.0895
   88loPI   C2B 1406   7.919   8.679   9.813  0.0207 -0.4396  0.0192
   88loPI   C3B 1407   7.986   8.884   9.385  0.3506  0.0282  0.0682
   88loPI   C4B 1408   8.090   9.113   8.970  0.1786 -0.1289 -0.0462
   89loPI    C1 1409   8.438  16.549  11.064  0.1665 -0.1201  0.0574
   89loPI    C2 1410   8.200  16.480  11.378 -0.0850 -0.3309 -0.1744
   89loPI    C3 1411   8.504  16.738  11.410 -0.4133  0.0347  0.0947
   89loPI   PO4 1412   8.270  16.439  10.904  0.0346 -0.1701 -0.3099
   89loPI   GL1 1413   8.228  16.144  10.462 -0.0666 -0.1091 -0.0422
   89loPI   GL2 1414   8.038  16.316  10.545  0.0779  0.1332  0.0117
   89loPI   C1A 1415   8.186  16.117  10.024 -0.0926 -0.1171  0.2129
   89loPI   C2A 1416   8.191  16.119   9.558  0.0223  0.2822 -0.3023
   89loPI   C3A 1417   8.164  16.148   9.150 -0.0608  0.3403  0.0590
   89loPI   C4A 1418   8.258  16.153   8.696  0.0332 -0.0838  0.0353
   89loPI   C5A 1419   8.272  16.509   8.472 -0.1654 -0.1206 -0.1288
   89loPI   C6A 1420   8.736  16.779   8.427 -0.0589  0.0796 -0.1955
   89loPI   C1B 1421   7.782  16.337  10.213 -0.3752 -0.0163  0.0836
   89loPI   C2B 1422   7.710  16.279   9.880 -0.1133 -0.1173  0.1414
   89loPI   C3B 1423   7.729  16.333   9.456  0.1206 -0.0774  0.0329
   89loPI   C4B 1424   7.672  16.286   9.023  0.2026  0.1335 -0.2401
   90loPI    C1 1425  13.318  12.600  11.628 -0.1288  0.1679  0.0178
   90loPI    C2 1426  13.043  12.358  11.788  0.1556 -0.1867 -0.0151
   90loPI    C3 1427  13.393  12.412  11.973  0.0095  0.3956  0.1149
   90loPI   PO4 1428  13.236  12.552  11.374  0.2044 -0.1618  0.0784
   90loPI   GL1 1429  13.395  12.586  10.927  0.3653 -0.1074 -0.0280
   90loPI   GL2 1430  13.141  12.888  10.852 -0.2674  0.0526  0.0968
   90loPI   C1A 1431  13.357  12.768  10.418 -0.1126  0.3398  0.0524
   90loPI   C2A 1432  13.319  12.889   9.890 -0.1056  0.0087  0.0324
   90loPI   C3A 1433  13.412  12.942   9.441  0.2405  0.3522  0.0160
   90loPI   C4A 1434  13.424  12.869   8.982  0.1998  0.1400  0.2141
   90loPI   C5A 1435  13.116  12.992   8.602 -0.2609  0.1455 -0.0211
   90loPI   C6A 1436  12.811  12.883   8.420 -0.0761 -0.1996 -0.2090
   90loPI   C1B 1437  12.812  12.986  10.583 -0.2954  0.2027 -0.2449
   90loPI   C2B 1438  12.844  12.996  10.089  0.2731 -0.1487 -0.1817
   90loPI   C3B 1439  12.895  13.097   9.667  0.0481  0.1151  0.0392
   90loPI   C4B 1440  12.978  13.086   9.170  0.0195 -0.1417 -0.0966
   91loPI    C1 1441   5.090   1.561  10.844 -0.0743  0.0142 -0.0241
   91loPI    C2 1442   4.756   1.740  10.973 -0.0263  0.0258  0.0857
   91loPI    C3 1443   4.734   1.444  10.704 -0.1345 -0.0580  0.1856
   91loPI   PO4 1444   5.239   1.737  10.741  0.2104 -0.1471 -0.2512
   91loPI   GL1 1445   5.316   1.790  10.354  0.2899  0.1065  0.1042
   91loPI   GL2 1446   5.613   1.785  10.310  0.0361 -0.0694 -0.0256
   91loPI   C1A 1447   5.354   1.826   9.872  0.0377  0.0133  0.2446
   91loPI   C2A 1448   5.340   1.802   9.430 -0.0054 -0.5072  0.0350
   91loPI   C3A 1449   5.325   1.838   8.994 -0.4074 -0.0291 -0.0485
   91loPI   C4A 1450   5.384   1.830   8.607  0.0257 -0.3573  0.0340
   91loPI   C5A 1451   5.400   1.699   8.204 -0.0176  0.0449  0.2205
   91loPI   C6A 1452   5.334   1.538   7.805  0.0587 -0.2303 -0.1193
   91loPI   C1B 1453   5.800   1.994   9.951 -0.1303  0.2411 -0.0451
   91loPI   C2B 1454   5.786   1.997   9.444  0.1652 -0.0244  0.3677
   91loPI   C3B 1455   5.809   2.030   9.001 -0.1003 -0.0712  0.4088
   91loPI   C4B 1456   5.815   2.104   8.478 -0.2447  0.0343 -0.2052
   92loPI    C1 1457   5.225   5.652  11.364  0.0242  0.0042 -0.0825
   92loPI    C2 1458   5.127   5.912  11.652  0.2069 -0.1006  0.0759
   92loPI    C3 1459   4.887   5.603  11.571 -0.0746  0.1838 -0.1986
   92loPI   PO4 1460   5.220   5.801  11.031  0.0655  0.0972  0.1639
   92loPI   GL1 1461   5.161   5.702  10.658  0.3770  0.0349  0.0152
   92loPI   GL2 1462   5.499   5.594  10.641 -0.1977 -0.1427  0.0085
   92loPI   C1A 1463   4.918   5.899  10.348  0.1813  0.3227  0.0288
   92loPI   C2A 1464   5.019   5.937   9.955 -0.2213 -0.1471  0.0033
   92loPI   C3A 1465   5.057   6.036   9.530  0.1882 -0.2180 -0.4444
   92loPI   C4A 1466   5.123   6.132   9.161  0.1023 -0.0648 -0.0163
   92loPI   C5A 1467   5.057   6.025   8.793  0.0224  0.0735 -0.0573
   92loPI   C6A 1468   5.037   6.066   8.459  0.1180 -0.0251  0.0541
   92loPI   C1B 1469   5.467   5.634  10.179  0.0643 -0.0162  0.0089
   92loPI   C2B 1470   5.377   5.634   9.751  0.0262  0.2389 -0.3287
   92loPI   C3B 1471   5.397   5.739   9.358 -0.2716  0.2292 -0.0997
   92loPI   C4B 1472   5.499   5.786   8.964  0.3337  0.1264 -0.2556
   93loPI    C1 1473   0.473   3.371  10.487 -0.3091  0.1139 -0.1766
   93loPI    C2 1474   0.613   3.349  10.861  0.2749  0.0702 -0.3870
   93loPI    C3 1475   0.336   3.622  10.766 -0.2129 -0.2101  0.1701
   93loPI   PO4 1476   0.538   3.080  10.387  0.2905 -0.0664  0.3166
   93loPI   GL1 1477   0.452   2.858   9.986  0.1744 -0.1947  0.0355
   93loPI   GL2 1478   0.785   2.681  10.038  0.1346 -0.1866  0.2426
   93loPI   C1A 1479   0.616   2.888   9.585  0.4693  0.3262 -0.1473
   93loPI   C2A 1480   0.813   2.892   9.117  0.1057  0.4242  0.2434
   93loPI   C3A 1481   0.673   2.639   8.718 -0.2567 -0.1736 -0.2285
   93loPI   C4A 1482   0.426   2.436   8.355  0.0382  0.3772 -0.0293
   93loPI   C5A 1483   0.190   2.289   7.986  0.0830 -0.3745 -0.1151
   93loPI   C6A 1484   0.309   2.334   7.552 -0.1515  0.1107 -0.1130
   93loPI   C1B 1485   0.863   2.465   9.653 -0.1051 -0.0190  0.2450
   93loPI   C2B 1486   0.804   2.283   9.172  0.0352  0.0780  0.1854
   93loPI   C3B 1487   0.806   2.164   8.730 -0.1276  0.1433 -0.1608
   93loPI   C4B 1488   0.691   1.967   8.260 -0.0783 -0.0042  0.0672
   94loPI    C1 1489  10.710   0.216  10.752 -0.0473 -0.2242  0.0026
   94loPI    C2 1490  10.470   0.457  10.962  0.0738  0.0371 -0.1550
   94loPI    C3 1491  10.829   0.357  11.107 -0.0351 -0.1694 -0.0232
   94loPI   PO4 1492  10.694   0.337  10.525 -0.3740  0.4591 -0.1479
   94loPI   GL1 1493  10.446   0.418  10.254 -0.0975  0.0088 -0.0488
   94loPI   GL2 1494  10.167   0.471  10.382  0.0582  0.0770 -0.0160
   94loPI   C1A 1495  10.588   0.288   9.809  0.0671  0.0984  0.1072
   94loPI   C2A 1496  10.592   0.219   9.345 -0.2126  0.2952 -0.3498
   94loPI   C3A 1497  10.573   0.215   8.821 -0.1499 -0.0471 -0.1903
   94loPI   C4A 1498  10.413   0.396   8.505 -0.1376  0.0074 -0.2283
   94loPI   C5A 1499  10.529   0.509   8.075  0.0411 -0.1014 -0.1831
   94loPI   C6A 1500  10.880   0.294   7.830  0.0434 -0.1169  0.1829
   94loPI   C1B 1501   9.844   0.183  10.264  0.0349  0.0778 -0.0060
   94loPI   C2B 1502   9.757   0.176   9.808  0.2737  0.1770 -0.0313
   94loPI   C3B 1503   9.798   0.113   9.328 -0.1737 -0.0580 -0.0580
   94loPI   C4B 1504   9.684   0.036   8.936 -0.1994 -0.1734  0.0721
   95loPI    C1 1505  11.564   3.411  10.971  0.0573  0.1270  0.0606
   95loPI    C2 1506  11.206   3.364  11.143  0.0233 -0.0967 -0.0674
   95loPI    C3 1507  11.435   3.678  11.239 -0.1649 -0.0048  0.0868
   95loPI   PO4 1508  11.540   3.225  10.801 -0.1801  0.1778  0.0199
   95loPI   GL1 1509  11.666   3.254  10.412 -0.0673 -0.2323  0.1283
   95loPI   GL2 1510  11.777   3.474  10.144  0.1009 -0.0061 -0.0111
   95loPI   C1A 1511  11.396   3.099  10.081 -0.0071 -0.3958 -0.2557
   95loPI   C2A 1512  11.397   2.907   9.700  0.1351  0.0329  0.1468
   95loPI   C3A 1513  11.368   2.808   9.184  0.1186  0.1153  0.0070
   95loPI   C4A 1514  11.305   2.739   8.700 -0.1150  0.0078 -0.2110
   95loPI   C5A 1515  11.086   2.849   8.322 -0.0746  0.0690 -0.0999
   95loPI   C6A 1516  10.891   2.834   7.931  0.0915 -0.0817 -0.2439
   95loPI   C1B 1517  11.753   3.519   9.664  0.1493  0.0694 -0.0515
   95loPI   C2B 1518  11.639   3.198   9.333 -0.1234  0.2322 -0.0961
   95loPI   C3B 1519  11.865   3.128   8.996  0.0492  0.1161 -0.1219
   95loPI   C4B 1520  11.658   3.129   8.595  0.1642  0.1535 -0.4724
   96loPI    C1 1521   3.984   9.848  10.990 -0.2077  0.1499  0.0639
   96loPI    C2 1522   3.611   9.874  10.847 -0.2000 -0.0825 -0.0041
   96loPI    C3 1523   3.753   9.522  10.973  0.0209 -0.0097 -0.0443
   96loPI   PO4 1524   4.150   9.938  10.763  0.2045  0.0724 -0.1936
   96loPI   GL1 1525   4.189   9.803  10.358  0.1771 -0.0929 -0.0121
   96loPI   GL2 1526   4.440  10.024  10.367 -0.2758 -0.1032 -0.0884
   96loPI   C1A 1527   3.993   9.585  10.037 -0.3581 -0.0650  0.4778
   96loPI   C2A 1528   3.962   9.385   9.695 -0.0169 -0.0403 -0.0925
   96loPI   C3A 1529   4.028   9.570   9.269 -0.1225 -0.0516 -0.2933
   96loPI   C4A 1530   4.072   9.569   8.774 -0.2562  0.0548 -0.1262
   96loPI   C5A 1531   4.351   9.586   8.430 -0.0731 -0.0984  0.2353
   96loPI   C6A 1532   4.305   9.710   7.987 -0.0709  0.1692  0.0727
   96loPI   C1B 1533   4.663  10.083  10.148  0.0644  0.1040 -0.0157
   96loPI   C2B 1534   4.663  10.147   9.664 -0.0509 -0.2366  0.0605
   96loPI   C3B 1535   4.621  10.268   9.156 -0.0990 -0.1690  0.0289
   96loPI   C4B 1536   4.377  10.385   8.810  0.1514 -0.1774 -0.0141
   97loPI    C1 1537   9.628   3.875  11.191 -0.0729 -0.2032  0.2227
   97loPI    C2 1538   9.555   4.164  11.458  0.0134  0.1306 -0.1059
   97loPI    C3 1539   9.915   4.137  11.286  0.0325 -0.2290 -0.0166
   97loPI   PO4 1540   9.517   3.896  10.918  0.0802  0.0050  0.0894
   97loPI   GL1 1541   9.173   4.055  10.606 -0.1482  0.0061  0.2757
   97loPI   GL2 1542   8.850   4.133  10.511  0.1173  0.1508  0.1194
   97loPI   C1A 1543   9.280   3.873  10.200  0.2520  0.1219 -0.3436
   97loPI   C2A 1544   9.188   3.866   9.795  0.2074  0.0824  0.0386
   97loPI   C3A 1545   9.218   3.911   9.365 -0.1492 -0.0586 -0.2467
   97loPI   C4A 1546   9.170   3.896   8.928  0.0815 -0.0920 -0.0737
   97loPI   C5A 1547   9.001   4.215   8.612  0.1923  0.0036 -0.3264
   97loPI   C6A 1548   9.299   4.448   8.318  0.0306  0.2015 -0.0803
   97loPI   C1B 1549   8.873   4.173  10.089  0.1137  0.2951 -0.1949
   97loPI   C2B 1550   8.738   4.204   9.669  0.0036  0.0255 -0.4473
   97loPI   C3B 1551   8.785   4.178   9.300 -0.3384  0.0452  0.2156
   97loPI   C4B 1552   8.771   4.433   8.997  0.2568 -0.2151  0.0957
   98loPI    C1 1553  10.922   5.315  10.831 -0.0485  0.2603 -0.0442
   98loPI    C2 1554  10.697   5.139  11.112 -0.1898  0.1512 -0.2240
   98loPI    C3 1555  10.705   5.538  11.083 -0.1740  0.1629 -0.0653
   98loPI   PO4 1556  10.848   5.242  10.613 -0.1012  0.2127 -0.0955
   98loPI   GL1 1557  11.001   5.171  10.207 -0.1714  0.3714  0.1395
   98loPI   GL2 1558  10.871   4.879  10.241  0.0698 -0.1369  0.1708
   98loPI   C1A 1559  11.117   5.443   9.762  0.1389  0.1309  0.0172
   98loPI   C2A 1560  11.308   5.440   9.393 -0.0221  0.0238 -0.0421
   98loPI   C3A 1561  11.130   5.591   8.984  0.1238  0.1412 -0.1359
   98loPI   C4A 1562  10.724   5.623   8.811  0.3382 -0.0976  0.0961
   98loPI   C5A 1563  10.354   5.777   8.598 -0.2441  0.1633 -0.1355
   98loPI   C6A 1564   9.929   5.793   8.585  0.1037  0.0950 -0.2143
   98loPI   C1B 1565  10.817   4.998   9.822 -0.3462  0.2226  0.0892
   98loPI   C2B 1566  11.051   4.931   9.390  0.0503  0.3518 -0.1145
   98loPI   C3B 1567  11.040   5.139   9.001 -0.0793  0.1414 -0.1452
   98loPI   C4B 1568  11.163   5.159   8.541  0.0419 -0.1030 -0.2313
   99loPI    C1 1569  16.626   2.001  10.446  0.2354  0.2444  0.0367
   99loPI    C2 1570  16.596   2.198  10.793 -0.0349 -0.1641  0.2541
   99loPI    C3 1571  16.435   1.834  10.755  0.0240 -0.1423 -0.2927
   99loPI   PO4 1572  16.843   1.997  10.358  0.3645 -0.0162 -0.2401
   99loPI   GL1 1573  16.992   1.820  10.036  0.0707  0.0067 -0.3811
   99loPI   GL2 1574  16.923   1.517   9.981 -0.1296 -0.1079  0.0758
   99loPI   C1A 1575  16.938   1.857   9.637 -0.3480 -0.0296 -0.2772
   99loPI   C2A 1576  16.991   1.688   9.254  0.2566 -0.6019 -0.0130
   99loPI   C3A 1577  17.046   1.505   8.900 -0.1100  0.3247 -0.0341
   99loPI   C4A 1578  17.338   1.224   8.459 -0.1861 -0.0782  0.2209
   99loPI   C5A 1579  17.664   1.279   8.128 -0.0871 -0.0813  0.1868
   99loPI   C6A 1580  17.938   1.535   7.824 -0.1114  0.1682  0.1705
   99loPI   C1B 1581  17.009   1.253   9.702  0.2425  0.0094  0.0614
   99loPI   C2B 1582  16.984   1.202   9.334 -0.0453 -0.0516 -0.1185
   99loPI   C3B 1583  17.020   1.015   8.852 -0.2595 -0.2653  0.2626
   99loPI   C4B 1584  17.324   0.755   8.648  0.0164 -0.1714 -0.1666
  100loPI    C1 1585   7.637   1.899  10.824 -0.0278  0.0094 -0.0637
  100loPI    C2 1586   7.386   1.693  11.059 -0.1998  0.0489 -0.2113
  100loPI    C3 1587   7.737   1.819  11.203 -0.2280 -0.0795 -0.0283
  100loPI   PO4 1588   7.761   1.716  10.577  0.1599  0.2609 -0.2813
  100loPI   GL1 1589   7.729   1.689  10.118 -0.2136 -0.2548 -0.1527
  100loPI   GL2 1590   7.453   1.601  10.176 -0.1613  0.1057 -0.1148
  100loPI   C1A 1591   7.921   1.853   9.732  0.1452  0.1319 -0.0329
  100loPI   C2A 1592   8.148   1.862   9.366 -0.1105 -0.0161 -0.1024
  100loPI   C3A 1593   8.073   2.063   8.872 -0.2177 -0.3069 -0.1088
  100loPI   C4A 1594   8.134   2.037   8.389  0.2304 -0.1463 -0.1557
  100loPI   C5A 1595   7.877   2.067   8.036  0.3970  0.3864  0.0431
  100loPI   C6A 1596   7.817   1.946   7.605  0.1182 -0.1624  0.0230
  100loPI   C1B 1597   7.477   1.651   9.717 -0.0409 -0.1202  0.2121
  100loPI   C2B 1598   7.552   1.814   9.319 -0.1198  0.0448 -0.1065
  100loPI   C3B 1599   7.524   1.865   8.899  0.0960 -0.0190  0.0420
  100loPI   C4B 1600   7.556   1.945   8.433  0.0017  0.1303  0.0215
  101loPI    C1 1601  16.268   6.684  11.039 -0.0228 -0.2648 -0.1155
  101loPI    C2 1602  16.405   6.430  11.316  0.0966 -0.0939 -0.0164
  101loPI    C3 1603  16.569   6.793  11.278 -0.0370 -0.0508 -0.1934
  101loPI   PO4 1604  16.326   6.539  10.822  0.0673  0.2709 -0.0682
  101loPI   GL1 1605  16.396   6.754  10.388  0.0198  0.0681  0.1770
  101loPI   GL2 1606  16.482   6.577  10.221 -0.0001  0.0302  0.3037
  101loPI   C1A 1607  16.330   7.112  10.097 -0.1105 -0.0519  0.0076
  101loPI   C2A 1608  16.439   7.249   9.668 -0.1817 -0.3666  0.1059
  101loPI   C3A 1609  16.434   7.159   9.186  0.3669 -0.1691  0.1716
  101loPI   C4A 1610  16.452   7.092   8.765 -0.0303  0.1157 -0.0294
  101loPI   C5A 1611  16.193   6.958   8.406  0.0621  0.0219 -0.1963
  101loPI   C6A 1612  15.906   6.826   7.970 -0.0717  0.0059  0.0132
  101loPI   C1B 1613  16.575   6.569   9.805  0.0913 -0.0068  0.2971
  101loPI   C2B 1614  16.555   6.752   9.472 -0.2251 -0.0581 -0.1520
  101loPI   C3B 1615  16.568   6.701   9.006 -0.0884  0.1314  0.3022
  101loPI   C4B 1616  16.688   6.560   8.581 -0.0912 -0.1551  0.2052
  102loPI    C1 1617   1.259   1.425  10.910 -0.0058  0.1623  0.0217
  102loPI    C2 1618   1.039   1.435  11.244 -0.0736 -0.0101 -0.0164
  102loPI    C3 1619   1.421   1.553  11.252  0.0147 -0.2985  0.1921
  102loPI   PO4 1620   1.222   1.324  10.719  0.1955 -0.0623  0.2142
  102loPI   GL1 1621   1.326   1.116  10.305  0.0062  0.0328 -0.2242
  102loPI   GL2 1622   1.223   1.382  10.143 -0.1526 -0.4659  0.0157
  102loPI   C1A 1623   1.441   0.924   9.954  0.3188  0.2167  0.0704
  102loPI   C2A 1624   1.651   0.870   9.561  0.1256 -0.4362 -0.0069
  102loPI   C3A 1625   2.001   0.885   9.315 -0.0511  0.0156  0.2497
  102loPI   C4A 1626   2.099   0.901   8.958 -0.0797 -0.1320  0.2747
  102loPI   C5A 1627   2.102   1.193   8.694 -0.0824 -0.1695  0.4782
  102loPI   C6A 1628   1.849   1.433   8.464 -0.1171  0.1905  0.0994
  102loPI   C1B 1629   1.417   1.381   9.742  0.0232 -0.1454 -0.0586
  102loPI   C2B 1630   1.546   1.420   9.340 -0.0679  0.0372  0.1494
  102loPI   C3B 1631   1.559   1.504   8.907 -0.0798 -0.0382 -0.1057
  102loPI   C4B 1632   1.410   1.518   8.556 -0.3138 -0.1764 -0.1163
  103loPI    C1 1633   8.492  13.347  11.217 -0.3288 -0.3181  0.0870
  103loPI    C2 1634   8.559  12.963  11.303  0.3012 -0.1754  0.2857
  103loPI    C3 1635   8.504  13.227  11.598 -0.2353 -0.1208  0.1474
  103loPI   PO4 1636   8.711  13.460  11.125  0.1810 -0.1415 -0.1031
  103loPI   GL1 1637   8.957  13.492  10.852  0.3141  0.0546  0.4361
  103loPI   GL2 1638   9.305  13.372  10.856 -0.0096 -0.2003  0.0881
  103loPI   C1A 1639   9.009  13.486  10.404 -0.1712 -0.2598  0.0283
  103loPI   C2A 1640   9.075  13.461   9.903 -0.1330 -0.2452 -0.0382
  103loPI   C3A 1641   9.066  13.424   9.487  0.4872 -0.1040  0.1893
  103loPI   C4A 1642   9.051  13.239   9.032  0.1668 -0.0727  0.0678
  103loPI   C5A 1643   8.749  13.355   8.706 -0.0803 -0.1238 -0.0142
  103loPI   C6A 1644   8.742  13.360   8.265  0.0162  0.0895  0.0839
  103loPI   C1B 1645   9.541  13.244  10.498  0.0156 -0.1930 -0.1081
  103loPI   C2B 1646   9.497  13.281  10.045 -0.0721 -0.0626  0.1188
  103loPI   C3B 1647   9.533  13.235   9.611  0.2526 -0.0517 -0.1543
  103loPI   C4B 1648   9.619  13.215   9.154 -0.0809 -0.0406 -0.0503
  104loPI    C1 1649   2.537  12.432  11.074  0.0670 -0.1168  0.0464
  104loPI    C2 1650   2.213  12.199  11.048 -0.0185  0.0050  0.0088
  104loPI    C3 1651   2.470  12.151  11.351 -0.2010  0.0711  0.1763
  104loPI   PO4 1652   2.470  12.669  11.008 -0.0357 -0.1262 -0.0279
  104loPI   GL1 1653   2.711  12.929  10.685 -0.1537  0.2783  0.0410
  104loPI   GL2 1654   2.801  12.718  10.601  0.1173 -0.0206 -0.1065
  104loPI   C1A 1655   2.507  12.983  10.238 -0.0386  0.1423  0.1585
  104loPI   C2A 1656   2.547  12.887   9.842  0.0334 -0.2898 -0.1100
  104loPI   C3A 1657   2.516  12.936   9.517 -0.1981 -0.0959 -0.1174
  104loPI   C4A 1658   2.489  13.064   9.100 -0.0159  0.0579  0.1723
  104loPI   C5A 1659   2.434  12.891   8.743 -0.3480  0.0056 -0.2072
  104loPI   C6A 1660   2.840  12.718   8.443 -0.0664 -0.2458  0.0672
  104loPI   C1B 1661   3.022  12.736  10.240 -0.0343 -0.0539 -0.2391
  104loPI   C2B 1662   3.056  12.764   9.744 -0.3380 -0.3072  0.4828
  104loPI   C3B 1663   2.921  12.853   9.297  0.3933 -0.1904 -0.1377
  104loPI   C4B 1664   2.935  13.037   8.874 -0.3252 -0.2411  0.1832
  105loPI    C1 1665  10.602   1.283  11.103  0.0704 -0.0813  0.1004
  105loPI    C2 1666  10.723   0.905  11.150 -0.0319 -0.1222  0.0391
  105loPI    C3 1667  10.922   1.203  11.328  0.1333 -0.1919 -0.0270
  105loPI   PO4 1668  10.531   1.280  10.824 -0.1742  0.1281  0.1516
  105loPI   GL1 1669  10.639   1.280  10.408 -0.2259  0.1461 -0.1168
  105loPI   GL2 1670  10.474   1.005  10.191  0.0416 -0.0185 -0.3600
  105loPI   C1A 1671  10.875   1.240   9.978 -0.0097 -0.1300 -0.2883
  105loPI   C2A 1672  11.014   1.528   9.669  0.0505  0.2456 -0.1931
  105loPI   C3A 1673  11.156   1.565   9.345  0.0163 -0.0221  0.0820
  105loPI   C4A 1674  11.216   1.343   8.947 -0.2399 -0.0118 -0.1896
  105loPI   C5A 1675  11.446   1.070   8.782 -0.0340 -0.1961 -0.0374
  105loPI   C6A 1676  11.771   0.971   8.578 -0.2512 -0.0607  0.0076
  105loPI   C1B 1677  10.250   0.735   9.908 -0.1343  0.0798  0.1824
  105loPI   C2B 1678  10.155   0.440   9.784 -0.0328  0.0989 -0.0155
  105loPI   C3B 1679  10.171   0.395   9.310  0.0963 -0.2227 -0.3325
  105loPI   C4B 1680  10.054   0.353   8.884  0.2141  0.0503  0.1883
  106loPI    C1 1681  10.570  14.045  11.253  0.0322 -0.0501 -0.1120
  106loPI    C2 1682  10.672  13.890  11.607  0.0052  0.0158 -0.0753
  106loPI    C3 1683  10.735  14.277  11.533 -0.2820  0.0749 -0.0258
  106loPI   PO4 1684  10.660  13.962  11.007 -0.1126  0.1219  0.0578
  106loPI   GL1 1685  10.469  13.941  10.618  0.2117 -0.1067  0.1587
  106loPI   GL2 1686  10.712  14.195  10.401 -0.1228 -0.0258  0.1616
  106loPI   C1A 1687  10.362  13.929  10.163 -0.1053  0.0133 -0.2920
  106loPI   C2A 1688  10.390  13.808   9.730 -0.4754 -0.3067  0.2151
  106loPI   C3A 1689  10.366  13.856   9.283 -0.3481 -0.0437  0.0796
  106loPI   C4A 1690  10.490  13.792   8.770  0.0026  0.0386 -0.0516
  106loPI   C5A 1691  10.446  13.828   8.272 -0.0798  0.0271  0.1094
  106loPI   C6A 1692  10.509  13.800   7.835 -0.1126 -0.1128  0.1831
  106loPI   C1B 1693  10.785  14.129  10.018 -0.1212  0.0387  0.1797
  106loPI   C2B 1694  10.795  14.242   9.581  0.5554 -0.2450 -0.0005
  106loPI   C3B 1695  10.765  14.243   9.132  0.1038  0.0020  0.0650
  106loPI   C4B 1696  10.796  14.345   8.647 -0.1058  0.1005 -0.2793
  107loPI    C1 1697  15.435   2.408  10.504 -0.2673 -0.0523  0.1039
  107loPI    C2 1698  15.484   2.634  10.830  0.0144 -0.0014  0.0287
  107loPI    C3 1699  15.308   2.788  10.506  0.2843  0.1427 -0.0526
  107loPI   PO4 1700  15.634   2.285  10.463 -0.2052 -0.0802  0.0163
  107loPI   GL1 1701  15.732   2.139  10.100 -0.1003  0.2837  0.0930
  107loPI   GL2 1702  15.647   2.504   9.996  0.0382  0.2393 -0.2388
  107loPI   C1A 1703  15.737   2.087   9.644  0.0109 -0.0459  0.1639
  107loPI   C2A 1704  15.696   1.781   9.340 -0.0539 -0.1062  0.0400
  107loPI   C3A 1705  15.712   1.809   8.906  0.1793 -0.2526 -0.1468
  107loPI   C4A 1706  15.782   1.718   8.404  0.3078 -0.0204  0.1080
  107loPI   C5A 1707  15.530   1.971   8.216 -0.1634 -0.2974 -0.2503
  107loPI   C6A 1708  15.297   1.975   7.864  0.1577  0.0226  0.2275
  107loPI   C1B 1709  15.603   2.536   9.530  0.0022 -0.2057  0.1666
  107loPI   C2B 1710  15.576   2.742   9.107  0.0661  0.2294 -0.1278
  107loPI   C3B 1711  15.337   2.643   8.815  0.1026  0.2863  0.0584
  107loPI   C4B 1712  15.351   2.816   8.451  0.1175 -0.1052 -0.5054
  108loPI    C1 1713  16.030   6.175  10.576  0.0075 -0.0750 -0.1333
  108loPI    C2 1714  15.877   6.343  10.905  0.1825 -0.1691 -0.0022
  108loPI    C3 1715  15.760   5.977  10.794  0.1869 -0.1722  0.0033
  108loPI   PO4 1716  16.066   6.412  10.406  0.1294  0.0784  0.0646
  108loPI   GL1 1717  15.866   6.839  10.158 -0.0424 -0.0549  0.2188
  108loPI   GL2 1718  15.536   6.852  10.326 -0.2095  0.2078  0.0422
  108loPI   C1A 1719  16.084   6.784   9.803  0.0523 -0.0071 -0.0359
  108loPI   C2A 1720  16.008   6.757   9.337  0.0483  0.0946  0.2394
  108loPI   C3A 1721  15.993   6.719   8.917 -0.0672  0.0875  0.0234
  108loPI   C4A 1722  16.019   6.439   8.519  0.1007  0.1749  0.0304
  108loPI   C5A 1723  16.337   6.105   8.445 -0.2201 -0.3660 -0.1518
  108loPI   C6A 1724  16.352   5.677   8.234  0.0189  0.0489 -0.0507
  108loPI   C1B 1725  15.431   7.023   9.936 -0.1102  0.3204  0.1994
  108loPI   C2B 1726  15.538   7.030   9.538  0.0946  0.2253  0.0515
  108loPI   C3B 1727  15.540   6.968   9.103  0.2114 -0.0139 -0.1067
  108loPI   C4B 1728  15.496   7.031   8.684 -0.3403 -0.1443  0.1453
  109loPI    C1 1729   8.859   4.443  10.886  0.0306 -0.0560  0.1492
  109loPI    C2 1730   8.870   4.626  11.241  0.1536 -0.2387  0.2411
  109loPI    C3 1731   8.730   4.252  11.213 -0.1795 -0.1036  0.0407
  109loPI   PO4 1732   8.766   4.573  10.744  0.1332  0.5149 -0.0242
  109loPI   GL1 1733   8.845   4.620  10.268 -0.4620  0.0805 -0.3090
  109loPI   GL2 1734   9.087   4.680  10.386  0.0870  0.1069  0.0303
  109loPI   C1A 1735   8.894   4.653   9.821 -0.0128 -0.0645 -0.0582
  109loPI   C2A 1736   8.885   4.713   9.413  0.0940  0.0343  0.1665
  109loPI   C3A 1737   8.912   4.912   9.047 -0.2139  0.1064  0.2647
  109loPI   C4A 1738   9.320   4.923   8.877 -0.2707 -0.0404 -0.1339
  109loPI   C5A 1739   9.584   5.300   8.711  0.1849  0.1726  0.0669
  109loPI   C6A 1740   9.542   5.700   8.904  0.3340 -0.0735  0.0717
  109loPI   C1B 1741   9.309   4.427  10.140  0.0614  0.2118  0.0601
  109loPI   C2B 1742   9.260   4.381   9.688 -0.0794 -0.0486  0.3143
  109loPI   C3B 1743   9.259   4.449   9.215 -0.1626 -0.1532 -0.0663
  109loPI   C4B 1744   9.444   4.398   8.784  0.0155  0.0159 -0.0505
  110loPI    C1 1745  15.392   8.794  11.250  0.1110  0.0957 -0.0596
  110loPI    C2 1746  15.143   8.954  11.519 -0.0801  0.0137 -0.1860
  110loPI    C3 1747  15.444   9.172  11.371  0.0743  0.0348  0.1506
  110loPI   PO4 1748  15.391   8.677  10.972 -0.0655  0.0763  0.0929
  110loPI   GL1 1749  15.561   8.674  10.615 -0.0189  0.0552 -0.0092
  110loPI   GL2 1750  15.434   9.040  10.612  0.1382 -0.2468  0.1798
  110loPI   C1A 1751  15.501   8.382  10.298 -0.2398  0.0128 -0.1623
  110loPI   C2A 1752  15.667   8.330   9.931 -0.3069 -0.0239 -0.2710
  110loPI   C3A 1753  15.736   8.343   9.415 -0.2302  0.1546 -0.0288
  110loPI   C4A 1754  15.807   8.352   9.038 -0.1191 -0.1586 -0.1361
  110loPI   C5A 1755  15.707   8.469   8.614 -0.0733 -0.2039 -0.0407
  110loPI   C6A 1756  15.833   8.774   8.295  0.0279 -0.0315  0.0754
  110loPI   C1B 1757  15.470   8.912  10.154  0.2071 -0.2183  0.1318
  110loPI   C2B 1758  15.584   8.800   9.837 -0.0774  0.1171  0.1179
  110loPI   C3B 1759  15.723   8.840   9.420 -0.0128  0.0990  0.1389
  110loPI   C4B 1760  15.805   8.880   8.942  0.0746 -0.0082 -0.1547
  111loPI    C1 1761   6.615   5.498  11.282 -0.2218 -0.0022 -0.0620
  111loPI    C2 1762   6.449   5.663  11.606 -0.0321 -0.1149  0.0949
  111loPI    C3 1763   6.463   5.265  11.569  0.0125 -0.1032 -0.0177
  111loPI   PO4 1764   6.531   5.598  11.078 -0.0723 -0.2122  0.0154
  111loPI   GL1 1765   6.738   5.483  10.783 -0.2531  0.1385 -0.0152
  111loPI   GL2 1766   7.029   5.571  10.881  0.0065 -0.0790 -0.1185
  111loPI   C1A 1767   6.723   5.730  10.374  0.2205 -0.5578  0.3237
  111loPI   C2A 1768   6.770   5.714   9.999  0.1305  0.1707  0.1477
  111loPI   C3A 1769   6.828   5.881   9.607 -0.1254  0.0792  0.0248
  111loPI   C4A 1770   6.782   5.959   9.120  0.2614 -0.0710 -0.0790
  111loPI   C5A 1771   6.941   6.120   8.687  0.0348  0.0846  0.5163
  111loPI   C6A 1772   7.131   6.203   8.305 -0.2982  0.2112  0.2628
  111loPI   C1B 1773   7.142   5.856  10.636  0.0440  0.2432 -0.1633
  111loPI   C2B 1774   7.310   5.979  10.237  0.3411  0.1294 -0.0941
  111loPI   C3B 1775   7.239   6.040   9.805 -0.2682  0.0664 -0.0910
  111loPI   C4B 1776   7.218   6.053   9.377  0.1244 -0.2468  0.3205
  112loPI    C1 1777  12.490  15.029  10.871 -0.1445 -0.2605  0.1739
  112loPI    C2 1778  12.332  15.389  10.797  0.2040 -0.1419 -0.0153
  112loPI    C3 1779  12.403  15.276  11.174  0.0167 -0.0471  0.0494
  112loPI   PO4 1780  12.649  15.062  10.689  0.0952  0.2858  0.0478
  112loPI   GL1 1781  12.365  15.029  10.307 -0.2100 -0.2369 -0.0491
  112loPI   GL2 1782  12.674  15.307  10.250 -0.2405 -0.0079  0.2203
  112loPI   C1A 1783  12.361  15.065   9.861  0.1937  0.0390  0.1751
  112loPI   C2A 1784  12.372  15.055   9.467 -0.2124  0.0879 -0.0545
  112loPI   C3A 1785  12.400  15.152   9.063 -0.0621  0.0398 -0.2227
  112loPI   C4A 1786  12.737  15.202   8.730  0.2828  0.0077 -0.0163
  112loPI   C5A 1787  13.113  15.048   8.571  0.4159 -0.4107 -0.3985
  112loPI   C6A 1788  13.337  14.778   8.712  0.0971 -0.1140  0.3346
  112loPI   C1B 1789  12.730  15.532   9.934  0.2448  0.0546  0.1141
  112loPI   C2B 1790  12.664  15.846   9.706  0.0788  0.0290  0.0126
  112loPI   C3B 1791  12.698  15.992   9.321 -0.0156  0.0578  0.0571
  112loPI   C4B 1792  12.754  16.020   8.869  0.0547 -0.3102  0.0482
  113loPI    C1 1793   9.765  13.753  11.282 -0.2017  0.0583  0.0923
  113loPI    C2 1794   9.726  13.452  11.542 -0.0381  0.0807  0.1435
  113loPI    C3 1795   9.797  13.822  11.674  0.1044  0.0823  0.0651
  113loPI   PO4 1796   9.742  13.603  11.013  0.1708 -0.0179 -0.2154
  113loPI   GL1 1797   9.937  13.695  10.607  0.1611  0.1629  0.1872
  113loPI   GL2 1798   9.889  13.983  10.730  0.1018 -0.1530 -0.0765
  113loPI   C1A 1799   9.917  13.600  10.157 -0.2829 -0.0370  0.4756
  113loPI   C2A 1800   9.985  13.529   9.746  0.2527  0.3679 -0.0793
  113loPI   C3A 1801   9.996  13.530   9.424  0.1382 -0.0488 -0.1027
  113loPI   C4A 1802  10.053  13.570   8.931  0.3060  0.0119 -0.2165
  113loPI   C5A 1803   9.869  13.795   8.589 -0.0483  0.2635 -0.2520
  113loPI   C6A 1804   9.952  13.613   8.200 -0.2689  0.3163  0.1117
  113loPI   C1B 1805   9.880  14.105  10.315 -0.0921  0.0787 -0.2070
  113loPI   C2B 1806   9.904  14.038   9.883 -0.2032  0.0852  0.0479
  113loPI   C3B 1807   9.926  14.138   9.514  0.1271  0.4970  0.1771
  113loPI   C4B 1808   9.890  13.956   9.132  0.0335 -0.2128  0.0915
  114loPI    C1 1809   8.775  15.354  11.027  0.0100 -0.1413 -0.0789
  114loPI    C2 1810   8.837  15.724  11.165  0.0460 -0.1382 -0.1034
  114loPI    C3 1811   8.846  15.413  11.416  0.0041 -0.1214 -0.0808
  114loPI   PO4 1812   8.662  15.451  10.806  0.0358  0.1951  0.2146
  114loPI   GL1 1813   8.792  15.595  10.506  0.2760 -0.0426  0.0934
  114loPI   GL2 1814   8.764  15.878  10.455 -0.0177  0.2597  0.0052
  114loPI   C1A 1815   8.789  15.517  10.145 -0.0476 -0.2912  0.2952
  114loPI   C2A 1816   8.777  15.457   9.677  0.0003  0.1848  0.1266
  114loPI   C3A 1817   8.813  15.427   9.206 -0.2399 -0.1401  0.1883
  114loPI   C4A 1818   8.728  15.465   8.850  0.3217 -0.0993  0.1657
  114loPI   C5A 1819   8.708  15.223   8.442  0.3590  0.0381  0.0072
  114loPI   C6A 1820   8.644  14.772   8.451  0.1269  0.1546 -0.0104
  114loPI   C1B 1821   8.699  16.031  10.113  0.0750  0.4819  0.2600
  114loPI   C2B 1822   8.681  16.088   9.738  0.1858  0.1862  0.3055
  114loPI   C3B 1823   8.704  15.925   9.369 -0.0266 -0.2667 -0.3903
  114loPI   C4B 1824   8.638  15.978   8.956 -0.0263 -0.1211 -0.0255
  115loPI    C1 1825   6.006   5.502  11.406  0.0170  0.1440  0.0953
  115loPI    C2 1826   5.679   5.720  11.479 -0.0780  0.0464 -0.0359
  115loPI    C3 1827   5.954   5.671  11.765 -0.2934 -0.0692  0.1548
  115loPI   PO4 1828   6.045   5.523  11.189  0.1818  0.3438 -0.0321
  115loPI   GL1 1829   6.026   5.593  10.835  0.2024  0.0661 -0.1900
  115loPI   GL2 1830   6.226   5.393  10.720  0.3016  0.0095  0.2221
  115loPI   C1A 1831   5.909   5.828  10.519 -0.2252 -0.0702 -0.1023
  115loPI   C2A 1832   5.932   5.803  10.079 -0.0557  0.2120  0.0246
  115loPI   C3A 1833   5.810   5.888   9.676  0.1599  0.0513 -0.1646
  115loPI   C4A 1834   5.860   5.989   9.211 -0.3615  0.1230 -0.3012
  115loPI   C5A 1835   5.985   6.024   8.709  0.3132 -0.1031  0.0649
  115loPI   C6A 1836   6.145   6.224   8.358  0.1869 -0.3274 -0.0063
  115loPI   C1B 1837   6.241   5.526  10.287 -0.0603  0.2837  0.1387
  115loPI   C2B 1838   6.301   5.611   9.861  0.0481  0.0905  0.3312
  115loPI   C3B 1839   6.257   5.744   9.414  0.2675  0.2174  0.0120
  115loPI   C4B 1840   6.343   5.771   8.995  0.1339  0.0328  0.0954
  116loPI    C1 1841  16.458  14.992  11.394  0.1439  0.2963  0.1159
  116loPI    C2 1842  16.083  14.860  11.436  0.2131 -0.0372 -0.2485
  116loPI    C3 1843  16.229  15.132  11.691 -0.2058 -0.0541  0.0203
  116loPI   PO4 1844  16.453  14.961  11.154 -0.0444  0.1011 -0.2059
  116loPI   GL1 1845  16.506  14.827  10.750 -0.2194 -0.1607  0.0880
  116loPI   GL2 1846  16.193  14.861  10.678 -0.1553 -0.0320 -0.1817
  116loPI   C1A 1847  16.495  14.575  10.396  0.1312 -0.2942  0.0109
  116loPI   C2A 1848  16.659  14.440  10.123 -0.0672  0.3172 -0.3410
  116loPI   C3A 1849  16.630  14.629   9.703 -0.0381 -0.0306  0.0664
  116loPI   C4A 1850  16.643  14.598   9.255 -0.2132 -0.3066  0.1295
  116loPI   C5A 1851  16.624  14.709   8.821  0.2051 -0.0570  0.0189
  116loPI   C6A 1852  16.406  15.080   8.653 -0.1085  0.1138  0.2332
  116loPI   C1B 1853  16.032  14.741  10.243  0.1406 -0.1639  0.0971
  116loPI   C2B 1854  16.007  14.842   9.910 -0.3145  0.0349  0.1712
  116loPI   C3B 1855  16.192  14.783   9.433  0.0563  0.3953 -0.1322
  116loPI   C4B 1856  16.182  14.769   9.002  0.1505 -0.0651  0.0663
  117loPI    C1 1857   1.260   9.663  11.017  0.0794  0.1273 -0.0859
  117loPI    C2 1858   1.024   9.867  10.767 -0.0295  0.1915  0.0672
  117loPI    C3 1859   0.944   9.864  11.158  0.0972  0.0316  0.0930
  117loPI   PO4 1860   1.373   9.486  10.787  0.2031  0.0809  0.2713
  117loPI   GL1 1861   1.336   9.579  10.396  0.0971 -0.1950 -0.1015
  117loPI   GL2 1862   0.957   9.559  10.331 -0.0463 -0.2762 -0.0258
  117loPI   C1A 1863   1.383   9.593   9.949  0.1043 -0.1161  0.0809
  117loPI   C2A 1864   1.322   9.610   9.519 -0.1955  0.1311 -0.0967
  117loPI   C3A 1865   1.232   9.549   9.145 -0.0354 -0.2179 -0.1561
  117loPI   C4A 1866   1.291   9.619   8.664  0.2321 -0.2141  0.3563
  117loPI   C5A 1867   1.127   9.707   8.241  0.2229 -0.3329 -0.1760
  117loPI   C6A 1868   0.900  10.049   8.195 -0.1249 -0.1543  0.0842
  117loPI   C1B 1869   0.825   9.662  10.015  0.1484  0.2620  0.1592
  117loPI   C2B 1870   0.840   9.659   9.608 -0.0963 -0.0043 -0.1472
  117loPI   C3B 1871   0.788   9.810   9.169  0.4264  0.2664 -0.0908
  117loPI   C4B 1872   0.992  10.002   8.746 -0.3102 -0.2369 -0.2552
  118loPI    C1 1873  15.629   5.785  10.332  0.1503 -0.2359 -0.1083
  118loPI    C2 1874  15.329   5.672  10.571  0.0563 -0.0071 -0.1157
  118loPI    C3 1875  15.296   6.004  10.351  0.2308 -0.0959 -0.2799
  118loPI   PO4 1876  15.692   5.555  10.249  0.1159 -0.0548 -0.0549
  118loPI   GL1 1877  15.766   5.469   9.949 -0.0856  0.0746 -0.0061
  118loPI   GL2 1878  15.906   5.208   9.923 -0.1724 -0.0015  0.1454
  118loPI   C1A 1879  15.715   5.501   9.561 -0.2191 -0.0637  0.1533
  118loPI   C2A 1880  15.750   5.492   9.102 -0.1377 -0.4394  0.2656
  118loPI   C3A 1881  15.653   5.461   8.662  0.1547  0.0013 -0.0288
  118loPI   C4A 1882  15.556   5.556   8.292 -0.0018  0.0886 -0.2623
  118loPI   C5A 1883  15.332   5.898   8.230  0.1494 -0.1376  0.0350
  118loPI   C6A 1884  14.994   6.236   8.508  0.1542 -0.0674  0.2130
  118loPI   C1B 1885  15.657   4.921   9.594  0.2317  0.0752  0.0637
  118loPI   C2B 1886  15.475   5.014   9.146 -0.2165  0.2651 -0.0333
  118loPI   C3B 1887  15.353   5.096   8.694 -0.0111 -0.0021 -0.0474
  118loPI   C4B 1888  15.135   5.199   8.220  0.1027  0.0237 -0.2379
  119loPI    C1 1889   5.917   3.355  10.976  0.1049  0.2221  0.0081
  119loPI    C2 1890   6.299   3.261  11.048  0.0701  0.0897  0.0232
  119loPI    C3 1891   6.054   3.348  11.352  0.0164 -0.1068  0.0372
  119loPI   PO4 1892   5.910   3.439  10.750  0.1436  0.1026 -0.1348
  119loPI   GL1 1893   5.860   3.473  10.421  0.1480 -0.1558  0.0982
  119loPI   GL2 1894   5.973   3.800  10.383 -0.1118  0.0039 -0.0113
  119loPI   C1A 1895   5.860   3.450  10.019 -0.0050 -0.3260  0.1894
  119loPI   C2A 1896   6.046   3.504   9.683 -0.0661  0.0662  0.0041
  119loPI   C3A 1897   5.961   3.491   9.230 -0.1117 -0.1812 -0.1853
  119loPI   C4A 1898   6.068   3.706   8.812  0.2912  0.0026 -0.0644
  119loPI   C5A 1899   6.043   3.510   8.389  0.3344 -0.1707 -0.0176
  119loPI   C6A 1900   6.154   3.595   7.924 -0.0679 -0.2825  0.1201
  119loPI   C1B 1901   6.001   4.041  10.061 -0.0376  0.2136  0.1752
  119loPI   C2B 1902   6.042   4.089   9.586  0.1919  0.0568 -0.2592
  119loPI   C3B 1903   6.115   4.082   9.149  0.0960  0.3692 -0.0247
  119loPI   C4B 1904   6.103   4.176   8.710 -0.2686 -0.1627  0.2752
  120loPI    C1 1905  11.620   1.948  10.627  0.1790 -0.1306 -0.3116
  120loPI    C2 1906  11.929   2.015  10.382  0.3612 -0.0619 -0.0687
  120loPI    C3 1907  11.993   1.869  10.748  0.0760 -0.3426 -0.1258
  120loPI   PO4 1908  11.479   1.851  10.466 -0.0958  0.3031 -0.7664
  120loPI   GL1 1909  11.570   1.734  10.069 -0.2454  0.0390  0.0338
  120loPI   GL2 1910  11.389   1.499  10.017 -0.3331  0.0955 -0.0190
  120loPI   C1A 1911  11.502   1.816   9.615 -0.0156 -0.2857 -0.1169
  120loPI   C2A 1912  11.576   1.751   9.158 -0.0671  0.1120 -0.1293
  120loPI   C3A 1913  11.645   1.568   8.771  0.0810 -0.3531 -0.2679
  120loPI   C4A 1914  11.469   1.424   8.437 -0.2178 -0.0350  0.1615
  120loPI   C5A 1915  11.763   1.227   8.001 -0.0057 -0.1774  0.0735
  120loPI   C6A 1916  11.904   0.810   8.055 -0.1445 -0.0828 -0.4419
  120loPI   C1B 1917  11.446   1.246   9.605 -0.1579  0.0700  0.2219
  120loPI   C2B 1918  11.697   1.278   9.213 -0.1370 -0.2565 -0.0149
  120loPI   C3B 1919  11.998   1.243   8.970 -0.2102 -0.1803 -0.0155
  120loPI   C4B 1920  12.248   1.167   8.602  0.3197  0.2704 -0.0155
  121loPI    C1 1921  13.611   0.618  10.408  0.0284 -0.0448 -0.0341
  121loPI    C2 1922  13.799   0.390  10.677  0.0989  0.2836  0.2009
  121loPI    C3 1923  14.010   0.626  10.431  0.0220  0.1718  0.0255
  121loPI   PO4 1924  13.464   0.450  10.262 -0.0570  0.2360  0.1099
  121loPI   GL1 1925  13.047   0.521  10.069  0.0328  0.0522 -0.1725
  121loPI   GL2 1926  12.719   0.440  10.140  0.0230 -0.0977 -0.2754
  121loPI   C1A 1927  13.107   0.332   9.618 -0.2861  0.2872  0.1892
  121loPI   C2A 1928  13.181   0.638   9.265  0.1191  0.0911 -0.0989
  121loPI   C3A 1929  13.326   0.834   8.925  0.0108  0.0268 -0.0887
  121loPI   C4A 1930  13.502   1.107   8.552  0.0496 -0.1755 -0.2171
  121loPI   C5A 1931  13.547   1.197   8.100  0.0367  0.1350  0.4316
  121loPI   C6A 1932  13.281   1.455   7.868  0.0603  0.0164 -0.2519
  121loPI   C1B 1933  12.651   0.516   9.692  0.2676  0.3095 -0.0590
  121loPI   C2B 1934  12.645   0.543   9.312  0.2104 -0.0454 -0.0963
  121loPI   C3B 1935  12.820   0.655   8.927  0.0826 -0.1725 -0.0372
  121loPI   C4B 1936  12.917   0.982   8.574  0.2774  0.0107  0.0629
  122loPI    C1 1937   1.908  10.242  10.853 -0.1088 -0.1709  0.1092
  122loPI    C2 1938   2.122   9.921  10.747  0.1748  0.0959 -0.1490
  122loPI    C3 1939   2.150  10.068  11.119  0.3070  0.0250 -0.1306
  122loPI   PO4 1940   1.896  10.359  10.717  0.0548  0.0449 -0.0249
  122loPI   GL1 1941   1.640  10.493  10.316 -0.0928 -0.0652  0.0862
  122loPI   GL2 1942   1.636  10.785  10.486  0.1686  0.0728  0.2188
  122loPI   C1A 1943   1.599  10.381   9.844 -0.1781 -0.0339 -0.0870
  122loPI   C2A 1944   1.569  10.468   9.397  0.2798 -0.1850 -0.1155
  122loPI   C3A 1945   1.449  10.403   9.010 -0.2126 -0.2225  0.0998
  122loPI   C4A 1946   1.531  10.576   8.670  0.1291 -0.0512 -0.1559
  122loPI   C5A 1947   1.577  10.806   8.334 -0.3652  0.0071  0.2163
  122loPI   C6A 1948   1.685  10.811   8.007  0.0306  0.1489  0.0688
  122loPI   C1B 1949   1.593  10.926  10.092  0.4550  0.2732 -0.3108
  122loPI   C2B 1950   1.501  10.934   9.582  0.1125  0.1944  0.0053
  122loPI   C3B 1951   1.520  10.981   9.233 -0.0919  0.1469  0.2353
  122loPI   C4B 1952   1.425  11.157   8.781  0.1976 -0.2989  0.3065
  123loPI    C1 1953   7.263  14.047  11.242 -0.1949 -0.0286 -0.1966
  123loPI    C2 1954   7.581  14.183  11.442 -0.2008  0.0639 -0.2493
  123loPI    C3 1955   7.362  13.884  11.593 -0.2333  0.1647 -0.0946
  123loPI   PO4 1956   7.414  13.960  11.023 -0.0807  0.2191 -0.0968
  123loPI   GL1 1957   7.452  13.986  10.598  0.1558  0.3041 -0.0523
  123loPI   GL2 1958   7.154  14.070  10.619  0.2544 -0.2899 -0.0777
  123loPI   C1A 1959   7.552  14.059  10.144  0.0484  0.2522  0.1157
  123loPI   C2A 1960   7.611  14.053   9.670 -0.2783 -0.2320  0.1541
  123loPI   C3A 1961   7.685  14.007   9.178  0.1055  0.1050  0.0526
  123loPI   C4A 1962   7.924  14.211   8.836  0.0532 -0.1149  0.2468
  123loPI   C5A 1963   8.150  14.617   8.754 -0.2000  0.0044  0.0221
  123loPI   C6A 1964   7.986  14.919   8.690 -0.0437 -0.1357 -0.0848
  123loPI   C1B 1965   7.371  14.428  10.315  0.0098  0.0479  0.0193
  123loPI   C2B 1966   7.542  14.499   9.845  0.1721  0.1772  0.2291
  123loPI   C3B 1967   7.522  14.472   9.419  0.1849 -0.1605  0.1711
  123loPI   C4B 1968   7.645  14.570   8.994  0.2085  0.1342 -0.2150
  124loPI    C1 1969  11.834   7.243  11.203  0.0708 -0.0588 -0.0287
  124loPI    C2 1970  11.988   7.392  11.540 -0.2482  0.1921  0.0113
  124loPI    C3 1971  11.851   7.017  11.532  0.0095  0.0940  0.0805
  124loPI   PO4 1972  12.039   7.401  11.010  0.2668  0.1444  0.2118
  124loPI   GL1 1973  12.117   7.377  10.583 -0.2588 -0.0120 -0.0879
  124loPI   GL2 1974  11.829   7.300  10.387  0.0539  0.2335  0.4722
  124loPI   C1A 1975  12.078   7.556  10.081 -0.0916  0.2396  0.2040
  124loPI   C2A 1976  12.035   7.591   9.712  0.2460 -0.1519  0.3674
  124loPI   C3A 1977  12.121   7.740   9.335  0.0459  0.3160  0.5287
  124loPI   C4A 1978  12.260   7.698   8.921 -0.4121  0.1567 -0.0069
  124loPI   C5A 1979  12.183   7.794   8.478 -0.2485  0.0367  0.0185
  124loPI   C6A 1980  12.482   8.011   8.146 -0.1499 -0.2298  0.2673
  124loPI   C1B 1981  11.599   7.208  10.013 -0.0573 -0.0562  0.1106
  124loPI   C2B 1982  11.540   7.521   9.704 -0.0222 -0.2758  0.0845
  124loPI   C3B 1983  11.541   7.838   9.360 -0.0502  0.0247  0.0875
  124loPI   C4B 1984  11.459   7.925   8.829  0.1330 -0.2771 -0.0648
  125loPI    C1 1985  11.178   9.816  11.560 -0.2929  0.1831 -0.2300
  125loPI    C2 1986  10.871   9.570  11.486 -0.1225 -0.1384  0.1011
  125loPI    C3 1987  11.046   9.570  11.846  0.2979  0.0059 -0.0960
  125loPI   PO4 1988  11.230   9.938  11.264 -0.0576  0.0340  0.3106
  125loPI   GL1 1989  11.386   9.891  10.963 -0.1619 -0.0656 -0.2860
  125loPI   GL2 1990  11.237   9.662  10.756 -0.1945 -0.3157  0.2692
  125loPI   C1A 1991  11.525  10.042  10.541  0.1881  0.0503 -0.0020
  125loPI   C2A 1992  11.468  10.232  10.078  0.0624  0.0391 -0.1004
  125loPI   C3A 1993  11.624  10.243   9.672  0.2127  0.0997 -0.1576
  125loPI   C4A 1994  11.695  10.287   9.324  0.1286  0.2087  0.0864
  125loPI   C5A 1995  11.563  10.406   8.989 -0.1146 -0.2483  0.1522
  125loPI   C6A 1996  11.458  10.508   8.554 -0.6062  0.0167  0.0162
  125loPI   C1B 1997  11.107   9.791  10.300 -0.3524  0.1047 -0.4226
  125loPI   C2B 1998  11.148   9.908   9.900  0.1017  0.0759  0.0282
  125loPI   C3B 1999  11.202   9.889   9.559 -0.1234 -0.1403 -0.5160
  125loPI   C4B 2000  11.338   9.919   9.202 -0.4274 -0.0141 -0.2292
  126loPI    C1 2001   5.441   8.397  11.215  0.2191  0.4970 -0.0558
  126loPI    C2 2002   5.274   8.635  11.489 -0.0342  0.2673 -0.0069
  126loPI    C3 2003   5.565   8.382  11.595 -0.2176  0.0896  0.0796
  126loPI   PO4 2004   5.471   8.574  10.999  0.1880  0.2324 -0.2045
  126loPI   GL1 2005   5.485   8.595  10.514 -0.1279 -0.1200  0.0078
  126loPI   GL2 2006   5.207   8.433  10.518 -0.2190  0.3190  0.1986
  126loPI   C1A 2007   5.640   8.786  10.135  0.0528 -0.1369 -0.1096
  126loPI   C2A 2008   5.720   8.836   9.754 -0.1084  0.2240  0.1236
  126loPI   C3A 2009   5.749   8.858   9.286  0.1395 -0.0960 -0.1068
  126loPI   C4A 2010   5.698   8.865   8.901  0.0640  0.0272  0.2172
  126loPI   C5A 2011   5.649   8.583   8.527  0.0317 -0.1079  0.1853
  126loPI   C6A 2012   5.853   8.543   8.193  0.0319  0.0497  0.1471
  126loPI   C1B 2013   5.220   8.447  10.063 -0.4267 -0.3077  0.4490
  126loPI   C2B 2014   5.202   8.564   9.719  0.0719  0.2138  0.2166
  126loPI   C3B 2015   5.211   8.600   9.294 -0.0230  0.2343 -0.2957
  126loPI   C4B 2016   5.262   8.591   8.884 -0.1616  0.1001 -0.0121
  127loPI    C1 2017   3.041   3.293  10.629 -0.3043 -0.0048  0.0327
  127loPI    C2 2018   3.113   3.493  10.968  0.1367 -0.0396 -0.0344
  127loPI    C3 2019   2.926   3.140  10.980 -0.0776  0.0779  0.1454
  127loPI   PO4 2020   2.968   3.433  10.487  0.1144 -0.2204  0.1435
  127loPI   GL1 2021   2.953   3.396  10.110  0.2256  0.2927  0.3756
  127loPI   GL2 2022   3.028   3.020  10.170  0.1204 -0.0252 -0.2382
  127loPI   C1A 2023   3.105   3.386   9.705 -0.1518  0.0809  0.0282
  127loPI   C2A 2024   3.185   3.420   9.250 -0.0490 -0.1178  0.0863
  127loPI   C3A 2025   3.263   3.377   8.842 -0.1360  0.0006  0.0983
  127loPI   C4A 2026   3.512   3.333   8.455  0.1457  0.0197  0.1409
  127loPI   C5A 2027   3.702   3.042   8.381 -0.2755 -0.2668  0.4851
  127loPI   C6A 2028   4.035   2.906   8.210  0.1672 -0.2582  0.1929
  127loPI   C1B 2029   3.468   3.001  10.036 -0.1117 -0.0226  0.1280
  127loPI   C2B 2030   3.569   3.004   9.665 -0.0504  0.1372 -0.2404
  127loPI   C3B 2031   3.548   3.086   9.227  0.2201  0.2729  0.0238
  127loPI   C4B 2032   3.643   2.891   8.860  0.3166  0.1435 -0.0136
  128loPI    C1 2033   6.761   8.643  11.102 -0.4568 -0.2029  0.1019
  128loPI    C2 2034   6.553   8.869  10.847  0.1147 -0.0497 -0.2466
  128loPI    C3 2035   6.577   8.973  11.233 -0.0600  0.1912 -0.2979
  128loPI   PO4 2036   6.724   8.394  10.906  0.0414 -0.0619  0.0856
  128loPI   GL1 2037   6.871   8.201  10.468 -0.0124  0.0441 -0.1678
  128loPI   GL2 2038   6.680   7.977  10.535  0.1972  0.0436  0.0324
  128loPI   C1A 2039   7.062   8.273  10.072 -0.1770 -0.2901  0.0900
  128loPI   C2A 2040   7.078   8.367   9.578 -0.0511 -0.1438 -0.0688
  128loPI   C3A 2041   7.108   8.456   9.169  0.1701  0.2495  0.0057
  128loPI   C4A 2042   7.034   8.474   8.725 -0.1461 -0.0620 -0.0437
  128loPI   C5A 2043   6.836   8.301   8.471  0.0229  0.0825  0.5686
  128loPI   C6A 2044   6.476   8.072   8.446  0.2280 -0.0807 -0.1842
  128loPI   C1B 2045   6.567   8.166  10.051 -0.0034 -0.1161 -0.0928
  128loPI   C2B 2046   6.548   8.157   9.631 -0.0059 -0.1761 -0.1291
  128loPI   C3B 2047   6.693   8.180   9.285 -0.0248  0.2155  0.1391
  128loPI   C4B 2048   6.542   8.232   8.909  0.0113 -0.0772  0.1116
  129loPI    C1 2049   5.918   7.752  11.135 -0.0364  0.2892  0.2811
  129loPI    C2 2050   5.614   7.945  11.309  0.0296  0.3253  0.3574
  129loPI    C3 2051   5.724   7.584  11.442  0.0882  0.3582  0.3988
  129loPI   PO4 2052   5.818   7.761  10.847  0.1549 -0.0126 -0.1861
  129loPI   GL1 2053   6.028   7.963  10.585  0.2215  0.0627 -0.0741
  129loPI   GL2 2054   5.851   8.288  10.723 -0.3459  0.2313 -0.1222
  129loPI   C1A 2055   6.117   7.939  10.119 -0.1615  0.0815 -0.4771
  129loPI   C2A 2056   6.089   7.969   9.718  0.0852  0.0074  0.0125
  129loPI   C3A 2057   6.043   8.015   9.310 -0.1852 -0.0639 -0.0006
  129loPI   C4A 2058   6.095   7.986   8.870  0.2174 -0.1816 -0.3923
  129loPI   C5A 2059   5.899   8.129   8.527  0.1901 -0.1531 -0.3734
  129loPI   C6A 2060   5.776   7.986   8.089  0.1372 -0.0356  0.1022
  129loPI   C1B 2061   5.739   8.244  10.308  0.4507  0.4461  0.1008
  129loPI   C2B 2062   5.656   8.318   9.847  0.3976  0.0400  0.1085
  129loPI   C3B 2063   5.675   8.291   9.427  0.3910 -0.2136  0.3546
  129loPI   C4B 2064   5.678   8.345   9.015  0.1863  0.0596 -0.1269
  130loPI    C1 2065   9.426   2.344  10.866 -0.5270 -0.0277 -0.1298
  130loPI    C2 2066   9.548   2.096  11.155  0.0474 -0.0486 -0.3766
  130loPI    C3 2067   9.187   2.267  11.178  0.0686 -0.0664  0.3356
  130loPI   PO4 2068   9.505   2.261  10.620 -0.2113 -0.3102 -0.2158
  130loPI   GL1 2069   9.502   2.429  10.198  0.1575  0.0513 -0.0948
  130loPI   GL2 2070   9.187   2.288  10.140  0.1407 -0.1282 -0.0976
  130loPI   C1A 2071   9.509   2.503   9.758 -0.0852  0.0444 -0.0335
  130loPI   C2A 2072   9.413   2.648   9.379  0.0662  0.5823 -0.1725
  130loPI   C3A 2073   9.495   2.709   8.975 -0.0024 -0.2266  0.0095
  130loPI   C4A 2074   9.775   2.548   8.590 -0.2073  0.1956  0.2510
  130loPI   C5A 2075  10.212   2.709   8.462 -0.0747 -0.1478  0.1636
  130loPI   C6A 2076  10.515   2.897   8.287  0.0516 -0.0760 -0.0218
  130loPI   C1B 2077   8.969   2.389   9.733  0.0966  0.2012 -0.0419
  130loPI   C2B 2078   8.962   2.468   9.289 -0.0589  0.4378 -0.0771
  130loPI   C3B 2079   8.922   2.435   8.933 -0.0705  0.1887  0.2215
  130loPI   C4B 2080   8.590   2.157   8.598  0.0098  0.0612 -0.1409
  131loPI    C1 2081  16.376   2.874  10.691 -0.1065 -0.0988  0.0369
  131loPI    C2 2082  16.066   3.100  10.807 -0.0686 -0.1532  0.2498
  131loPI    C3 2083  16.374   3.041  11.055  0.2224  0.0908 -0.0442
  131loPI   PO4 2084  16.367   2.884  10.442  0.0679 -0.0945  0.1469
  131loPI   GL1 2085  16.196   2.588  10.094 -0.1358  0.3382 -0.1750
  131loPI   GL2 2086  16.073   2.885  10.026  0.4323  0.1565 -0.1542
  131loPI   C1A 2087  16.119   2.412   9.741 -0.2085  0.1544  0.0545
  131loPI   C2A 2088  16.292   2.356   9.358 -0.0028  0.1469 -0.2028
  131loPI   C3A 2089  16.104   1.988   9.114 -0.1427  0.3120  0.0181
  131loPI   C4A 2090  16.126   1.991   8.645 -0.1317  0.1864  0.0374
  131loPI   C5A 2091  16.196   2.194   8.249 -0.3183 -0.1360 -0.0570
  131loPI   C6A 2092  16.042   2.479   7.970  0.1141 -0.0754 -0.0414
  131loPI   C1B 2093  16.443   2.823   9.695  0.1875  0.1006 -0.0881
  131loPI   C2B 2094  16.751   2.620   9.412 -0.0784 -0.0419  0.1463
  131loPI   C3B 2095  16.783   2.237   9.255 -0.1613 -0.1804  0.2212
  131loPI   C4B 2096  17.029   2.019   8.879  0.3239 -0.1317 -0.0210
  132loPI    C1 2097  13.753   5.532  10.722 -0.1353  0.1055 -0.2519
  132loPI    C2 2098  14.092   5.525  10.509  0.1048  0.4032  0.1065
  132loPI    C3 2099  13.990   5.210  10.734 -0.1630  0.0769 -0.4491
  132loPI   PO4 2100  13.645   5.692  10.513 -0.1956  0.0145 -0.0926
  132loPI   GL1 2101  13.332   5.580  10.162  0.2703  0.1248 -0.1499
  132loPI   GL2 2102  13.256   5.343   9.979  0.0446  0.0320 -0.0762
  132loPI   C1A 2103  13.513   5.717   9.810 -0.0864 -0.2281  0.1687
  132loPI   C2A 2104  13.448   5.783   9.341  0.1451  0.2225  0.1140
  132loPI   C3A 2105  13.257   5.844   8.964 -0.0350 -0.0085 -0.1060
  132loPI   C4A 2106  13.055   5.982   8.617 -0.1945  0.3665 -0.3246
  132loPI   C5A 2107  13.127   6.177   8.229  0.0084 -0.1141 -0.0304
  132loPI   C6A 2108  13.390   6.167   7.792  0.0445 -0.0345  0.0454
  132loPI   C1B 2109  13.109   5.466   9.561 -0.2187  0.0427  0.0815
  132loPI   C2B 2110  12.912   5.453   9.150  0.1349 -0.3689  0.0234
  132loPI   C3B 2111  12.905   5.493   8.614 -0.0147 -0.4261  0.1600
  132loPI   C4B 2112  13.090   5.185   8.357 -0.0513 -0.1334 -0.0991
  133loPI    C1 2113   8.643   5.594  11.403  0.1157 -0.1215  0.2598
  133loPI    C2 2114   8.306   5.561  11.615  0.0745 -0.0953  0.1984
  133loPI    C3 2115   8.510   5.906  11.615 -0.0946  0.0082 -0.0556
  133loPI   PO4 2116   8.553   5.496  11.180 -0.2328 -0.1450  0.0944
  133loPI   GL1 2117   8.197   5.474  10.863  0.2428  0.2084  0.2139
  133loPI   GL2 2118   8.465   5.500  10.651  0.1543 -0.1500  0.2134
  133loPI   C1A 2119   8.030   5.969  10.820  0.1007 -0.1915  0.2863
  133loPI   C2A 2120   7.765   6.158  10.389 -0.1331 -0.1196  0.2767
  133loPI   C3A 2121   7.700   6.187   9.912 -0.1025  0.0496 -0.0297
  133loPI   C4A 2122   7.855   6.233   9.501 -0.2313 -0.1661 -0.0041
  133loPI   C5A 2123   7.889   6.314   9.081 -0.4235 -0.0446 -0.0236
  133loPI   C6A 2124   7.935   6.368   8.657 -0.0198  0.1618 -0.2137
  133loPI   C1B 2125   8.251   5.761  10.456  0.0163  0.0771  0.1495
  133loPI   C2B 2126   8.057   5.824  10.093 -0.2697  0.0482 -0.2979
  133loPI   C3B 2127   8.147   5.865   9.667  0.0964  0.0516 -0.0378
  133loPI   C4B 2128   8.317   6.061   9.323  0.2818  0.2171  0.1100
  134loPI    C1 2129  10.017   2.093  11.042 -0.1245 -0.2624 -0.0629
  134loPI    C2 2130  10.285   1.856  11.222  0.0005 -0.1623 -0.1159
  134loPI    C3 2131   9.973   1.996  11.428  0.1876  0.0195  0.0489
  134loPI   PO4 2132   9.919   2.009  10.843 -0.1287 -0.0875  0.1601
  134loPI   GL1 2133   9.839   1.939  10.372  0.3319 -0.0172  0.2004
  134loPI   GL2 2134   9.805   1.665  10.371 -0.4050 -0.1260  0.2380
  134loPI   C1A 2135  10.029   1.919   9.946  0.0433  0.2580 -0.5268
  134loPI   C2A 2136  10.160   2.019   9.546  0.2024 -0.0281 -0.1265
  134loPI   C3A 2137  10.510   2.154   9.241  0.3394 -0.1210  0.0339
  134loPI   C4A 2138  10.580   2.141   8.872 -0.1476 -0.2007 -0.0568
  134loPI   C5A 2139  10.575   1.840   8.528 -0.1315 -0.2390  0.0057
  134loPI   C6A 2140  10.358   1.559   8.371 -0.1144 -0.0508 -0.1756
  134loPI   C1B 2141   9.678   1.567  10.008  0.0806 -0.2022 -0.2979
  134loPI   C2B 2142   9.582   1.590   9.623 -0.2182  0.0026  0.3692
  134loPI   C3B 2143   9.454   1.636   9.181  0.0934 -0.0539 -0.3769
  134loPI   C4B 2144   9.401   1.640   8.813  0.0911 -0.1056 -0.0313
  135loPI    C1 2145   7.972  12.344  11.225 -0.1036  0.1193  0.0848
  135loPI    C2 2146   8.261  12.523  11.436 -0.1821  0.2654  0.0695
  135loPI    C3 2147   8.000  12.280  11.618  0.2018 -0.2019  0.0164
  135loPI   PO4 2148   8.023  12.349  10.978 -0.0530 -0.2380  0.1979
  135loPI   GL1 2149   7.832  12.497  10.551  0.0050 -0.0054  0.1555
  135loPI   GL2 2150   7.727  12.832  10.529  0.0295  0.0835  0.2130
  135loPI   C1A 2151   7.696  12.209  10.261 -0.0399 -0.0522 -0.0365
  135loPI   C2A 2152   7.641  12.219   9.807 -0.0078  0.0702  0.1974
  135loPI   C3A 2153   7.817  12.133   9.453 -0.0446 -0.2168 -0.2079
  135loPI   C4A 2154   7.828  12.139   9.031  0.1873  0.2951  0.1589
  135loPI   C5A 2155   8.025  12.441   8.699 -0.2615  0.1624  0.0371
  135loPI   C6A 2156   8.195  12.702   8.313  0.0581 -0.1804 -0.1265
  135loPI   C1B 2157   7.864  12.770  10.092 -0.1295  0.3047 -0.1384
  135loPI   C2B 2158   7.802  12.648   9.632 -0.1757 -0.0675  0.2462
  135loPI   C3B 2159   7.397  12.509   9.398  0.0602 -0.3088 -0.0392
  135loPI   C4B 2160   7.103  12.467   9.092  0.0947  0.2439  0.3046
  136loPI    C1 2161   5.647   6.211  11.509  0.4238 -0.2322 -0.1174
  136loPI    C2 2162   5.796   6.347  11.854 -0.4489  0.3240  0.0718
  136loPI    C3 2163   5.529   6.049  11.855 -0.0922 -0.0052 -0.1771
  136loPI   PO4 2164   5.801   6.309  11.336  0.1856 -0.0796  0.0039
  136loPI   GL1 2165   5.968   6.398  10.975  0.1455 -0.1320  0.1140
  136loPI   GL2 2166   6.311   6.555  10.785 -0.1122  0.1767 -0.2909
  136loPI   C1A 2167   5.909   6.329  10.558 -0.0944  0.2241  0.1025
  136loPI   C2A 2168   5.909   6.343  10.170  0.1101  0.2351  0.0253
  136loPI   C3A 2169   5.865   6.481   9.750 -0.1463 -0.0709 -0.0561
  136loPI   C4A 2170   5.962   6.473   9.337  0.2072  0.0381  0.3530
  136loPI   C5A 2171   5.943   6.533   8.993  0.0806 -0.1725 -0.2787
  136loPI   C6A 2172   6.213   6.718   8.644  0.0875 -0.3631 -0.0827
  136loPI   C1B 2173   6.385   6.496  10.373  0.1538 -0.5213  0.1303
  136loPI   C2B 2174   6.424   6.681   9.914 -0.2529  0.0317 -0.3519
  136loPI   C3B 2175   6.498   6.754   9.542  0.0788 -0.2471 -0.0354
  136loPI   C4B 2176   6.496   6.811   9.135  0.0573 -0.0405 -0.0512
  137loPI    C1 2177   1.070   8.086  10.944 -0.1299  0.1261  0.0825
  137loPI    C2 2178   1.331   7.979  11.228 -0.1416  0.1698  0.1099
  137loPI    C3 2179   0.980   8.140  11.330 -0.1834  0.1022  0.0734
  137loPI   PO4 2180   1.184   7.966  10.618  0.0675 -0.3325 -0.0662
  137loPI   GL1 2181   0.929   7.662  10.342 -0.2571  0.0410  0.0531
  137loPI   GL2 2182   0.725   7.847  10.286  0.2052  0.2474 -0.0678
  137loPI   C1A 2183   1.267   7.596   9.976  0.1330  0.2661  0.0473
  137loPI   C2A 2184   1.320   7.723   9.559 -0.2624 -0.1045 -0.1693
  137loPI   C3A 2185   1.442   7.645   9.165  0.0657  0.0232  0.1944
  137loPI   C4A 2186   1.432   7.414   8.895 -0.1557 -0.0456  0.0764
  137loPI   C5A 2187   1.308   7.484   8.531 -0.0183  0.0811 -0.5897
  137loPI   C6A 2188   1.410   7.642   8.182  0.0836 -0.0652 -0.0565
  137loPI   C1B 2189   0.343   8.029  10.074 -0.0378  0.1762 -0.1258
  137loPI   C2B 2190   0.267   8.004   9.636  0.1941 -0.1853  0.1068
  137loPI   C3B 2191   0.201   7.929   9.261 -0.1366  0.1162  0.2501
  137loPI   C4B 2192   0.342   7.975   8.872 -0.0232 -0.0110  0.4571
  138loPI    C1 2193   0.973  17.636  11.123  0.0858  0.0204 -0.2865
  138loPI    C2 2194   1.130  17.689  11.488 -0.4008  0.0664 -0.0769
  138loPI    C3 2195   1.089  17.320  11.340 -0.3090  0.0401 -0.0369
  138loPI   PO4 2196   1.081  17.795  10.958  0.3537 -0.1955  0.0345
  138loPI   GL1 2197   1.205  17.759  10.516  0.0768  0.0249  0.0265
  138loPI   GL2 2198   1.476  17.834  10.348 -0.0167 -0.0274  0.2908
  138loPI   C1A 2199   1.274  17.499  10.072  0.0999  0.1597  0.0671
  138loPI   C2A 2200   1.112  17.198   9.824 -0.0999 -0.1907 -0.1897
  138loPI   C3A 2201   1.134  17.175   9.394 -0.3855  0.0079  0.1965
  138loPI   C4A 2202   1.257  17.447   9.082 -0.1494  0.0175 -0.2339
  138loPI   C5A 2203   1.597  17.603   8.784 -0.1944  0.1882 -0.0490
  138loPI   C6A 2204   1.644  17.690   8.356  0.1243 -0.0943  0.3703
  138loPI   C1B 2205   1.398  17.920   9.885  0.1423 -0.0124 -0.1990
  138loPI   C2B 2206   1.267  18.359   9.601  0.0312  0.0278 -0.0069
  138loPI   C3B 2207   0.874  18.501   9.429  0.0639 -0.2031  0.2034
  138loPI   C4B 2208   0.560  18.649   9.621 -0.1160 -0.1294 -0.1764
  139loPI    C1 2209  12.573  13.378  11.488 -0.2277 -0.0400  0.1957
  139loPI    C2 2210  12.920  13.444  11.675 -0.0549 -0.0916 -0.0997
  139loPI    C3 2211  12.591  13.360  11.887  0.0623  0.1733  0.1952
  139loPI   PO4 2212  12.681  13.314  11.255  0.1023 -0.3070 -0.1561
  139loPI   GL1 2213  12.763  13.323  10.916 -0.0656  0.2908 -0.0139
  139loPI   GL2 2214  13.078  13.427  10.838  0.0539  0.0954  0.0214
  139loPI   C1A 2215  12.742  13.530  10.484 -0.1058  0.0856  0.1171
  139loPI   C2A 2216  12.744  13.567  10.001  0.2534  0.0505 -0.2422
  139loPI   C3A 2217  12.808  13.591   9.641  0.4153  0.0235 -0.0315
  139loPI   C4A 2218  12.858  13.585   9.242 -0.0173 -0.1078  0.2491
  139loPI   C5A 2219  12.933  13.411   8.780 -0.2111  0.1576 -0.2210
  139loPI   C6A 2220  12.864  13.359   8.379 -0.2245 -0.6178  0.5322
  139loPI   C1B 2221  13.164  13.267  10.373  0.0184 -0.1122 -0.0469
  139loPI   C2B 2222  13.216  13.360   9.954 -0.3671  0.0052 -0.3203
  139loPI   C3B 2223  13.278  13.394   9.524  0.1276  0.2303 -0.2624
  139loPI   C4B 2224  13.355  13.435   9.120 -0.3388 -0.2488 -0.1577
  140loPI    C1 2225   1.154  10.723  11.154  0.1116  0.1113 -0.1131
  140loPI    C2 2226   1.059  10.362  11.296  0.0079  0.1023 -0.2042
  140loPI    C3 2227   1.382  10.553  11.434  0.0721 -0.0320 -0.1674
  140loPI   PO4 2228   1.142  10.694  10.915  0.1687 -0.0008 -0.1223
  140loPI   GL1 2229   1.155  10.839  10.470  0.0283  0.0859 -0.1746
  140loPI   GL2 2230   0.858  10.696  10.491 -0.1351 -0.1542  0.2662
  140loPI   C1A 2231   1.196  10.553  10.121  0.1128 -0.1160 -0.2390
  140loPI   C2A 2232   1.063  10.564   9.751 -0.0144 -0.2544  0.3041
  140loPI   C3A 2233   1.101  10.703   9.332  0.1320  0.0922  0.1947
  140loPI   C4A 2234   1.126  10.791   8.902 -0.0981 -0.2586  0.0589
  140loPI   C5A 2235   1.054  10.956   8.499  0.0085 -0.0845  0.1164
  140loPI   C6A 2236   1.164  11.002   8.135  0.0449 -0.1484 -0.1518
  140loPI   C1B 2237   0.653  10.705   9.956 -0.1480 -0.1667  0.0319
  140loPI   C2B 2238   0.584  10.705   9.552 -0.0833 -0.0214 -0.2410
  140loPI   C3B 2239   0.647  10.874   9.104 -0.1457 -0.0102 -0.1326
  140loPI   C4B 2240   0.574  10.924   8.740 -0.0103 -0.0596 -0.1840
  141loPI    C1 2241  14.166  13.819  11.368 -0.1047 -0.1811  0.0318
  141loPI    C2 2242  14.365  13.867  11.025 -0.0463  0.1446  0.1081
  141loPI    C3 2243  14.492  13.600  11.294  0.3395  0.3999  0.1886
  141loPI   PO4 2244  13.963  13.770  11.285  0.1700 -0.1267  0.1612
  141loPI   GL1 2245  13.787  13.972  10.906 -0.1442 -0.0851  0.0348
  141loPI   GL2 2246  13.559  14.279  10.796 -0.2444  0.0024 -0.0723
  141loPI   C1A 2247  13.946  14.051  10.471  0.0456 -0.1630  0.1681
  141loPI   C2A 2248  13.985  14.186  10.081  0.0959 -0.1469  0.0198
  141loPI   C3A 2249  14.021  14.102   9.624 -0.0338 -0.2169  0.0606
  141loPI   C4A 2250  14.076  14.154   9.213  0.1467  0.2559  0.0642
  141loPI   C5A 2251  14.074  14.124   8.852  0.1508 -0.1051 -0.2117
  141loPI   C6A 2252  14.085  14.176   8.525  0.2484  0.1339  0.1782
  141loPI   C1B 2253  13.484  14.233  10.245  0.0196  0.1962  0.1855
  141loPI   C2B 2254  13.547  14.307   9.813  0.0911 -0.1401  0.0819
  141loPI   C3B 2255  13.598  14.248   9.293 -0.0126  0.0039  0.0839
  141loPI   C4B 2256  13.578  14.245   8.914 -0.0563 -0.1088  0.1393
  142loPI    C1 2257   6.687   6.187  11.655 -0.0120 -0.0033 -0.2773
  142loPI    C2 2258   7.068   6.262  11.556  0.0512 -0.0320 -0.0604
  142loPI    C3 2259   6.974   6.164  11.933 -0.1801  0.0376 -0.0981
  142loPI   PO4 2260   6.653   6.060  11.358 -0.2883  0.3274  0.1499
  142loPI   GL1 2261   6.542   6.123  10.954  0.1625 -0.0451  0.4057
  142loPI   GL2 2262   6.399   5.918  10.710  0.2547  0.3304  0.0733
  142loPI   C1A 2263   6.736   6.240  10.556  0.1026  0.2704 -0.2369
  142loPI   C2A 2264   6.846   6.243  10.148  0.0076  0.0678 -0.0464
  142loPI   C3A 2265   6.829   6.362   9.674 -0.1103 -0.4516  0.1415
  142loPI   C4A 2266   6.905   6.432   9.175  0.0535  0.1333  0.2479
  142loPI   C5A 2267   7.168   6.618   8.790 -0.2529 -0.0228  0.5514
  142loPI   C6A 2268   7.644   6.705   8.705  0.0064  0.0336 -0.1679
  142loPI   C1B 2269   6.341   6.031  10.278 -0.2135  0.2523  0.0811
  142loPI   C2B 2270   6.346   6.134   9.875 -0.3663 -0.1723  0.0637
  142loPI   C3B 2271   6.404   6.228   9.353 -0.2013  0.3035 -0.0057
  142loPI   C4B 2272   6.526   6.315   8.855 -0.1553 -0.0175  0.3009
  143loPI    C1 2273   5.049  17.095  11.212  0.3629  0.3910 -0.0245
  143loPI    C2 2274   4.997  17.082  11.609  0.1818  0.0108 -0.0562
  143loPI    C3 2275   5.366  17.061  11.454  0.2377 -0.0664  0.0858
  143loPI   PO4 2276   4.878  17.409  11.043  0.0366  0.0933 -0.1238
  143loPI   GL1 2277   4.724  17.566  10.655 -0.1144 -0.4233 -0.0811
  143loPI   GL2 2278   4.670  17.881  10.578 -0.1716  0.1183 -0.2887
  143loPI   C1A 2279   4.793  17.403  10.261  0.0583 -0.0653 -0.0288
  143loPI   C2A 2280   4.690  17.520   9.828 -0.1012 -0.0812  0.0917
  143loPI   C3A 2281   4.611  17.380   9.389  0.1207 -0.1277  0.0392
  143loPI   C4A 2282   4.589  17.053   9.198 -0.1444  0.0973  0.1431
  143loPI   C5A 2283   4.681  16.950   8.824  0.0171  0.0592  0.2277
  143loPI   C6A 2284   4.926  16.627   8.474 -0.1078  0.0228 -0.1760
  143loPI   C1B 2285   4.518  17.882  10.187  0.1992 -0.0621  0.6162
  143loPI   C2B 2286   4.485  17.957   9.742  0.2121 -0.1714 -0.1195
  143loPI   C3B 2287   4.616  17.972   9.293 -0.0282  0.3973 -0.5280
  143loPI   C4B 2288   4.740  17.859   8.877  0.0246 -0.3673  0.2901
  144loPI    C1 2289  14.671  13.099  11.624  0.1987 -0.0576  0.0507
  144loPI    C2 2290  14.730  12.834  11.918 -0.5211 -0.0568  0.2169
  144loPI    C3 2291  14.639  13.214  12.006 -0.1737  0.0866 -0.0187
  144loPI   PO4 2292  14.848  13.114  11.395  0.1944  0.4186  0.1539
  144loPI   GL1 2293  14.704  13.175  11.001 -0.4283 -0.1063 -0.0519
  144loPI   GL2 2294  14.553  12.889  10.885 -0.2417 -0.0482 -0.1891
  144loPI   C1A 2295  14.546  13.469  10.657  0.3335  0.0176 -0.0088
  144loPI   C2A 2296  14.577  13.413  10.217  0.2078 -0.1783  0.2883
  144loPI   C3A 2297  14.541  13.446   9.780  0.0967  0.1344  0.0378
  144loPI   C4A 2298  14.628  13.449   9.307  0.2534  0.1865  0.2492
  144loPI   C5A 2299  14.705  13.453   8.908  0.1718  0.0547  0.2689
  144loPI   C6A 2300  14.828  13.176   8.473 -0.3250 -0.3344  0.1090
  144loPI   C1B 2301  14.655  13.010  10.478  0.2395 -0.1215  0.2418
  144loPI   C2B 2302  14.682  12.980   9.965 -0.0980 -0.0223  0.1409
  144loPI   C3B 2303  14.685  12.981   9.572  0.1450 -0.2862  0.2853
  144loPI   C4B 2304  14.744  12.919   9.071  0.0500 -0.0563 -0.0270
  145loPI    C1 2305   5.498  12.898  11.100  0.1724 -0.3040 -0.4384
  145loPI    C2 2306   5.158  13.055  10.960  0.1723 -0.1357 -0.2542
  145loPI    C3 2307   5.145  12.754  11.223  0.1587  0.0442 -0.0455
  145loPI   PO4 2308   5.620  12.760  10.865  0.3756 -0.0400  0.1554
  145loPI   GL1 2309   5.455  12.977  10.493 -0.1131  0.0191  0.1392
  145loPI   GL2 2310   5.526  13.265  10.683  0.3813  0.3325 -0.0120
  145loPI   C1A 2311   5.422  13.040  10.035 -0.0483 -0.1343  0.1752
  145loPI   C2A 2312   5.527  13.266   9.688  0.0194 -0.3460  0.2601
  145loPI   C3A 2313   5.767  13.295   9.289 -0.1765 -0.0218  0.1836
  145loPI   C4A 2314   5.942  13.368   8.903  0.1501 -0.1384 -0.1007
  145loPI   C5A 2315   5.574  13.669   8.763  0.0256 -0.1194  0.3144
  145loPI   C6A 2316   5.202  13.921   8.732 -0.0779 -0.1920  0.0751
  145loPI   C1B 2317   5.603  13.478  10.224  0.0161 -0.1186 -0.1697
  145loPI   C2B 2318   5.751  13.736  10.023 -0.2103 -0.2086  0.0171
  145loPI   C3B 2319   5.745  13.699   9.598 -0.1894  0.1238  0.0635
  145loPI   C4B 2320   5.864  13.865   9.169 -0.0002  0.1651 -0.1210
  146loPI    C1 2321   5.913  12.032  10.993 -0.2615  0.0998  0.0661
  146loPI    C2 2322   5.642  11.783  10.836 -0.0704 -0.0682 -0.0026
  146loPI    C3 2323   5.635  11.866  11.227 -0.2081 -0.0870 -0.0008
  146loPI   PO4 2324   5.895  12.226  10.904  0.1373  0.0475 -0.2393
  146loPI   GL1 2325   5.760  12.416  10.501  0.0567  0.0764 -0.0974
  146loPI   GL2 2326   5.579  12.144  10.448  0.0692 -0.0735 -0.0782
  146loPI   C1A 2327   5.555  12.527  10.115 -0.0192 -0.1279  0.1307
  146loPI   C2A 2328   5.544  12.692   9.712 -0.0608 -0.1708  0.0692
  146loPI   C3A 2329   5.722  12.750   9.303 -0.2263 -0.1810  0.0903
  146loPI   C4A 2330   5.992  12.839   8.981  0.0822  0.0533  0.1687
  146loPI   C5A 2331   6.408  12.709   8.869 -0.0721 -0.0245  0.0142
  146loPI   C6A 2332   6.751  12.671   8.623 -0.0762 -0.0941  0.2658
  146loPI   C1B 2333   5.676  12.035   9.955 -0.1772  0.0206 -0.1052
  146loPI   C2B 2334   5.869  11.842   9.539 -0.1769 -0.1143 -0.0587
  146loPI   C3B 2335   5.802  11.578   9.435  0.0279  0.2266 -0.1537
  146loPI   C4B 2336   5.803  11.493   9.018  0.0041  0.2455  0.1228
  147loPI    C1 2337   3.869  10.710  11.025 -0.2187  0.1494  0.0330
  147loPI    C2 2338   3.708  10.974  11.278  0.0220  0.1341  0.2055
  147loPI    C3 2339   4.035  10.769  11.384 -0.1628 -0.2368  0.0753
  147loPI   PO4 2340   3.713  10.824  10.810  0.0284 -0.2770 -0.0209
  147loPI   GL1 2341   3.378  10.894  10.533 -0.2826 -0.1010  0.2111
  147loPI   GL2 2342   3.295  11.159  10.407 -0.0827 -0.4019 -0.2277
  147loPI   C1A 2343   3.596  10.613  10.233  0.1176  0.2703  0.1022
  147loPI   C2A 2344   3.812  10.548   9.863 -0.1460 -0.1388 -0.1170
  147loPI   C3A 2345   3.643  10.506   9.472 -0.2078 -0.3366  0.1384
  147loPI   C4A 2346   3.690  10.542   8.974 -0.2805 -0.0751 -0.1279
  147loPI   C5A 2347   3.747  10.524   8.622  0.2905  0.3273 -0.2050
  147loPI   C6A 2348   3.641  10.274   8.284 -0.0953  0.1524 -0.0410
  147loPI   C1B 2349   3.218  11.161   9.972 -0.0982 -0.0441 -0.3499
  147loPI   C2B 2350   2.876  10.989   9.783  0.1590  0.0268 -0.0314
  147loPI   C3B 2351   2.786  10.920   9.346  0.0545 -0.3267 -0.0232
  147loPI   C4B 2352   2.699  10.872   8.965  0.0120  0.0972 -0.3679
  148loPI    C1 2353  17.668   5.388  10.481 -0.0743  0.1960 -0.0357
  148loPI    C2 2354  17.658   5.478  10.871 -0.2382  0.0667 -0.0085
  148loPI    C3 2355  17.891   5.688  10.622  0.2632 -0.1740  0.2420
  148loPI   PO4 2356  17.447   5.408  10.366  0.3570  0.0130 -0.0287
  148loPI   GL1 2357  17.390   5.515   9.973  0.1477 -0.1093 -0.0884
  148loPI   GL2 2358  17.109   5.623   9.883  0.2272  0.2701  0.0952
  148loPI   C1A 2359  17.612   5.329   9.570  0.0104  0.3172  0.1594
  148loPI   C2A 2360  17.801   5.495   9.255 -0.0693 -0.0464  0.0243
  148loPI   C3A 2361  17.945   5.461   8.891 -0.0276  0.0787  0.3295
  148loPI   C4A 2362  17.951   5.337   8.459 -0.1006 -0.0633 -0.1977
  148loPI   C5A 2363  18.175   5.423   8.050 -0.0578  0.0943  0.0128
  148loPI   C6A 2364  18.578   5.261   7.659 -0.0159  0.0977  0.1048
  148loPI   C1B 2365  17.138   5.498   9.508  0.1524 -0.3928 -0.1616
  148loPI   C2B 2366  17.401   5.270   9.113  0.3166 -0.3839  0.0070
  148loPI   C3B 2367  17.511   5.329   8.742 -0.0148 -0.2421 -0.1941
  148loPI   C4B 2368  17.501   5.436   8.271  0.1825 -0.1382  0.0982
  149loPI    C1 2369   9.558   5.842  10.973 -0.1304  0.2578  0.0561
  149loPI    C2 2370   9.635   6.234  10.982 -0.0671  0.2429  0.1755
  149loPI    C3 2371   9.424   6.064  11.277 -0.1272  0.1939  0.1045
  149loPI   PO4 2372   9.458   5.832  10.711  0.0715  0.0573 -0.0430
  149loPI   GL1 2373   9.596   5.536  10.357 -0.1490  0.2159  0.0181
  149loPI   GL2 2374   9.913   5.654  10.335  0.0726 -0.0460 -0.1325
  149loPI   C1A 2375   9.295   5.648  10.102  0.2560 -0.0101  0.0301
  149loPI   C2A 2376   9.105   5.888   9.846 -0.2429 -0.0511 -0.1818
  149loPI   C3A 2377   8.968   5.989   9.360  0.4017  0.1189 -0.0377
  149loPI   C4A 2378   9.080   6.129   8.949 -0.0545 -0.0672 -0.0650
  149loPI   C5A 2379   9.328   6.092   8.611  0.0091 -0.1596 -0.0447
  149loPI   C6A 2380   9.637   6.164   8.463 -0.4149  0.0363 -0.1890
  149loPI   C1B 2381   9.724   5.825   9.920  0.1219  0.2550 -0.1975
  149loPI   C2B 2382   9.574   6.130   9.861  0.2059 -0.0953  0.0954
  149loPI   C3B 2383   9.673   6.463   9.573  0.0074 -0.2266 -0.0455
  149loPI   C4B 2384   9.640   6.861   9.338  0.1567 -0.2559  0.1350
  150loPI    C1 2385  14.753  14.302  11.081 -0.0671  0.0534  0.1141
  150loPI    C2 2386  14.850  14.003  11.329  0.2266  0.1459  0.1147
  150loPI    C3 2387  14.507  14.204  11.381  0.0560 -0.1488  0.1507
  150loPI   PO4 2388  15.021  14.327  10.968  0.0907 -0.3590 -0.0912
  150loPI   GL1 2389  15.047  14.477  10.520 -0.1219  0.0263 -0.0406
  150loPI   GL2 2390  14.805  14.302  10.528  0.1999  0.1963  0.1534
  150loPI   C1A 2391  15.209  14.702  10.227 -0.1136  0.0871 -0.2511
  150loPI   C2A 2392  15.271  14.661   9.828 -0.3897  0.0134  0.1385
  150loPI   C3A 2393  15.266  14.643   9.423  0.0357  0.1071  0.1993
  150loPI   C4A 2394  15.396  14.497   9.008  0.0750  0.0835 -0.0629
  150loPI   C5A 2395  15.367  14.431   8.595 -0.1594  0.1089 -0.0351
  150loPI   C6A 2396  15.051  14.341   8.334  0.0858 -0.1628 -0.2534
  150loPI   C1B 2397  14.834  14.327  10.106  0.2166 -0.1879  0.0421
  150loPI   C2B 2398  14.922  14.286   9.743  0.0380 -0.1978 -0.2834
  150loPI   C3B 2399  14.919  14.239   9.268  0.2138  0.3747  0.1590
  150loPI   C4B 2400  14.940  14.217   8.827  0.1880  0.0713  0.0797
  151loPI    C1 2401   5.556  10.787  11.318  0.0117 -0.0321 -0.1417
  151loPI    C2 2402   5.542  10.431  11.500 -0.0738  0.0814  0.0769
  151loPI    C3 2403   5.205  10.601  11.366 -0.0092 -0.0103 -0.2088
  151loPI   PO4 2404   5.759  10.850  11.195 -0.2285 -0.1268  0.1074
  151loPI   GL1 2405   5.723  10.831  10.706  0.0002  0.0102  0.0139
  151loPI   GL2 2406   6.063  10.668  10.591  0.2693 -0.2565  0.3124
  151loPI   C1A 2407   5.603  10.633  10.247  0.2102  0.3231 -0.1265
  151loPI   C2A 2408   5.577  10.688   9.841  0.0365 -0.2125 -0.1594
  151loPI   C3A 2409   5.553  10.780   9.437  0.2043  0.0915  0.0845
  151loPI   C4A 2410   5.571  10.873   9.097  0.1634  0.0606 -0.0750
  151loPI   C5A 2411   5.534  11.167   8.709  0.0602 -0.1765 -0.1133
  151loPI   C6A 2412   5.523  11.008   8.354 -0.1090 -0.0349  0.0709
  151loPI   C1B 2413   6.393  10.507  10.309  0.1875  0.0122 -0.3329
  151loPI   C2B 2414   6.463  10.475   9.901  0.0115  0.0627 -0.0230
  151loPI   C3B 2415   6.489  10.682   9.468  0.0411  0.0841  0.2627
  151loPI   C4B 2416   6.578  11.099   9.200 -0.1438 -0.1054  0.0689
  152loPI    C1 2417   7.065   6.843  11.314  0.0243 -0.0943  0.0356
  152loPI    C2 2418   6.836   7.072  11.550  0.2471  0.0536  0.1120
  152loPI    C3 2419   6.856   6.677  11.612 -0.2684 -0.0174 -0.1234
  152loPI   PO4 2420   7.057   6.936  11.015 -0.0350 -0.0748 -0.1407
  152loPI   GL1 2421   7.238   7.050  10.722  0.0827  0.0616  0.2767
  152loPI   GL2 2422   7.489   7.240  10.779 -0.1521 -0.1136  0.1734
  152loPI   C1A 2423   7.436   7.014  10.350 -0.0002 -0.1749 -0.1247
  152loPI   C2A 2424   7.396   6.963   9.867  0.2513 -0.0430 -0.0968
  152loPI   C3A 2425   7.423   7.041   9.381 -0.4344 -0.5010  0.1874
  152loPI   C4A 2426   7.397   7.085   8.951  0.2519  0.1264 -0.1333
  152loPI   C5A 2427   7.070   7.101   8.621 -0.1662  0.1679 -0.0880
  152loPI   C6A 2428   7.003   7.201   8.211 -0.1539 -0.1282  0.0289
  152loPI   C1B 2429   7.482   7.504  10.372  0.1599 -0.1587  0.1186
  152loPI   C2B 2430   7.472   7.530   9.969  0.0418 -0.0572  0.0444
  152loPI   C3B 2431   7.484   7.560   9.513 -0.0055 -0.3374  0.2640
  152loPI   C4B 2432   7.399   7.734   9.048 -0.0010 -0.1920 -0.3671
  153loPI    C1 2433  13.257   8.301  11.218  0.0303 -0.0183 -0.1165
  153loPI    C2 2434  12.945   8.436  11.428  0.1698  0.0217  0.0680
  153loPI    C3 2435  13.182   8.152  11.581  0.2298 -0.0019 -0.0669
  153loPI   PO4 2436  13.286   8.534  11.048 -0.0231 -0.0412  0.4207
  153loPI   GL1 2437  13.214   8.844  10.714  0.0112  0.1407 -0.1008
  153loPI   GL2 2438  13.095   9.145  10.723  0.0907  0.2434 -0.4236
  153loPI   C1A 2439  13.238   8.706  10.260  0.2247 -0.0939  0.5239
  153loPI   C2A 2440  13.258   8.710   9.899 -0.0391  0.1233 -0.0652
  153loPI   C3A 2441  13.286   8.598   9.530  0.0695 -0.0744  0.1219
  153loPI   C4A 2442  13.362   8.755   9.126 -0.2506 -0.0501 -0.0154
  153loPI   C5A 2443  13.590   8.728   8.672  0.2087  0.0374  0.0948
  153loPI   C6A 2444  13.943   8.825   8.399 -0.2229  0.2645  0.0261
  153loPI   C1B 2445  13.287   9.221  10.214  0.0795  0.3237  0.1878
  153loPI   C2B 2446  13.103   9.211   9.772 -0.0719  0.0301  0.1303
  153loPI   C3B 2447  13.206   9.301   9.315  0.1331  0.0978  0.1720
  153loPI   C4B 2448  13.252   9.222   8.971 -0.2127  0.0268  0.2364
  154loPI    C1 2449   9.634  11.308  11.064  0.0674 -0.0218 -0.1069
  154loPI    C2 2450   9.690  10.932  11.186  0.2224 -0.0285 -0.1966
  154loPI    C3 2451   9.964  11.211  11.268 -0.1229  0.1770  0.3084
  154loPI   PO4 2452   9.397  11.409  11.049 -0.1183 -0.0062  0.0136
  154loPI   GL1 2453   9.313  11.489  10.670  0.2797 -0.1004 -0.1439
  154loPI   GL2 2454   9.479  11.295  10.577 -0.0652 -0.0455 -0.2736
  154loPI   C1A 2455   8.964  11.514  10.365  0.1584 -0.0656 -0.1050
  154loPI   C2A 2456   8.925  11.495   9.971  0.0774 -0.1111  0.1283
  154loPI   C3A 2457   8.969  11.456   9.545  0.0772  0.1667 -0.2450
  154loPI   C4A 2458   9.031  11.434   9.037  0.1945 -0.0188 -0.3348
  154loPI   C5A 2459   9.178  11.117   8.694 -0.1357  0.0207  0.1928
  154loPI   C6A 2460   9.471  10.819   8.614 -0.3933  0.0972  0.0570
  154loPI   C1B 2461   9.395  11.410  10.123  0.0592 -0.3479  0.1986
  154loPI   C2B 2462   9.454  11.331   9.651 -0.1135 -0.0248  0.1317
  154loPI   C3B 2463   9.495  11.388   9.318  0.1965  0.0237  0.0542
  154loPI   C4B 2464   9.518  11.265   8.988 -0.0565 -0.4305  0.1540
  155loPI    C1 2465  15.392  15.116  11.270 -0.1708 -0.1064 -0.2844
  155loPI    C2 2466  15.541  14.813  11.484  0.1997  0.2085 -0.0861
  155loPI    C3 2467  15.238  14.748  11.231  0.0763 -0.2651  0.1710
  155loPI   PO4 2468  15.523  15.234  10.990 -0.1412  0.0115 -0.1270
  155loPI   GL1 2469  15.658  15.118  10.570 -0.1686 -0.1785 -0.0493
  155loPI   GL2 2470  15.963  15.298  10.503  0.3759 -0.0267  0.0028
  155loPI   C1A 2471  15.586  14.997  10.083 -0.0109  0.2467 -0.0424
  155loPI   C2A 2472  15.660  14.946   9.606  0.1703  0.0819  0.0695
  155loPI   C3A 2473  15.653  14.861   9.194  0.1347  0.0104 -0.1044
  155loPI   C4A 2474  15.524  14.938   8.825 -0.0212  0.1726 -0.3065
  155loPI   C5A 2475  15.432  15.036   8.367 -0.1133  0.0191  0.2747
  155loPI   C6A 2476  15.475  15.167   7.883  0.2172 -0.0810  0.0240
  155loPI   C1B 2477  16.191  15.433  10.164 -0.0266 -0.0418  0.0055
  155loPI   C2B 2478  16.079  15.347   9.638 -0.1135  0.1130 -0.1020
  155loPI   C3B 2479  15.978  15.195   9.248  0.1440 -0.0784 -0.1415
  155loPI   C4B 2480  15.898  15.206   8.772  0.0262  0.0182  0.0466
  156loPI    C1 2481   5.849   1.614  10.708 -0.0362  0.0197  0.1086
  156loPI    C2 2482   6.026   1.585  11.066 -0.2933  0.1338  0.2479
  156loPI    C3 2483   5.627   1.562  11.037 -0.2633 -0.0640 -0.0551
  156loPI   PO4 2484   6.054   1.815  10.615 -0.0232  0.1158  0.3927
  156loPI   GL1 2485   6.328   1.754  10.193  0.1187 -0.0048  0.2189
  156loPI   GL2 2486   6.622   1.779  10.299 -0.3260 -0.1161  0.0897
  156loPI   C1A 2487   6.166   1.716   9.900  0.0826  0.1118  0.1412
  156loPI   C2A 2488   6.240   1.708   9.509  0.1280  0.0069 -0.0444
  156loPI   C3A 2489   6.194   1.740   9.078 -0.4940  0.1944  0.0766
  156loPI   C4A 2490   6.247   1.759   8.656 -0.0042  0.1544  0.0323
  156loPI   C5A 2491   6.243   1.929   8.190 -0.2574 -0.1806  0.0761
  156loPI   C6A 2492   5.852   1.808   8.053 -0.2092  0.0809  0.2084
  156loPI   C1B 2493   6.611   1.823   9.823 -0.0701 -0.4072 -0.2157
  156loPI   C2B 2494   6.735   1.919   9.386 -0.0356  0.0511  0.2364
  156loPI   C3B 2495   6.706   1.908   8.954 -0.0691 -0.1537 -0.1168
  156loPI   C4B 2496   6.714   1.988   8.568  0.0168  0.1994  0.2174
  157loPI    C1 2497   9.975  10.617  11.481  0.1161  0.0201  0.1849
  157loPI    C2 2498   9.826  10.321  11.705 -0.1458  0.0553  0.0617
  157loPI    C3 2499  10.107  10.564  11.854  0.0258 -0.2142  0.1851
  157loPI   PO4 2500   9.979  10.514  11.251 -0.0956  0.3179 -0.1402
  157loPI   GL1 2501  10.027  10.600  10.870 -0.1795  0.1763  0.2232
  157loPI   GL2 2502  10.320  10.435  10.770 -0.1088 -0.3385  0.0638
  157loPI   C1A 2503  10.161  10.733  10.433 -0.1064  0.3462  0.1174
  157loPI   C2A 2504  10.473  10.944  10.224 -0.1506  0.0620 -0.1799
  157loPI   C3A 2505  10.557  10.955   9.875 -0.0120 -0.1289  0.0579
  157loPI   C4A 2506  10.604  11.054   9.442  0.2327  0.2005 -0.1744
  157loPI   C5A 2507  10.553  11.017   8.971 -0.0146 -0.0131 -0.0111
  157loPI   C6A 2508  10.457  10.531   8.794  0.0429  0.2089  0.2103
  157loPI   C1B 2509  10.666  10.665  10.620  0.0494 -0.1924  0.1575
  157loPI   C2B 2510  10.930  10.759  10.241  0.0343  0.0816 -0.3794
  157loPI   C3B 2511  11.023  10.909   9.843 -0.0827  0.0592  0.0453
  157loPI   C4B 2512  11.082  10.976   9.385 -0.1080 -0.1557 -0.4427
  158loPI    C1 2513  17.398   8.349  10.834  0.1195  0.1854  0.1217
  158loPI    C2 2514  17.725   8.285  10.613 -0.0757 -0.0031 -0.1182
  158loPI    C3 2515  17.662   8.644  10.778  0.2163  0.0542 -0.1266
  158loPI   PO4 2516  17.219   8.311  10.697 -0.3022  0.0479  0.0178
  158loPI   GL1 2517  17.223   8.314  10.298 -0.1216 -0.2488 -0.1309
  158loPI   GL2 2518  17.401   8.616  10.302  0.3078 -0.0404 -0.0266
  158loPI   C1A 2519  17.128   8.426   9.924  0.1813 -0.0175  0.0787
  158loPI   C2A 2520  17.056   8.348   9.512  0.0568  0.0292  0.0188
  158loPI   C3A 2521  17.120   8.376   9.092 -0.1591 -0.2153 -0.0449
  158loPI   C4A 2522  17.291   8.426   8.663  0.1229  0.0537  0.0676
  158loPI   C5A 2523  17.077   8.257   8.307 -0.0770 -0.0801  0.0450
  158loPI   C6A 2524  16.867   8.073   7.956  0.0286  0.0337 -0.2683
  158loPI   C1B 2525  17.541   8.709   9.820 -0.1009 -0.1350 -0.3223
  158loPI   C2B 2526  17.451   8.656   9.356  0.0318 -0.2009 -0.2042
  158loPI   C3B 2527  17.590   8.721   8.939 -0.0206 -0.1154  0.1157
  158loPI   C4B 2528  17.682   8.793   8.518 -0.1975  0.2434  0.1033
  159loPI    C1 2529  10.125   9.086  11.127 -0.2303  0.2001  0.1857
  159loPI    C2 2530  10.162   8.713  11.266  0.4487  0.0992 -0.2218
  159loPI    C3 2531  10.193   9.023  11.516 -0.0568 -0.1046  0.1094
  159loPI   PO4 2532  10.077   9.071  10.926 -0.1235  0.1108  0.2351
  159loPI   GL1 2533  10.102   9.026  10.522 -0.1634  0.2323 -0.1151
  159loPI   GL2 2534  10.327   8.880  10.258 -0.1925 -0.2101 -0.2078
  159loPI   C1A 2535   9.926   9.208  10.162  0.2523 -0.2540 -0.1219
  159loPI   C2A 2536   9.989   9.515   9.838  0.0287 -0.2194  0.3144
  159loPI   C3A 2537  10.356   9.576   9.693 -0.0073  0.0469 -0.4366
  159loPI   C4A 2538  10.531   9.541   9.281 -0.1925 -0.2194  0.1212
  159loPI   C5A 2539  10.772   9.432   9.023  0.2276 -0.1760 -0.0861
  159loPI   C6A 2540  11.119   9.708   8.793 -0.1333  0.0344 -0.2035
  159loPI   C1B 2541  10.213   9.030   9.835  0.2562  0.0065  0.1128
  159loPI   C2B 2542  10.102   9.126   9.466 -0.1227 -0.1308 -0.2551
  159loPI   C3B 2543  10.272   9.088   9.094  0.3160 -0.1006 -0.0953
  159loPI   C4B 2544  10.317   9.147   8.699  0.1498 -0.0554 -0.0093
  160loPI    C1 2545   3.967   2.926  10.807 -0.0983 -0.1921  0.1469
  160loPI    C2 2546   4.214   3.065  11.089 -0.1435 -0.1478  0.1650
  160loPI    C3 2547   3.862   3.244  11.027  0.0303  0.0853 -0.1830
  160loPI   PO4 2548   4.086   2.842  10.595  0.2530  0.2492 -0.1526
  160loPI   GL1 2549   4.237   2.973  10.291  0.0352 -0.5046  0.2020
  160loPI   GL2 2550   4.469   2.804  10.227 -0.1966 -0.0833  0.2215
  160loPI   C1A 2551   4.015   3.120   9.960 -0.0722  0.2855 -0.0473
  160loPI   C2A 2552   3.769   3.421   9.528 -0.1621 -0.3510  0.0404
  160loPI   C3A 2553   3.683   3.593   9.158  0.0224  0.2138  0.1395
  160loPI   C4A 2554   3.807   3.629   8.763 -0.1867  0.0137  0.1133
  160loPI   C5A 2555   3.844   3.783   8.391 -0.0317 -0.3168 -0.0562
  160loPI   C6A 2556   4.059   3.890   7.986  0.2564  0.3136  0.2583
  160loPI   C1B 2557   4.445   2.934   9.763 -0.0210 -0.0752  0.0363
  160loPI   C2B 2558   4.515   2.917   9.311 -0.0436 -0.2029  0.0519
  160loPI   C3B 2559   4.577   3.026   8.901 -0.1226  0.1561 -0.0334
  160loPI   C4B 2560   4.544   3.056   8.425 -0.0812  0.3194  0.0120
  161loPI    C1 2561  13.578   6.084  10.900 -0.2724  0.1363 -0.0647
  161loPI    C2 2562  13.361   5.774  11.030  0.0751  0.0014  0.2099
  161loPI    C3 2563  13.513   6.036  11.291  0.1291  0.1719  0.0108
  161loPI   PO4 2564  13.357   6.271  10.760  0.1564  0.1702  0.1725
  161loPI   GL1 2565  13.285   6.319  10.332  0.0468  0.1166 -0.1369
  161loPI   GL2 2566  13.650   6.135  10.344 -0.2364 -0.1290 -0.0801
  161loPI   C1A 2567  13.314   6.316   9.859 -0.1830 -0.1624  0.2184
  161loPI   C2A 2568  13.406   6.331   9.463  0.3543  0.0287 -0.3305
  161loPI   C3A 2569  13.275   6.459   9.053 -0.0046  0.2250 -0.1147
  161loPI   C4A 2570  13.254   6.537   8.523  0.1533  0.0594  0.1894
  161loPI   C5A 2571  13.455   6.662   8.109  0.0572  0.2099 -0.0799
  161loPI   C6A 2572  13.652   6.932   7.853 -0.0563 -0.1167  0.0902
  161loPI   C1B 2573  13.871   6.128   9.964 -0.3122  0.3695 -0.0139
  161loPI   C2B 2574  13.856   6.102   9.503 -0.1707 -0.4878  0.0238
  161loPI   C3B 2575  13.739   6.160   8.992 -0.0383  0.0489 -0.3313
  161loPI   C4B 2576  13.624   6.206   8.549  0.6379  0.0511  0.0904
  162loPI    C1 2577  15.542  17.667  11.103  0.0061  0.0256  0.2434
  162loPI    C2 2578  15.840  17.933  11.123  0.0410  0.0056  0.0155
  162loPI    C3 2579  15.770  17.689  11.431  0.1280  0.1509  0.1520
  162loPI   PO4 2580  15.582  17.532  10.855  0.1047 -0.0526  0.1768
  162loPI   GL1 2581  15.469  17.511  10.456 -0.0808 -0.0290  0.3848
  162loPI   GL2 2582  15.364  17.245  10.547  0.0026 -0.1776  0.0441
  162loPI   C1A 2583  15.620  17.573   9.989  0.0477 -0.0283  0.0804
  162loPI   C2A 2584  15.805  17.458   9.570  0.3668 -0.0304  0.0521
  162loPI   C3A 2585  15.682  17.366   9.180  0.1917  0.2519 -0.3873
  162loPI   C4A 2586  15.619  17.490   8.817  0.3265 -0.2084 -0.0139
  162loPI   C5A 2587  15.556  17.567   8.366 -0.0206 -0.0392 -0.0127
  162loPI   C6A 2588  15.808  17.317   8.127 -0.0169  0.0961  0.3207
  162loPI   C1B 2589  15.275  17.135  10.130 -0.0114 -0.0819  0.0906
  162loPI   C2B 2590  15.376  17.128   9.701  0.0206 -0.0940 -0.2426
  162loPI   C3B 2591  15.318  16.992   9.363 -0.0210 -0.0369 -0.0962
  162loPI   C4B 2592  15.306  16.998   8.945  0.0026  0.0751  0.0957
  163loPI    C1 2593  15.771   9.137  11.006  0.0006 -0.0291  0.0039
  163loPI    C2 2594  15.934   9.279  11.342  0.1492 -0.1338 -0.0227
  163loPI    C3 2595  15.868   8.886  11.302 -0.1581 -0.0881  0.0072
  163loPI   PO4 2596  15.811   9.376  10.899 -0.0041 -0.1632 -0.3595
  163loPI   GL1 2597  15.802   9.518  10.524 -0.0937 -0.1917  0.1185
  163loPI   GL2 2598  15.911   9.766  10.538  0.2561 -0.1239  0.1428
  163loPI   C1A 2599  15.531   9.392  10.169  0.0962  0.1855 -0.2551
  163loPI   C2A 2600  15.512   9.416   9.804 -0.0186  0.0272  0.2167
  163loPI   C3A 2601  15.614   9.292   9.389  0.3090 -0.0935 -0.0801
  163loPI   C4A 2602  15.608   9.364   8.901 -0.1436  0.0332 -0.2263
  163loPI   C5A 2603  15.815   9.208   8.608  0.0337  0.0018  0.0673
  163loPI   C6A 2604  16.258   9.129   8.550 -0.3116  0.4695  0.1152
  163loPI   C1B 2605  15.854   9.748   9.993  0.1642  0.1343  0.0458
  163loPI   C2B 2606  15.885   9.680   9.587  0.0169  0.1645  0.0906
  163loPI   C3B 2607  15.963   9.605   9.180  0.2967  0.0963  0.0321
  163loPI   C4B 2608  16.136   9.642   8.818 -0.1221 -0.3000  0.1750
  164loPI    C1 2609  11.207  15.678  11.142  0.1077  0.0181 -0.1337
  164loPI    C2 2610  11.224  15.963  11.422  0.0193  0.1582 -0.2695
  164loPI    C3 2611  11.217  15.578  11.530  0.0466  0.2089 -0.0818
  164loPI   PO4 2612  11.360  15.744  10.945  0.2335 -0.1479 -0.1070
  164loPI   GL1 2613  11.403  15.822  10.557  0.2203 -0.0442 -0.0883
  164loPI   GL2 2614  11.421  15.525  10.532  0.0965 -0.0302  0.1568
  164loPI   C1A 2615  11.313  15.946  10.134  0.1679 -0.0719  0.0290
  164loPI   C2A 2616  11.318  15.864   9.694  0.0213  0.1889  0.0345
  164loPI   C3A 2617  11.358  15.901   9.195  0.1401  0.4478  0.1235
  164loPI   C4A 2618  11.424  15.795   8.816 -0.1583  0.3038  0.1841
  164loPI   C5A 2619  11.442  15.496   8.467  0.1294 -0.1324  0.2000
  164loPI   C6A 2620  11.348  15.045   8.221 -0.2343 -0.1707  0.0688
  164loPI   C1B 2621  11.412  15.496  10.200 -0.1359 -0.1664 -0.2251
  164loPI   C2B 2622  11.440  15.335   9.803  0.0498 -0.2989  0.0810
  164loPI   C3B 2623  11.474  15.354   9.436 -0.0706  0.2337  0.1720
  164loPI   C4B 2624  11.450  15.385   9.062  0.0868 -0.4724  0.2034
  165loPI    C1 2625  16.739   7.915  11.356  0.1812  0.1739 -0.1075
  165loPI    C2 2626  16.420   8.107  11.501  0.0834 -0.2132  0.2072
  165loPI    C3 2627  16.762   8.102  11.709  0.1960 -0.0800  0.0281
  165loPI   PO4 2628  16.764   8.088  11.039 -0.2132 -0.2409  0.0157
  165loPI   GL1 2629  16.541   7.996  10.663  0.0156  0.0829  0.1168
  165loPI   GL2 2630  16.798   8.106  10.560 -0.2014  0.0405  0.3612
  165loPI   C1A 2631  16.292   8.056  10.330 -0.1259  0.2849  0.1221
  165loPI   C2A 2632  16.139   8.118   9.941  0.1042  0.1712  0.2295
  165loPI   C3A 2633  16.202   8.159   9.493  0.2108 -0.3429  0.0759
  165loPI   C4A 2634  16.233   8.138   9.068  0.0679 -0.1294  0.3330
  165loPI   C5A 2635  16.213   8.095   8.581  0.1332 -0.2200 -0.2064
  165loPI   C6A 2636  16.588   8.213   8.388  0.0472  0.1724 -0.0682
  165loPI   C1B 2637  16.814   8.078  10.151  0.0407  0.1269  0.0990
  165loPI   C2B 2638  16.629   8.008   9.759 -0.1437  0.0904 -0.1917
  165loPI   C3B 2639  16.657   8.022   9.329  0.1572  0.1421  0.0179
  165loPI   C4B 2640  16.700   7.979   8.911 -0.0573 -0.0850  0.0704
  166loPI    C1 2641   8.894  17.531  10.933  0.2042  0.0995  0.0488
  166loPI    C2 2642   8.669  17.697  11.219 -0.0706 -0.1178 -0.0363
  166loPI    C3 2643   8.981  17.467  11.319 -0.0955 -0.0989  0.0873
  166loPI   PO4 2644   8.781  17.495  10.753  0.2405 -0.1470  0.0366
  166loPI   GL1 2645   8.566  17.415  10.434 -0.1645  0.0143  0.2285
  166loPI   GL2 2646   8.561  17.065  10.456 -0.0437  0.0787  0.2536
  166loPI   C1A 2647   8.525  17.477  10.046  0.2505 -0.2091 -0.1960
  166loPI   C2A 2648   8.442  17.459   9.580 -0.1521 -0.3356  0.1087
  166loPI   C3A 2649   8.391  17.418   9.230  0.0629 -0.1944  0.2702
  166loPI   C4A 2650   8.357  17.465   8.875  0.0996  0.2211 -0.0424
  166loPI   C5A 2651   8.159  17.543   8.574 -0.3805 -0.0648 -0.0662
  166loPI   C6A 2652   7.986  17.261   8.397  0.0769  0.1204  0.1221
  166loPI   C1B 2653   8.562  16.984  10.023  0.1235  0.1419  0.0744
  166loPI   C2B 2654   8.442  16.981   9.610 -0.3194 -0.4512  0.0585
  166loPI   C3B 2655   8.447  16.925   9.141  0.2182 -0.1456 -0.3962
  166loPI   C4B 2656   8.386  16.991   8.725 -0.0125  0.1119 -0.0026
  167loPI    C1 2657   0.455  13.898  11.355 -0.2217  0.1679  0.0009
  167loPI    C2 2658   0.636  13.886  10.999 -0.1268  0.0989  0.0507
  167loPI    C3 2659   0.849  13.830  11.333 -0.2985 -0.3479  0.0923
  167loPI   PO4 2660   0.258  13.766  11.274  0.2649 -0.0256  0.1936
  167loPI   GL1 2661   0.238  13.812  10.754  0.0269  0.1383 -0.0410
  167loPI   GL2 2662  -0.015  13.613  10.817 -0.0684  0.1575  0.2033
  167loPI   C1A 2663   0.139  13.867  10.280 -0.0106 -0.0183 -0.3356
  167loPI   C2A 2664   0.060  13.924   9.860 -0.0633 -0.3122 -0.0392
  167loPI   C3A 2665   0.101  13.833   9.418 -0.0981  0.0672  0.1497
  167loPI   C4A 2666   0.033  13.826   8.994 -0.2278 -0.1357 -0.1413
  167loPI   C5A 2667   0.044  13.833   8.521  0.0355 -0.0238  0.0820
  167loPI   C6A 2668   0.318  13.974   8.324 -0.0541  0.1047  0.2281
  167loPI   C1B 2669   0.040  13.388  10.490 -0.0876 -0.1469 -0.0237
  167loPI   C2B 2670   0.020  13.421  10.147  0.0303 -0.0814 -0.1923
  167loPI   C3B 2671   0.155  13.294   9.763 -0.1345  0.3329 -0.2374
  167loPI   C4B 2672   0.116  13.321   9.374 -0.2606 -0.1494  0.1631
  168loPI    C1 2673  13.876   7.646  11.108  0.0315  0.0760  0.1154
  168loPI    C2 2674  13.648   7.449  11.371 -0.0436  0.0761  0.0510
  168loPI    C3 2675  13.955   7.671  11.499 -0.0115 -0.0134  0.1301
  168loPI   PO4 2676  13.733   7.601  10.854  0.1191  0.0001 -0.1333
  168loPI   GL1 2677  13.531   7.740  10.459  0.1270  0.0329 -0.1612
  168loPI   GL2 2678  13.829   7.865  10.385 -0.0391  0.0419  0.0021
  168loPI   C1A 2679  13.396   7.645  10.028  0.2818  0.1619 -0.2293
  168loPI   C2A 2680  13.477   7.661   9.656  0.0583  0.0397 -0.2770
  168loPI   C3A 2681  13.508   7.682   9.285 -0.1444 -0.2244  0.0808
  168loPI   C4A 2682  13.597   7.761   8.820 -0.1101  0.0788 -0.0979
  168loPI   C5A 2683  13.456   7.924   8.419  0.2431  0.1201  0.0043
  168loPI   C6A 2684  13.358   7.853   7.985 -0.1555 -0.1110 -0.0662
  168loPI   C1B 2685  13.813   7.926   9.910  0.0195  0.1045 -0.0333
  168loPI   C2B 2686  13.940   8.080   9.528 -0.0330 -0.2682 -0.1547
  168loPI   C3B 2687  13.967   8.118   9.136 -0.0366  0.0831 -0.0506
  168loPI   C4B 2688  14.147   7.970   8.714  0.1127 -0.0403  0.1002
  169loPI    C1 2689  10.172  16.674  11.340 -0.0793 -0.0468  0.1310
  169loPI    C2 2690  10.539  16.829  11.372 -0.0796 -0.0026 -0.0718
  169loPI    C3 2691  10.226  17.022  11.528 -0.0105 -0.0684  0.1516
  169loPI   PO4 2692  10.135  16.660  11.092 -0.1633 -0.1222  0.1154
  169loPI   GL1 2693  10.222  16.516  10.708 -0.1411 -0.0260 -0.0106
  169loPI   GL2 2694  10.007  16.388  10.652  0.0993 -0.2338  0.2072
  169loPI   C1A 2695  10.439  16.379  10.370  0.0799 -0.3419  0.2316
  169loPI   C2A 2696  10.458  16.167   9.964 -0.5364 -0.0501  0.1806
  169loPI   C3A 2697  10.408  16.218   9.480 -0.0053 -0.0774  0.0740
  169loPI   C4A 2698  10.385  16.242   9.135 -0.1150  0.1645  0.0065
  169loPI   C5A 2699  10.481  16.154   8.651 -0.0067 -0.0330 -0.0244
  169loPI   C6A 2700  10.635  16.056   8.294 -0.3964 -0.0778 -0.2216
  169loPI   C1B 2701  10.012  16.392  10.162  0.2865 -0.1785  0.0105
  169loPI   C2B 2702   9.945  16.373   9.728  0.1186  0.2010  0.0007
  169loPI   C3B 2703   9.876  16.427   9.342  0.1677 -0.0648  0.0090
  169loPI   C4B 2704   9.873  16.386   8.882  0.1672 -0.0685  0.0418
  170loPI    C1 2705  17.689  13.383  11.232  0.1955 -0.2467 -0.1636
  170loPI    C2 2706  17.573  13.160  11.544 -0.1209  0.1609  0.0204
  170loPI    C3 2707  17.942  13.314  11.534 -0.0672  0.0407  0.1307
  170loPI   PO4 2708  17.425  13.546  11.237 -0.2397  0.0183 -0.0525
  170loPI   GL1 2709  17.473  13.859  10.945 -0.2944  0.0484  0.0286
  170loPI   GL2 2710  17.179  13.734  10.828  0.0392 -0.0577  0.1695
  170loPI   C1A 2711  17.665  14.048  10.637  0.1872 -0.2623  0.1053
  170loPI   C2A 2712  17.593  14.112  10.192 -0.2253 -0.3039  0.0468
  170loPI   C3A 2713  17.418  14.047   9.791  0.1303  0.0496  0.1034
  170loPI   C4A 2714  17.380  13.976   9.379  0.3264  0.1059  0.1700
  170loPI   C5A 2715  17.253  13.955   8.921 -0.3440  0.0520 -0.1844
  170loPI   C6A 2716  16.950  13.739   8.708  0.1085 -0.0586 -0.1760
  170loPI   C1B 2717  17.399  13.677  10.450 -0.0380  0.1708  0.0345
  170loPI   C2B 2718  17.323  13.580  10.092 -0.1626  0.1619 -0.0944
  170loPI   C3B 2719  17.594  13.596   9.672  0.0897 -0.0249 -0.0008
  170loPI   C4B 2720  17.546  13.516   9.146  0.4336  0.2575  0.1082
  171loPI    C1 2721   1.743   3.001  10.566  0.1159 -0.0980  0.0364
  171loPI    C2 2722   2.050   3.112  10.797 -0.1025  0.1897  0.1948
  171loPI    C3 2723   1.887   2.750  10.842  0.2792 -0.0078  0.0350
  171loPI   PO4 2724   1.536   3.205  10.522  0.0760  0.0123  0.1000
  171loPI   GL1 2725   1.567   3.399  10.096 -0.1475 -0.3183 -0.0339
  171loPI   GL2 2726   1.846   3.552  10.299 -0.1854  0.1350  0.2014
  171loPI   C1A 2727   1.746   3.247   9.670 -0.0990  0.4345 -0.1421
  171loPI   C2A 2728   1.828   3.352   9.261  0.2936  0.0741  0.0450
  171loPI   C3A 2729   1.939   3.251   8.858  0.2046 -0.2633  0.4076
  171loPI   C4A 2730   1.953   3.129   8.390  0.1696  0.2448 -0.0735
  171loPI   C5A 2731   2.289   3.164   8.124 -0.0752 -0.0502 -0.1432
  171loPI   C6A 2732   2.672   3.089   7.927 -0.1191 -0.1741 -0.0039
  171loPI   C1B 2733   1.726   3.818   9.923  0.1763  0.0215 -0.2888
  171loPI   C2B 2734   1.793   3.836   9.542 -0.1695 -0.1273  0.1258
  171loPI   C3B 2735   1.985   3.879   9.189 -0.1631  0.0251 -0.2161
  171loPI   C4B 2736   1.917   3.701   8.752  0.2104 -0.1956  0.0988
  172loPI    C1 2737   9.221  16.036  11.303  0.0390  0.2022  0.0946
  172loPI    C2 2738   9.342  16.066  11.683 -0.0680 -0.0431  0.1499
  172loPI    C3 2739   9.216  15.714  11.540 -0.1795  0.0828 -0.0678
  172loPI   PO4 2740   9.427  16.156  11.150 -0.2967  0.0774 -0.1455
  172loPI   GL1 2741   9.504  16.208  10.785 -0.2295  0.2490  0.1029
  172loPI   GL2 2742   9.359  16.557  10.636 -0.2097  0.1448 -0.2314
  172loPI   C1A 2743   9.633  16.084  10.376 -0.1224 -0.1082  0.1921
  172loPI   C2A 2744   9.571  16.082   9.954  0.1063 -0.1592  0.1946
  172loPI   C3A 2745   9.557  16.077   9.552 -0.1021 -0.2004  0.0097
  172loPI   C4A 2746   9.539  16.064   9.096  0.3139 -0.0302  0.0489
  172loPI   C5A 2747   9.491  16.102   8.604 -0.2079 -0.0245  0.1973
  172loPI   C6A 2748   9.647  16.478   8.448 -0.0059 -0.2747 -0.2168
  172loPI   C1B 2749   9.535  16.580  10.159 -0.0039 -0.0830 -0.0898
  172loPI   C2B 2750   9.473  16.647   9.778 -0.2521  0.3174 -0.1343
  172loPI   C3B 2751   9.433  16.640   9.380 -0.0732  0.1340  0.2007
  172loPI   C4B 2752   9.441  16.596   8.901 -0.1336 -0.0386  0.0987
  173loPI    C1 2753   4.551   8.932  10.863 -0.1790  0.1151 -0.1738
  173loPI    C2 2754   4.607   8.563  10.719  0.0721  0.1410 -0.1484
  173loPI    C3 2755   4.477   8.614  11.094 -0.1327  0.0782 -0.2095
  173loPI   PO4 2756   4.413   9.028  10.690  0.2708  0.0015  0.1790
  173loPI   GL1 2757   4.289   8.914  10.292 -0.3015 -0.4354 -0.0323
  173loPI   GL2 2758   4.184   8.569  10.117  0.3453 -0.1068  0.1482
  173loPI   C1A 2759   4.371   9.152   9.945 -0.3170 -0.0672  0.1157
  173loPI   C2A 2760   4.420   9.288   9.465  0.3507  0.1514  0.3045
  173loPI   C3A 2761   4.475   9.253   8.948  0.1493 -0.2162 -0.2738
  173loPI   C4A 2762   4.586   9.120   8.483 -0.0959  0.0310  0.0047
  173loPI   C5A 2763   4.818   8.725   8.379  0.2385  0.0593 -0.2466
  173loPI   C6A 2764   4.758   8.423   8.180  0.2912 -0.0507 -0.0259
  173loPI   C1B 2765   4.274   8.644   9.736 -0.1606  0.2401  0.0725
  173loPI   C2B 2766   4.377   8.692   9.234  0.1349 -0.2554 -0.3329
  173loPI   C3B 2767   4.316   8.694   8.762 -0.0518  0.1538  0.4754
  173loPI   C4B 2768   4.314   8.702   8.276 -0.1829  0.1159 -0.0583
  174loPI    C1 2769  12.131   0.615  11.004 -0.0186  0.0177 -0.0884
  174loPI    C2 2770  11.827   0.373  11.101  0.0645  0.1105  0.4305
  174loPI    C3 2771  11.781   0.770  11.119  0.0343  0.1367 -0.0873
  174loPI   PO4 2772  12.223   0.596  10.757  0.0505  0.0665  0.0101
  174loPI   GL1 2773  12.246   0.675  10.333 -0.1826 -0.2062  0.1991
  174loPI   GL2 2774  12.215   0.322  10.283  0.2755  0.0127 -0.2671
  174loPI   C1A 2775  12.203   0.692   9.868  0.2895  0.5018 -0.0407
  174loPI   C2A 2776  12.273   0.926   9.451  0.1058  0.0805  0.2209
  174loPI   C3A 2777  12.387   0.859   8.986 -0.2245  0.1786 -0.2844
  174loPI   C4A 2778  12.247   0.635   8.610  0.4250  0.0283  0.0557
  174loPI   C5A 2779  11.858   0.487   8.424  0.1401 -0.0741  0.0896
  174loPI   C6A 2780  11.518   0.358   8.267 -0.0730  0.1165  0.0402
  174loPI   C1B 2781  12.374   0.112   9.966  0.1280  0.2830 -0.3046
  174loPI   C2B 2782  12.246   0.213   9.574  0.0093 -0.1617  0.0116
  174loPI   C3B 2783  12.089   0.497   9.341 -0.2159 -0.0323  0.1776
  174loPI   C4B 2784  11.902   0.791   9.001 -0.2162 -0.1706  0.4293
  175loPI    C1 2785  17.132   7.163  10.755  0.1500 -0.1263  0.0852
  175loPI    C2 2786  17.429   7.430  10.783 -0.1331  0.2364 -0.2461
  175loPI    C3 2787  17.399   7.135  11.052  0.1182  0.6062  0.2030
  175loPI   PO4 2788  17.092   7.107  10.558  0.0997 -0.1217 -0.2641
  175loPI   GL1 2789  16.764   7.135  10.335 -0.0579 -0.4842 -0.0511
  175loPI   GL2 2790  16.873   6.922  10.092 -0.0298  0.0982  0.0128
  175loPI   C1A 2791  16.765   7.564   9.951  0.2579 -0.2218 -0.0579
  175loPI   C2A 2792  16.774   7.547   9.518 -0.1594  0.0128  0.0866
  175loPI   C3A 2793  16.777   7.551   9.132 -0.2748  0.1680  0.0372
  175loPI   C4A 2794  16.843   7.487   8.821 -0.0101  0.0303  0.2163
  175loPI   C5A 2795  16.862   7.780   8.451 -0.0880 -0.1688  0.1536
  175loPI   C6A 2796  16.823   7.589   8.078  0.0427 -0.4114  0.0144
  175loPI   C1B 2797  16.937   7.096   9.685  0.0185 -0.0355  0.0444
  175loPI   C2B 2798  16.902   7.043   9.273 -0.1884 -0.0476 -0.2037
  175loPI   C3B 2799  16.913   6.990   8.867  0.0300  0.1257  0.2062
  175loPI   C4B 2800  16.931   7.259   8.388  0.0237 -0.1304 -0.1258
  176loPI    C1 2801   5.011   6.761  11.290 -0.1322  0.0583  0.0984
  176loPI    C2 2802   5.172   7.124  11.247 -0.2311  0.0921  0.0092
  176loPI    C3 2803   4.839   7.078  11.463  0.0238 -0.0125  0.3919
  176loPI   PO4 2804   5.059   6.657  11.005 -0.0065 -0.1147 -0.0091
  176loPI   GL1 2805   4.917   6.649  10.585  0.0383  0.3024  0.0549
  176loPI   GL2 2806   5.038   6.896  10.330 -0.2683  0.1805 -0.1100
  176loPI   C1A 2807   4.973   6.396  10.214 -0.0998  0.0152 -0.0120
  176loPI   C2A 2808   4.955   6.507   9.829  0.1437 -0.0901 -0.1387
  176loPI   C3A 2809   5.094   6.538   9.372 -0.0899  0.1146  0.0222
  176loPI   C4A 2810   5.167   6.575   8.927 -0.1876 -0.0177 -0.2514
  176loPI   C5A 2811   5.316   6.563   8.581  0.0835  0.0250  0.0272
  176loPI   C6A 2812   5.454   6.661   8.144 -0.2663 -0.0162 -0.0857
  176loPI   C1B 2813   5.030   6.962   9.886  0.0780 -0.0309  0.0270
  176loPI   C2B 2814   5.126   7.019   9.459  0.0531  0.1121 -0.1856
  176loPI   C3B 2815   5.144   7.111   9.086  0.0145 -0.0385 -0.0330
  176loPI   C4B 2816   4.962   6.960   8.673 -0.0567 -0.3101 -0.1303
  177loPI    C1 2817  13.955  15.549  11.303 -0.2095  0.1864  0.0087
  177loPI    C2 2818  14.137  15.244  11.487 -0.1623  0.1005 -0.1781
  177loPI    C3 2819  14.211  15.619  11.602 -0.0592  0.0528 -0.0870
  177loPI   PO4 2820  14.004  15.483  11.077 -0.0119 -0.0801  0.0192
  177loPI   GL1 2821  14.055  15.100  11.027 -0.3906  0.1183 -0.0527
  177loPI   GL2 2822  13.913  14.804  10.853  0.1974  0.1468  0.1216
  177loPI   C1A 2823  14.272  15.094  10.625  0.0084  0.1771 -0.0503
  177loPI   C2A 2824  14.281  14.987  10.136 -0.2417  0.2268  0.2886
  177loPI   C3A 2825  14.259  15.011   9.712  0.0622  0.1158  0.0090
  177loPI   C4A 2826  14.359  14.906   9.379 -0.1397  0.2691  0.2441
  177loPI   C5A 2827  14.289  14.921   8.972  0.1298  0.2258  0.0714
  177loPI   C6A 2828  14.349  14.609   8.579  0.2466 -0.0624 -0.1471
  177loPI   C1B 2829  13.886  14.568  10.470  0.3359 -0.2069  0.4428
  177loPI   C2B 2830  13.920  14.663   9.984 -0.1150 -0.1007 -0.1142
  177loPI   C3B 2831  13.898  14.582   9.509 -0.2046  0.0034  0.0225
  177loPI   C4B 2832  13.895  14.630   9.067  0.0000  0.0592 -0.3673
  178loPI    C1 2833  14.759   0.059  10.801  0.1872  0.0895  0.0961
  178loPI    C2 2834  14.675   0.335  11.077 -0.1429  0.0330  0.0572
  178loPI    C3 2835  14.849  -0.008  11.184 -0.0655  0.1036  0.1601
  178loPI   PO4 2836  14.585  -0.073  10.694 -0.2222  0.0290  0.0895
  178loPI   GL1 2837  14.311  -0.086  10.353  0.0060 -0.1117 -0.0314
  178loPI   GL2 2838  14.274  -0.356  10.284  0.2334 -0.0755 -0.1996
  178loPI   C1A 2839  14.594  -0.088  10.065  0.0836 -0.0435  0.5381
  178loPI   C2A 2840  14.687  -0.072   9.694 -0.1249 -0.0420  0.3341
  178loPI   C3A 2841  14.671  -0.226   9.156  0.1474 -0.1057  0.2664
  178loPI   C4A 2842  14.605  -0.203   8.720  0.1018 -0.0158  0.1178
  178loPI   C5A 2843  14.529  -0.113   8.301  0.2156  0.1391 -0.2667
  178loPI   C6A 2844  14.722  -0.124   7.919  0.0014  0.3161  0.0266
  178loPI   C1B 2845  14.333  -0.462   9.832  0.2065 -0.0905  0.0294
  178loPI   C2B 2846  14.280  -0.524   9.370  0.0359 -0.2308  0.1350
  178loPI   C3B 2847  14.325  -0.603   8.911 -0.1227  0.1143 -0.3595
  178loPI   C4B 2848  14.359  -0.538   8.389  0.1431  0.0632  0.0714
  179loPI    C1 2849  12.723   0.807  10.527  0.1269 -0.3300  0.0416
  179loPI    C2 2850  12.937   1.054  10.758  0.0778 -0.2941  0.0487
  179loPI    C3 2851  12.619   0.864  10.909 -0.0178 -0.1885 -0.0179
  179loPI   PO4 2852  12.702   0.981  10.273  0.0052 -0.0080 -0.3590
  179loPI   GL1 2853  12.622   0.989   9.934 -0.1075 -0.0993 -0.3002
  179loPI   GL2 2854  12.908   0.937   9.724  0.1423 -0.0571 -0.1443
  179loPI   C1A 2855  12.492   1.340   9.645  0.0230 -0.0584 -0.1727
  179loPI   C2A 2856  12.578   1.534   9.262 -0.2010 -0.0490 -0.0252
  179loPI   C3A 2857  12.635   1.539   8.798  0.0120 -0.1098  0.1153
  179loPI   C4A 2858  12.652   1.390   8.396 -0.0141  0.0507 -0.0545
  179loPI   C5A 2859  12.920   1.192   8.090  0.1066  0.0587  0.1488
  179loPI   C6A 2860  13.243   0.873   8.203 -0.4686 -0.1137 -0.0360
  179loPI   C1B 2861  12.761   1.014   9.340  0.1665 -0.2743 -0.1506
  179loPI   C2B 2862  12.908   1.212   9.023 -0.0658  0.0177 -0.2242
  179loPI   C3B 2863  13.203   1.429   8.805  0.0307 -0.0248 -0.0516
  179loPI   C4B 2864  13.196   1.529   8.367  0.0912 -0.0135  0.2932
  180loPI    C1 2865  12.070  12.685  11.514 -0.0330  0.0583  0.0588
  180loPI    C2 2866  12.126  12.307  11.631 -0.2143  0.0033 -0.0276
  180loPI    C3 2867  11.996  12.580  11.893 -0.4594 -0.0822 -0.0577
  180loPI   PO4 2868  11.980  12.627  11.281 -0.1034  0.1048 -0.2010
  180loPI   GL1 2869  11.998  12.643  10.879  0.2662  0.2129 -0.0392
  180loPI   GL2 2870  12.126  12.384  10.703  0.0855 -0.1071 -0.1263
  180loPI   C1A 2871  11.953  12.828  10.497 -0.0760 -0.1975 -0.1372
  180loPI   C2A 2872  12.006  12.881  10.028  0.0616  0.2463  0.3618
  180loPI   C3A 2873  11.983  12.886   9.628  0.0462  0.1046 -0.1606
  180loPI   C4A 2874  11.971  12.969   9.235  0.3453  0.1076 -0.0022
  180loPI   C5A 2875  12.072  12.904   8.863  0.0133 -0.0251  0.0108
  180loPI   C6A 2876  12.334  12.705   8.573  0.0853 -0.0048  0.0088
  180loPI   C1B 2877  12.073  12.322  10.339 -0.1152  0.0475 -0.2537
  180loPI   C2B 2878  12.123  12.360   9.830 -0.0616  0.1316 -0.0758
  180loPI   C3B 2879  12.036  12.416   9.436 -0.0432 -0.0448  0.2102
  180loPI   C4B 2880  12.195  12.455   9.000 -0.4054 -0.0694 -0.5195
  181loPI    C1 2881  11.120   0.596  10.790 -0.0609 -0.1103 -0.1234
  181loPI    C2 2882  11.338   0.359  11.028  0.0644 -0.0498 -0.1771
  181loPI    C3 2883  11.227   0.722  11.155 -0.0924 -0.1200 -0.1107
  181loPI   PO4 2884  11.228   0.549  10.481  0.0242  0.0579 -0.0219
  181loPI   GL1 2885  10.898   0.587  10.166 -0.1283 -0.0652  0.2149
  181loPI   GL2 2886  11.009   0.223  10.153  0.0447 -0.1078 -0.1337
  181loPI   C1A 2887  10.698   0.817   9.815  0.0093  0.2795 -0.1006
  181loPI   C2A 2888  10.500   1.137   9.634  0.3624  0.2316  0.1561
  181loPI   C3A 2889  10.207   1.186   9.346  0.0944 -0.2407  0.0728
  181loPI   C4A 2890  10.242   1.346   8.879 -0.2221  0.1004  0.1982
  181loPI   C5A 2891  10.332   1.052   8.396  0.1577  0.2104 -0.0907
  181loPI   C6A 2892  10.391   1.020   7.927 -0.3796  0.1981 -0.2395
  181loPI   C1B 2893  11.298   0.415   9.907 -0.2393 -0.0943 -0.1846
  181loPI   C2B 2894  11.310   0.811   9.769 -0.1079 -0.1424 -0.0831
  181loPI   C3B 2895  11.012   0.969   9.471 -0.1621 -0.3970 -0.1241
  181loPI   C4B 2896  10.796   1.176   9.191  0.0108 -0.2381  0.2908
  182loPI    C1 2897   8.868  14.767  11.413 -0.0123  0.2828 -0.1149
  182loPI    C2 2898   9.217  14.862  11.584  0.0613  0.0600 -0.1387
  182loPI    C3 2899   8.874  14.924  11.781  0.1359 -0.0472  0.0266
  182loPI   PO4 2900   8.777  14.840  11.208  0.2370 -0.3277 -0.1399
  182loPI   GL1 2901   8.884  14.877  10.873  0.1834  0.0106 -0.0793
  182loPI   GL2 2902   8.737  14.995  10.669 -0.1693 -0.1728 -0.1082
  182loPI   C1A 2903   9.182  14.489  10.644 -0.2764  0.0938 -0.1159
  182loPI   C2A 2904   9.443  14.273  10.354  0.0056  0.1469 -0.4407
  182loPI   C3A 2905   9.423  14.289   9.937 -0.1952 -0.0982  0.2379
  182loPI   C4A 2906   9.444  14.197   9.515 -0.0573 -0.5104  0.1380
  182loPI   C5A 2907   9.457  14.176   8.963  0.0886 -0.0018 -0.2772
  182loPI   C6A 2908   9.356  14.238   8.581  0.0594 -0.1469  0.0262
  182loPI   C1B 2909   8.756  14.987  10.187 -0.0840  0.0186  0.2594
  182loPI   C2B 2910   8.916  14.930   9.786 -0.2206 -0.0965  0.2763
  182loPI   C3B 2911   8.863  14.875   9.392 -0.2030  0.0055 -0.0961
  182loPI   C4B 2912   8.917  14.855   8.942 -0.0810 -0.2870 -0.0970
  183loPI    C1 2913  14.620   4.189  10.845  0.0995  0.0090  0.0054
  183loPI    C2 2914  14.684   4.580  10.790  0.0089  0.0488  0.1776
  183loPI    C3 2915  14.831   4.396  11.114 -0.1603 -0.0056  0.2248
  183loPI   PO4 2916  14.544   4.141  10.562  0.2480 -0.1632 -0.1356
  183loPI   GL1 2917  14.339   4.289  10.219  0.2022 -0.0763 -0.0841
  183loPI   GL2 2918  14.577   4.069  10.092  0.1364  0.0945 -0.1744
  183loPI   C1A 2919  14.148   4.562   9.855  0.0670  0.2230  0.3396
  183loPI   C2A 2920  14.186   4.442   9.406  0.1391 -0.2182  0.0240
  183loPI   C3A 2921  14.110   4.420   8.981 -0.4850  0.0325  0.0676
  183loPI   C4A 2922  14.183   4.433   8.552  0.1092  0.0831  0.0641
  183loPI   C5A 2923  14.481   4.488   8.160  0.0351 -0.0757  0.1569
  183loPI   C6A 2924  14.569   4.827   7.851  0.1161  0.0292  0.0918
  183loPI   C1B 2925  14.660   4.134   9.737 -0.0781  0.0135 -0.0485
  183loPI   C2B 2926  14.696   4.311   9.360 -0.0909 -0.0415  0.1617
  183loPI   C3B 2927  14.641   4.300   8.951 -0.0317 -0.1514  0.3229
  183loPI   C4B 2928  14.717   4.137   8.492 -0.3412  0.1951 -0.0088
  184loPI    C1 2929   2.706  13.778  11.143  0.0582 -0.1881  0.0660
  184loPI    C2 2930   2.504  14.022  11.387  0.1817 -0.0041 -0.0128
  184loPI    C3 2931   2.690  13.701  11.535  0.0032 -0.0620  0.0893
  184loPI   PO4 2932   2.548  13.762  10.865 -0.0981 -0.1008 -0.0265
  184loPI   GL1 2933   2.544  14.091  10.492  0.1951  0.3471  0.0567
  184loPI   GL2 2934   2.801  13.828  10.450  0.0085  0.3107 -0.1711
  184loPI   C1A 2935   2.288  13.953  10.116  0.2103  0.0893 -0.1600
  184loPI   C2A 2936   2.383  13.946   9.769  0.1447  0.0686 -0.0405
  184loPI   C3A 2937   2.420  13.989   9.333 -0.0275 -0.2501  0.0853
  184loPI   C4A 2938   2.434  13.903   8.861  0.2316  0.0841  0.1679
  184loPI   C5A 2939   2.167  13.979   8.546 -0.0317 -0.1505 -0.3060
  184loPI   C6A 2940   1.716  14.103   8.565 -0.2973 -0.1703 -0.0153
  184loPI   C1B 2941   2.858  13.781   9.926  0.2049 -0.0961 -0.1153
  184loPI   C2B 2942   2.817  13.799   9.562 -0.3113 -0.4006 -0.1546
  184loPI   C3B 2943   2.868  14.030   9.117  0.1067 -0.0237  0.1530
  184loPI   C4B 2944   2.944  13.932   8.710 -0.0998  0.1486 -0.1476
  185loPI    C1 2945   3.765  12.177  11.152 -0.0540  0.0144 -0.0354
  185loPI    C2 2946   4.051  12.219  11.429  0.0523 -0.0091 -0.1406
  185loPI    C3 2947   3.744  11.971  11.494  0.0939 -0.0393 -0.0580
  185loPI   PO4 2948   3.949  12.174  10.908 -0.3511 -0.1321 -0.1944
  185loPI   GL1 2949   3.876  12.266  10.425 -0.2616 -0.0984 -0.0649
  185loPI   GL2 2950   3.689  11.981  10.409  0.2259 -0.0213  0.0671
  185loPI   C1A 2951   3.877  12.344   9.898 -0.0837  0.1892  0.2316
  185loPI   C2A 2952   3.897  12.296   9.463 -0.0909  0.0122  0.0117
  185loPI   C3A 2953   4.022  12.210   9.066 -0.1077  0.2008  0.0292
  185loPI   C4A 2954   3.961  11.912   8.769  0.1561  0.0785  0.1944
  185loPI   C5A 2955   3.905  11.969   8.349  0.3326 -0.2590  0.2484
  185loPI   C6A 2956   4.018  11.968   7.891  0.0899 -0.0308 -0.0306
  185loPI   C1B 2957   3.563  12.020   9.968 -0.1344 -0.1690 -0.1054
  185loPI   C2B 2958   3.473  11.989   9.523 -0.0004 -0.0223 -0.0075
  185loPI   C3B 2959   3.518  12.104   9.135 -0.2623  0.1776  0.1401
  185loPI   C4B 2960   3.503  12.167   8.671  0.0660 -0.3951 -0.3906
  186loPI    C1 2961  15.255  16.743  10.822 -0.1284  0.0425 -0.1499
  186loPI    C2 2962  15.365  17.042  11.064 -0.0608 -0.0243 -0.0975
  186loPI    C3 2963  14.998  16.886  11.093 -0.0400 -0.0576 -0.0118
  186loPI   PO4 2964  15.565  16.558  10.767  0.2023 -0.2718 -0.2160
  186loPI   GL1 2965  15.799  16.376  10.486  0.4952  0.2544 -0.2033
  186loPI   GL2 2966  15.851  16.665  10.371  0.1984  0.0411 -0.1988
  186loPI   C1A 2967  15.933  16.061  10.268 -0.1767  0.3026  0.0338
  186loPI   C2A 2968  15.988  15.922   9.885  0.0949  0.4344  0.1260
  186loPI   C3A 2969  15.999  15.840   9.457 -0.0212 -0.0105  0.4923
  186loPI   C4A 2970  15.863  15.768   9.095  0.3673  0.0854 -0.1306
  186loPI   C5A 2971  15.910  15.698   8.624 -0.0997 -0.1465  0.0471
  186loPI   C6A 2972  16.092  15.686   8.177  0.3832  0.0812  0.0119
  186loPI   C1B 2973  15.809  16.426   9.901  0.2078  0.0572  0.1463
  186loPI   C2B 2974  15.886  16.333   9.558 -0.1515  0.0057  0.0506
  186loPI   C3B 2975  15.935  16.292   9.122  0.1302 -0.0307 -0.0887
  186loPI   C4B 2976  15.922  16.331   8.843 -0.0042  0.1328 -0.0507
  187loPI    C1 2977   8.392  15.620  11.292 -0.4151 -0.1467  0.0697
  187loPI    C2 2978   8.282  15.998  11.363 -0.2559 -0.0952  0.0452
  187loPI    C3 2979   8.320  15.740  11.666 -0.0221  0.0029  0.1021
  187loPI   PO4 2980   8.265  15.577  11.059  0.2139 -0.2440 -0.0686
  187loPI   GL1 2981   8.158  15.549  10.707  0.1669 -0.2726  0.0298
  187loPI   GL2 2982   8.145  15.196  10.638 -0.1369 -0.1821 -0.1101
  187loPI   C1A 2983   8.287  15.726  10.286 -0.0225 -0.0425  0.0692
  187loPI   C2A 2984   8.332  15.667   9.869 -0.0852  0.1632 -0.0490
  187loPI   C3A 2985   8.232  15.620   9.443 -0.2300 -0.0796  0.0291
  187loPI   C4A 2986   8.267  15.665   9.011  0.2556 -0.0420  0.1105
  187loPI   C5A 2987   8.270  15.568   8.599  0.1377  0.1874  0.0258
  187loPI   C6A 2988   8.069  15.530   8.181 -0.0317  0.0594  0.2170
  187loPI   C1B 2989   8.303  15.201  10.244 -0.0669  0.0517  0.0173
  187loPI   C2B 2990   8.297  15.173   9.795  0.0265  0.3853  0.0993
  187loPI   C3B 2991   8.421  15.169   9.448 -0.1019  0.2515  0.1404
  187loPI   C4B 2992   8.411  15.098   9.005  0.0104 -0.1311  0.0925
  188loPI    C1 2993   0.701  14.386  11.516  0.2191 -0.0634 -0.2743
  188loPI    C2 2994   0.802  14.772  11.535 -0.1275  0.0215 -0.0570
  188loPI    C3 2995   0.771  14.558  11.871 -0.3542 -0.0826 -0.1425
  188loPI   PO4 2996   0.682  14.331  11.289  0.2920  0.1046  0.3158
  188loPI   GL1 2997   0.642  14.355  10.833 -0.1731 -0.3101  0.2324
  188loPI   GL2 2998   0.435  14.573  10.733 -0.3570 -0.1640  0.0794
  188loPI   C1A 2999   0.731  14.062  10.548  0.1189 -0.0096 -0.1564
  188loPI   C2A 3000   0.831  14.009  10.159 -0.1601  0.3453 -0.0240
  188loPI   C3A 3001   1.016  14.024   9.747 -0.1173 -0.0689  0.0030
  188loPI   C4A 3002   0.879  14.024   9.355 -0.1532 -0.1672 -0.1678
  188loPI   C5A 3003   0.902  14.009   8.952 -0.0726 -0.2761 -0.1006
  188loPI   C6A 3004   0.804  13.856   8.544 -0.2952  0.2065 -0.0682
  188loPI   C1B 3005   0.616  14.613  10.398  0.0048  0.0112  0.2515
  188loPI   C2B 3006   0.841  14.563   9.977  0.1519  0.2567 -0.2728
  188loPI   C3B 3007   0.724  14.501   9.517 -0.0397 -0.2212 -0.1342
  188loPI   C4B 3008   0.728  14.457   8.999  0.2159  0.0003 -0.0903
  189loPI    C1 3009   9.614   3.316  10.772  0.1587 -0.0357 -0.0728
  189loPI    C2 3010   9.391   3.553  10.539  0.0044 -0.2969 -0.1958
  189loPI    C3 3011   9.260   3.449  10.902  0.1802 -0.0055 -0.0452
  189loPI   PO4 3012   9.806   3.425  10.810  0.1522  0.1907 -0.3085
  189loPI   GL1 3013   9.923   3.580  10.485 -0.0731  0.0010 -0.2457
  189loPI   GL2 3014   9.785   3.822  10.323  0.0977  0.0863 -0.1492
  189loPI   C1A 3015   9.617   3.423  10.032 -0.0527  0.1017 -0.1421
  189loPI   C2A 3016   9.535   3.524   9.685 -0.0252 -0.0021 -0.3539
  189loPI   C3A 3017   9.608   3.617   9.339 -0.2918 -0.0187  0.2140
  189loPI   C4A 3018   9.650   3.879   9.033  0.0753  0.0281 -0.1730
  189loPI   C5A 3019   9.632   3.935   8.544 -0.3714 -0.3244 -0.0391
  189loPI   C6A 3020   9.717   4.106   8.118 -0.1421 -0.1923 -0.0090
  189loPI   C1B 3021   9.724   3.914   9.922 -0.1038 -0.0541  0.0374
  189loPI   C2B 3022   9.727   4.081   9.507 -0.0846 -0.3622  0.0994
  189loPI   C3B 3023   9.769   4.309   9.166  0.2519 -0.3744  0.1710
  189loPI   C4B 3024   9.960   4.594   8.847  0.2091 -0.0414 -0.3037
  190loPI    C1 3025   7.436   4.700  11.130 -0.2220 -0.0766  0.1390
  190loPI    C2 3026   7.831   4.673  11.184 -0.1514 -0.0394 -0.3213
  190loPI    C3 3027   7.614   4.914  11.418  0.0993 -0.0416 -0.0809
  190loPI   PO4 3028   7.349   4.731  10.900  0.4069 -0.1862 -0.0109
  190loPI   GL1 3029   7.128   5.073  10.632 -0.0612 -0.0635  0.0599
  190loPI   GL2 3030   7.370   5.314  10.646 -0.2696  0.1948  0.0811
  190loPI   C1A 3031   7.164   4.892  10.269  0.0518  0.0843  0.2152
  190loPI   C2A 3032   7.168   5.065   9.899 -0.1059 -0.0725  0.1755
  190loPI   C3A 3033   7.051   4.973   9.522 -0.0418 -0.0478 -0.1317
  190loPI   C4A 3034   7.135   5.043   9.087 -0.1826  0.2570 -0.3031
  190loPI   C5A 3035   7.073   5.249   8.624  0.0064  0.1089 -0.2065
  190loPI   C6A 3036   7.156   5.673   8.405  0.1983 -0.0988 -0.1935
  190loPI   C1B 3037   7.156   5.451  10.257  0.1429 -0.1711  0.0377
  190loPI   C2B 3038   7.206   5.534   9.747  0.2266 -0.0194 -0.0940
  190loPI   C3B 3039   7.186   5.563   9.302 -0.0165 -0.2039 -0.1231
  190loPI   C4B 3040   7.175   5.721   8.878  0.0983 -0.4365  0.1322
  191loPI    C1 3041   7.322  16.677  11.114  0.1460 -0.5130  0.0776
  191loPI    C2 3042   7.293  16.891  11.450 -0.2056  0.0847 -0.3152
  191loPI    C3 3043   7.265  16.492  11.464 -0.2697  0.1011  0.3501
  191loPI   PO4 3044   7.201  16.943  10.911  0.2928  0.0586  0.1731
  191loPI   GL1 3045   7.286  17.038  10.449  0.2223 -0.2127  0.1369
  191loPI   GL2 3046   7.549  17.208  10.525 -0.0941 -0.0140 -0.0316
  191loPI   C1A 3047   7.343  17.080  10.005 -0.1712  0.1307  0.2037
  191loPI   C2A 3048   7.143  17.119   9.585 -0.3985 -0.0243 -0.0941
  191loPI   C3A 3049   7.061  17.266   9.174  0.0445 -0.0540 -0.0393
  191loPI   C4A 3050   6.761  17.358   8.826 -0.2681  0.2729  0.0931
  191loPI   C5A 3051   6.634  17.348   8.528  0.4894 -0.0098  0.1779
  191loPI   C6A 3052   6.371  17.623   8.346 -0.0342  0.0072  0.3041
  191loPI   C1B 3053   7.672  17.465  10.145  0.1782 -0.1097  0.0678
  191loPI   C2B 3054   7.558  17.449   9.727  0.1774  0.1475 -0.1835
  191loPI   C3B 3055   7.516  17.452   9.265 -0.2522  0.1619 -0.0291
  191loPI   C4B 3056   7.298  17.566   8.812 -0.1880 -0.0860  0.2600
  192loPI    C1 3057   2.130   5.253  11.227 -0.0395  0.0568  0.1142
  192loPI    C2 3058   2.288   4.905  11.345 -0.2701 -0.0672  0.0623
  192loPI    C3 3059   1.916   4.916  11.196 -0.2039  0.1774 -0.0896
  192loPI   PO4 3060   2.367   5.323  10.989  0.1839  0.1044 -0.0244
  192loPI   GL1 3061   2.297   5.437  10.491  0.1875  0.1061 -0.1007
  192loPI   GL2 3062   1.989   5.504  10.481  0.1207 -0.2669 -0.1892
  192loPI   C1A 3063   2.542   5.472  10.170  0.0159 -0.2431  0.0151
  192loPI   C2A 3064   2.706   5.498   9.742 -0.0815 -0.1280  0.0934
  192loPI   C3A 3065   2.718   5.539   9.268 -0.2195  0.0711  0.0399
  192loPI   C4A 3066   2.622   5.547   8.909  0.1869  0.0332 -0.1564
  192loPI   C5A 3067   2.603   5.574   8.563  0.0073  0.2038  0.0846
  192loPI   C6A 3068   2.434   5.739   8.193  0.0072  0.0281  0.0194
  192loPI   C1B 3069   2.072   5.370  10.062  0.1727  0.3362  0.0306
  192loPI   C2B 3070   2.173   5.254   9.682  0.3391 -0.1098  0.0388
  192loPI   C3B 3071   2.210   5.338   9.197  0.1355 -0.2044 -0.3059
  192loPI   C4B 3072   2.157   5.286   8.768 -0.0881 -0.1426 -0.1362
  193loPI    C1 3073   7.729   4.236  11.106  0.1833 -0.0261 -0.0907
  193loPI    C2 3074   7.925   3.888  11.095 -0.0317 -0.1501 -0.0646
  193loPI    C3 3075   7.739   4.002  11.431 -0.1501 -0.1164 -0.1410
  193loPI   PO4 3076   7.576   4.252  10.925  0.0294  0.4670 -0.0917
  193loPI   GL1 3077   7.494   4.450  10.411 -0.0760 -0.1014 -0.2890
  193loPI   GL2 3078   7.599   4.091  10.468  0.2692 -0.0794  0.3671
  193loPI   C1A 3079   7.498   4.607   9.973  0.2143  0.3531 -0.2283
  193loPI   C2A 3080   7.587   4.640   9.540 -0.4092  0.1767 -0.0464
  193loPI   C3A 3081   7.466   4.637   9.204  0.0511  0.2843  0.0498
  193loPI   C4A 3082   7.556   4.869   8.838 -0.0658 -0.0384  0.1227
  193loPI   C5A 3083   7.589   5.211   8.546 -0.0094  0.1611 -0.2167
  193loPI   C6A 3084   7.708   5.664   8.622  0.1800 -0.0327  0.1190
  193loPI   C1B 3085   7.422   4.062  10.070 -0.1970  0.1608  0.2225
  193loPI   C2B 3086   7.438   4.193   9.667  0.2204  0.0929  0.0176
  193loPI   C3B 3087   7.440   4.130   9.302  0.1238  0.0860 -0.0002
  193loPI   C4B 3088   7.438   4.206   8.929  0.0321  0.1512  0.1619
  194loPI    C1 3089   9.777  14.636  11.491 -0.2013 -0.0233  0.0909
  194loPI    C2 3090   9.563  14.590  11.826  0.0382 -0.1404  0.2309
  194loPI    C3 3091   9.780  14.285  11.684  0.1001 -0.0284  0.0822
  194loPI   PO4 3092   9.656  14.853  11.304  0.0674 -0.0929  0.1183
  194loPI   GL1 3093   9.612  15.146  10.801  0.1920 -0.1096  0.1500
  194loPI   GL2 3094   9.501  14.841  10.735 -0.0205 -0.0106 -0.2242
  194loPI   C1A 3095   9.627  15.080  10.299 -0.2841  0.0164 -0.2302
  194loPI   C2A 3096   9.776  15.052   9.903  0.0990 -0.3401  0.2960
  194loPI   C3A 3097   9.689  15.032   9.426 -0.4026 -0.0449 -0.4088
  194loPI   C4A 3098   9.772  15.078   9.034  0.3300  0.1082 -0.1518
  194loPI   C5A 3099   9.582  15.004   8.570  0.0985  0.0533  0.1306
  194loPI   C6A 3100   9.244  14.983   8.300  0.0197  0.0663 -0.0138
  194loPI   C1B 3101   9.174  14.836  10.314 -0.2636  0.3349 -0.1185
  194loPI   C2B 3102   9.358  14.762   9.866  0.0231  0.0511 -0.0705
  194loPI   C3B 3103   9.338  14.670   9.367  0.2232  0.2672  0.0654
  194loPI   C4B 3104   9.457  14.700   8.992 -0.5884  0.0073  0.0878
  195loPI    C1 3105   0.856  12.802  11.546 -0.2336  0.0557 -0.1360
  195loPI    C2 3106   0.601  12.611  11.788  0.0337  0.0952  0.1840
  195loPI    C3 3107   0.630  13.010  11.803  0.0285  0.1004  0.0625
  195loPI   PO4 3108   0.813  12.664  11.349 -0.0820  0.2461  0.2028
  195loPI   GL1 3109   0.694  12.637  10.971  0.0210  0.2812 -0.2170
  195loPI   GL2 3110   0.691  12.936  10.883 -0.1147 -0.0981 -0.0175
  195loPI   C1A 3111   0.812  12.543  10.537 -0.2363 -0.2311 -0.0098
  195loPI   C2A 3112   0.740  12.685  10.011 -0.0173 -0.1510 -0.1120
  195loPI   C3A 3113   0.722  12.734   9.512  0.1727 -0.0171  0.3600
  195loPI   C4A 3114   0.723  12.704   9.100  0.2739 -0.3349  0.0385
  195loPI   C5A 3115   0.396  12.539   8.639  0.0741  0.1464  0.3552
  195loPI   C6A 3116   0.335  12.357   8.189 -0.1043 -0.0725  0.0840
  195loPI   C1B 3117   0.749  13.071  10.410  0.2550 -0.1936 -0.1178
  195loPI   C2B 3118   0.617  13.184  10.035  0.0433  0.2552 -0.0149
  195loPI   C3B 3119   0.625  13.223   9.566  0.0022 -0.0646 -0.1931
  195loPI   C4B 3120   0.557  13.162   9.223 -0.1990  0.1258  0.2074
  196loPI    C1 3121  13.293  13.285  11.293 -0.1267  0.1929  0.0573
  196loPI    C2 3122  13.518  13.578  11.139 -0.1555  0.2500  0.1230
  196loPI    C3 3123  13.411  13.590  11.524 -0.1958  0.1768  0.1142
  196loPI   PO4 3124  13.424  13.073  11.176 -0.0537 -0.3516  0.0642
  196loPI   GL1 3125  13.653  13.110  10.895 -0.0450 -0.0433 -0.0664
  196loPI   GL2 3126  13.812  12.771  10.829 -0.1200  0.0139 -0.0883
  196loPI   C1A 3127  13.648  13.306  10.553 -0.0341 -0.0806 -0.0995
  196loPI   C2A 3128  13.657  13.217  10.175  0.1802  0.2155 -0.2980
  196loPI   C3A 3129  13.683  13.283   9.787 -0.1413  0.4639 -0.0359
  196loPI   C4A 3130  13.850  13.270   9.298 -0.0424 -0.0452 -0.3182
  196loPI   C5A 3131  13.812  13.181   8.849 -0.0911 -0.0471 -0.2184
  196loPI   C6A 3132  13.829  13.183   8.298  0.1819 -0.0498 -0.0368
  196loPI   C1B 3133  13.843  12.772  10.436  0.0537  0.0098  0.0256
  196loPI   C2B 3134  13.790  12.751   9.907 -0.2762  0.4460  0.3612
  196loPI   C3B 3135  13.862  12.748   9.490 -0.1004 -0.1824  0.3172
  196loPI   C4B 3136  13.879  12.655   9.013  0.3151 -0.3380 -0.1166
  197loPI    C1 3137  11.557   8.545  11.359  0.0390 -0.1380 -0.0764
  197loPI    C2 3138  11.175   8.503  11.471  0.0727 -0.1502  0.0352
  197loPI    C3 3139  11.462   8.537  11.747  0.1297  0.0689 -0.0486
  197loPI   PO4 3140  11.548   8.684  11.169 -0.1950 -0.2056 -0.1263
  197loPI   GL1 3141  11.490   8.549  10.683  0.1389 -0.1614 -0.1981
  197loPI   GL2 3142  11.812   8.614  10.523 -0.3444  0.2654 -0.2831
  197loPI   C1A 3143  11.377   8.775  10.347 -0.1293 -0.1197  0.0227
  197loPI   C2A 3144  11.360   8.933   9.904 -0.0158 -0.0249 -0.0626
  197loPI   C3A 3145  11.486   8.965   9.416  0.1465 -0.4752  0.1225
  197loPI   C4A 3146  11.655   8.910   9.008  0.0420  0.1131  0.0631
  197loPI   C5A 3147  11.506   8.740   8.672  0.0661  0.0409 -0.0109
  197loPI   C6A 3148  11.536   9.040   8.232 -0.1486 -0.0128 -0.0599
  197loPI   C1B 3149  12.058   8.381  10.371 -0.4844  0.4161 -0.2680
  197loPI   C2B 3150  12.253   8.460  10.041  0.1261  0.2955 -0.2422
  197loPI   C3B 3151  12.460   8.519   9.658  0.1925  0.3586  0.1071
  197loPI   C4B 3152  12.481   8.586   9.198 -0.0452  0.2450 -0.3807
  198loPI    C1 3153  16.012   3.574  10.723 -0.0301  0.0439 -0.1007
  198loPI    C2 3154  16.041   3.826  11.032 -0.1466  0.0393 -0.0854
  198loPI    C3 3155  16.313   3.537  10.982 -0.0819  0.0910 -0.0336
  198loPI   PO4 3156  15.874   3.716  10.500  0.1025  0.0482 -0.0047
  198loPI   GL1 3157  15.694   3.729  10.065  0.1972 -0.0788 -0.1775
  198loPI   GL2 3158  15.932   3.462   9.832  0.0267  0.2668 -0.0795
  198loPI   C1A 3159  15.728   3.911   9.698  0.0740  0.2681 -0.0503
  198loPI   C2A 3160  15.876   3.649   9.323 -0.1086  0.4051  0.1263
  198loPI   C3A 3161  16.087   3.367   9.012 -0.2291  0.1024 -0.0553
  198loPI   C4A 3162  16.147   2.996   8.762  0.1161 -0.1628 -0.0058
  198loPI   C5A 3163  16.341   2.658   8.464  0.1798 -0.4136 -0.2263
  198loPI   C6A 3164  16.403   2.802   8.002  0.1948  0.1534 -0.0030
  198loPI   C1B 3165  16.186   3.283   9.496  0.1751 -0.0096 -0.0138
  198loPI   C2B 3166  16.471   3.020   9.244  0.0018 -0.0818  0.3049
  198loPI   C3B 3167  16.547   2.698   8.939  0.0869 -0.0109 -0.4422
  198loPI   C4B 3168  16.472   2.357   8.805  0.0212  0.3818  0.0300
  199loPI    C1 3169   2.525   3.495  10.999 -0.1787 -0.0029  0.1533
  199loPI    C2 3170   2.188   3.421  11.202 -0.4228  0.3797 -0.1005
  199loPI    C3 3171   2.424   3.725  11.311 -0.2122  0.1785  0.0106
  199loPI   PO4 3172   2.490   3.414  10.705  0.1005 -0.0492 -0.0007
  199loPI   GL1 3173   2.302   3.704  10.403 -0.3383  0.2290  0.0814
  199loPI   GL2 3174   2.623   3.739  10.252 -0.3633 -0.4405  0.1204
  199loPI   C1A 3175   2.201   3.875   9.927 -0.1005  0.0374 -0.2672
  199loPI   C2A 3176   2.332   4.028   9.575 -0.1510 -0.1619 -0.0001
  199loPI   C3A 3177   2.485   4.038   9.205 -0.2414 -0.0853  0.0684
  199loPI   C4A 3178   2.472   3.982   8.743 -0.1496  0.2117 -0.2079
  199loPI   C5A 3179   2.326   4.130   8.345 -0.0017 -0.0595  0.0045
  199loPI   C6A 3180   2.053   4.123   8.001 -0.0955  0.1268  0.1249
  199loPI   C1B 3181   2.655   3.662   9.821  0.0771  0.3236 -0.0724
  199loPI   C2B 3182   2.728   3.632   9.422 -0.1218  0.0733 -0.0472
  199loPI   C3B 3183   2.836   3.712   9.026  0.0999  0.1408 -0.0792
  199loPI   C4B 3184   2.889   3.669   8.585  0.2346  0.1674  0.1507
  200loPI    C1 3185  10.496   7.493  10.998 -0.0489  0.2655  0.0433
  200loPI    C2 3186  10.350   7.721  11.293  0.0291  0.0928  0.2176
  200loPI    C3 3187  10.591   7.413  11.378  0.1403  0.1068 -0.0355
  200loPI   PO4 3188  10.408   7.532  10.795 -0.1570  0.0677 -0.2104
  200loPI   GL1 3189  10.288   7.748  10.468 -0.3276 -0.0342  0.1427
  200loPI   GL2 3190  10.475   7.963  10.369 -0.2777  0.0383  0.0561
  200loPI   C1A 3191  10.208   7.511  10.131 -0.2184 -0.1687 -0.1830
  200loPI   C2A 3192  10.245   7.418   9.733 -0.0171  0.1949  0.2315
  200loPI   C3A 3193  10.093   7.187   9.407  0.3249  0.2196 -0.2839
  200loPI   C4A 3194  10.252   7.015   9.066  0.1429  0.3181  0.0809
  200loPI   C5A 3195  10.132   7.089   8.653 -0.0276 -0.1967  0.1311
  200loPI   C6A 3196   9.704   7.185   8.501 -0.0050  0.1010  0.0307
  200loPI   C1B 3197  10.277   8.000   9.970  0.2642  0.0372 -0.3011
  200loPI   C2B 3198  10.205   8.017   9.506  0.0378  0.0367 -0.0593
  200loPI   C3B 3199  10.202   7.741   9.152 -0.1551 -0.3648  0.2782
  200loPI   C4B 3200  10.065   7.650   8.723 -0.0584 -0.0674 -0.0781
  201loPI    C1 3201  17.835   6.910  10.907  0.2696  0.0217 -0.0019
  201loPI    C2 3202  17.863   7.254  11.110 -0.1582  0.0311  0.0498
  201loPI    C3 3203  17.878   6.905  11.305  0.0620  0.0234  0.0216
  201loPI   PO4 3204  17.744   7.028  10.713  0.0334  0.2211  0.0240
  201loPI   GL1 3205  17.819   6.993  10.324 -0.1086 -0.5407 -0.1316
  201loPI   GL2 3206  17.838   6.799  10.095 -0.0151 -0.1219 -0.3411
  201loPI   C1A 3207  17.797   7.234   9.900 -0.0963  0.1598  0.0352
  201loPI   C2A 3208  17.837   7.237   9.447  0.1465  0.3506  0.0839
  201loPI   C3A 3209  17.779   7.069   9.017  0.3828  0.1285 -0.4093
  201loPI   C4A 3210  17.845   7.028   8.588  0.1260 -0.0014 -0.4805
  201loPI   C5A 3211  17.711   6.632   8.402  0.0511 -0.0028  0.1441
  201loPI   C6A 3212  17.560   6.582   7.947 -0.0866 -0.6091 -0.1874
  201loPI   C1B 3213  17.858   6.791   9.685 -0.0385  0.1237 -0.0224
  201loPI   C2B 3214  17.903   6.619   9.286  0.1787 -0.0099  0.3182
  201loPI   C3B 3215  17.888   6.579   8.886 -0.1219  0.2954 -0.0352
  201loPI   C4B 3216  18.198   6.570   8.656 -0.1314  0.1056  0.0928
  202loPI    C1 3217   0.086   3.220  10.928  0.1357 -0.0183 -0.0908
  202loPI    C2 3218  -0.111   3.453  11.187  0.0077  0.0304 -0.2308
  202loPI    C3 3219   0.278   3.378  11.241 -0.1200 -0.3453  0.2415
  202loPI   PO4 3220   0.014   3.188  10.593  0.1378  0.0448 -0.2823
  202loPI   GL1 3221   0.065   3.212  10.173 -0.0458  0.0959  0.2474
  202loPI   GL2 3222  -0.233   3.205  10.036  0.0632 -0.2187 -0.1793
  202loPI   C1A 3223   0.177   3.284   9.702  0.0129  0.1297 -0.1858
  202loPI   C2A 3224   0.291   3.191   9.283 -0.3779 -0.1236  0.1823
  202loPI   C3A 3225   0.425   3.114   8.821  0.0546 -0.2879  0.1178
  202loPI   C4A 3226   0.496   3.008   8.444 -0.0114  0.0331  0.0517
  202loPI   C5A 3227   0.795   2.790   8.191 -0.1778 -0.2838  0.0571
  202loPI   C6A 3228   0.989   2.386   8.291  0.2935  0.0015 -0.0259
  202loPI   C1B 3229  -0.333   3.188   9.620 -0.1528 -0.0042 -0.0323
  202loPI   C2B 3230  -0.149   3.360   9.263 -0.1148  0.0755  0.0274
  202loPI   C3B 3231  -0.105   3.257   8.823 -0.1845  0.0791 -0.2744
  202loPI   C4B 3232  -0.077   3.100   8.497  0.1134  0.0474 -0.0331
  203loPI    C1 3233   1.672  12.320  11.498  0.2233 -0.0108  0.1218
  203loPI    C2 3234   1.520  11.955  11.557  0.1678 -0.0611 -0.3015
  203loPI    C3 3235   1.519  12.223  11.854 -0.0974 -0.2935 -0.0874
  203loPI   PO4 3236   1.714  12.285  11.170  0.0460  0.0044  0.0663
  203loPI   GL1 3237   1.673  12.488  10.778  0.1096 -0.0941 -0.0320
  203loPI   GL2 3238   2.066  12.610  10.773 -0.0558  0.1539 -0.2210
  203loPI   C1A 3239   1.785  12.358  10.413 -0.0989 -0.1751  0.3076
  203loPI   C2A 3240   1.799  12.296   9.953  0.0894 -0.0702 -0.2516
  203loPI   C3A 3241   1.698  12.402   9.519  0.0506  0.3923  0.1971
  203loPI   C4A 3242   1.709  12.358   9.064  0.0564  0.2422 -0.1660
  203loPI   C5A 3243   1.828  12.494   8.627  0.1876 -0.0403  0.1584
  203loPI   C6A 3244   2.009  12.652   8.264  0.2245  0.1569  0.2669
  203loPI   C1B 3245   2.174  12.663  10.309 -0.1195 -0.1857  0.2486
  203loPI   C2B 3246   2.103  12.661   9.848 -0.1222  0.0636 -0.0038
  203loPI   C3B 3247   2.112  12.624   9.467  0.0837 -0.0170  0.0098
  203loPI   C4B 3248   2.133  12.606   8.952 -0.0125 -0.1475 -0.0485
  204loPI    C1 3249  16.545  11.345  11.448 -0.1702  0.1189  0.1101
  204loPI    C2 3250  16.813  11.258  11.733  0.0362  0.6098  0.0750
  204loPI    C3 3251  16.453  11.401  11.834 -0.1209  0.2016  0.1101
  204loPI   PO4 3252  16.544  11.154  11.286 -0.3250 -0.0528  0.1700
  204loPI   GL1 3253  16.264  10.992  10.937  0.0720 -0.3585 -0.0456
  204loPI   GL2 3254  16.114  10.719  10.859  0.1464 -0.1670  0.2517
  204loPI   C1A 3255  16.093  11.052  10.527  0.0519  0.0650 -0.3185
  204loPI   C2A 3256  16.158  11.198  10.074 -0.0865  0.1070  0.0422
  204loPI   C3A 3257  15.987  11.190   9.646 -0.0902 -0.0873  0.1463
  204loPI   C4A 3258  16.066  10.977   9.254 -0.0605 -0.2936 -0.3080
  204loPI   C5A 3259  15.819  11.023   8.939  0.1470 -0.0707 -0.3581
  204loPI   C6A 3260  15.435  10.969   8.873 -0.1577 -0.1064  0.1455
  204loPI   C1B 3261  16.081  10.518  10.495 -0.0081  0.1406  0.1033
  204loPI   C2B 3262  16.133  10.709  10.184  0.1489  0.0727 -0.2026
  204loPI   C3B 3263  16.159  10.731   9.767 -0.1174  0.0844 -0.1816
  204loPI   C4B 3264  16.173  10.561   9.450  0.1071  0.2159 -0.0207
  205loPI    C1 3265   0.821   8.751  10.732 -0.0169  0.0446  0.1048
  205loPI    C2 3266   0.621   8.889  11.049  0.0111  0.0627  0.1146
  205loPI    C3 3267   0.774   8.520  11.055  0.0158  0.0648  0.1242
  205loPI   PO4 3268   0.684   8.786  10.560 -0.0962 -0.2161 -0.0274
  205loPI   GL1 3269   0.569   8.910  10.215  0.2100  0.0756 -0.0511
  205loPI   GL2 3270   0.791   9.147  10.129 -0.0252  0.1577 -0.0273
  205loPI   C1A 3271   0.491   8.827   9.770 -0.2724 -0.1519  0.2171
  205loPI   C2A 3272   0.523   8.770   9.290 -0.0656  0.0036 -0.2897
  205loPI   C3A 3273   0.597   8.829   8.937  0.2456  0.0056  0.0706
  205loPI   C4A 3274   0.626   8.859   8.588 -0.1613  0.2647  0.0184
  205loPI   C5A 3275   0.317   8.828   8.266 -0.0874 -0.1725 -0.1962
  205loPI   C6A 3276   0.031   9.182   8.262 -0.0113 -0.0896  0.1514
  205loPI   C1B 3277   0.953   9.188   9.701 -0.0475  0.2310  0.1237
  205loPI   C2B 3278   0.914   9.173   9.279  0.2891 -0.0294  0.1339
  205loPI   C3B 3279   0.895   9.335   8.845 -0.0551  0.1322  0.1550
  205loPI   C4B 3280   0.928   9.257   8.379 -0.2124  0.0096  0.0190
  206loPI    C1 3281  13.237   7.244  10.996  0.0716  0.1259  0.0244
  206loPI    C2 3282  13.613   7.105  10.991  0.0675  0.1015  0.2834
  206loPI    C3 3283  13.363   6.999  11.285 -0.2038 -0.0383  0.0083
  206loPI   PO4 3284  13.270   7.379  10.759  0.0639  0.0993 -0.0908
  206loPI   GL1 3285  13.329   7.264  10.325  0.1152  0.0174 -0.0145
  206loPI   GL2 3286  12.967   7.275  10.314 -0.0862 -0.2659  0.0643
  206loPI   C1A 3287  13.563   7.162   9.993 -0.1138  0.3425 -0.0933
  206loPI   C2A 3288  13.637   7.138   9.502 -0.0738  0.1315 -0.2236
  206loPI   C3A 3289  13.589   7.276   9.069  0.0457  0.2218  0.1311
  206loPI   C4A 3290  13.786   7.335   8.653 -0.0750  0.1147 -0.4104
  206loPI   C5A 3291  14.202   7.394   8.526  0.3254  0.0431 -0.1986
  206loPI   C6A 3292  14.477   7.078   8.254  0.3280  0.4527 -0.2119
  206loPI   C1B 3293  13.087   7.253   9.855  0.0849 -0.0122 -0.0560
  206loPI   C2B 3294  13.098   7.352   9.470  0.3194  0.2052  0.1361
  206loPI   C3B 3295  13.152   7.375   9.011  0.0079 -0.0149 -0.0682
  206loPI   C4B 3296  13.231   7.468   8.652  0.0621 -0.3332 -0.0887
  207loPI    C1 3297   3.310   5.939  11.001 -0.0658 -0.0278 -0.2925
  207loPI    C2 3298   3.250   5.703  11.318  0.1116  0.0187 -0.2231
  207loPI    C3 3299   3.156   6.091  11.337  0.1295  0.0231 -0.2248
  207loPI   PO4 3300   3.149   5.811  10.820 -0.0112  0.1257  0.0103
  207loPI   GL1 3301   3.071   5.780  10.500  0.1537 -0.0412  0.2941
  207loPI   GL2 3302   3.047   5.957  10.260  0.1392 -0.0842  0.0268
  207loPI   C1A 3303   3.047   5.479  10.171  0.2984 -0.1063  0.2099
  207loPI   C2A 3304   3.103   5.212   9.816  0.1104 -0.0415 -0.1483
  207loPI   C3A 3305   3.087   5.236   9.364 -0.2565  0.2882 -0.2092
  207loPI   C4A 3306   3.068   5.312   8.855  0.2399 -0.1857 -0.2792
  207loPI   C5A 3307   2.962   5.416   8.338 -0.0736  0.0318  0.3667
  207loPI   C6A 3308   2.951   5.713   8.045  0.2275  0.0425  0.0861
  207loPI   C1B 3309   3.027   5.829   9.857  0.0204 -0.0240 -0.2482
  207loPI   C2B 3310   3.173   5.724   9.565  0.0438  0.1031  0.4919
  207loPI   C3B 3311   3.170   5.665   9.169 -0.0443 -0.1495  0.2272
  207loPI   C4B 3312   3.031   5.844   8.870  0.1829  0.0794  0.3027
  208loPI    C1 3313  17.674  15.713  11.387  0.0745  0.1693  0.1197
  208loPI    C2 3314  17.810  15.347  11.302  0.2188  0.2720 -0.1023
  208loPI    C3 3315  17.788  15.469  11.682 -0.1253 -0.0772 -0.0030
  208loPI   PO4 3316  17.557  15.762  11.073  0.0572  0.0430 -0.1728
  208loPI   GL1 3317  17.506  15.944  10.673 -0.1844 -0.0307  0.0312
  208loPI   GL2 3318  17.531  16.290  10.511  0.2721  0.4595 -0.1038
  208loPI   C1A 3319  17.275  15.739  10.398  0.3382  0.1913 -0.2448
  208loPI   C2A 3320  17.245  15.819   9.996  0.2850  0.2955  0.1337
  208loPI   C3A 3321  17.299  15.841   9.527  0.1211 -0.0264 -0.3792
  208loPI   C4A 3322  17.464  15.822   9.142 -0.0379 -0.2339 -0.0502
  208loPI   C5A 3323  17.672  15.829   8.664  0.1500 -0.1171  0.0927
  208loPI   C6A 3324  17.750  15.422   8.600  0.0349 -0.0293 -0.2975
  208loPI   C1B 3325  17.357  16.385  10.137 -0.0739  0.0527 -0.1085
  208loPI   C2B 3326  17.281  16.355   9.717  0.3251 -0.1814  0.1015
  208loPI   C3B 3327  17.335  16.291   9.319  0.4801 -0.1803  0.0216
  208loPI   C4B 3328  17.628  16.277   8.970 -0.1148 -0.2126  0.0751
  209loPI    C1 3329  17.273  14.733  10.949  0.0023  0.1718 -0.1139
  209loPI    C2 3330  17.481  14.871  11.261  0.1580  0.3241 -0.2829
  209loPI    C3 3331  17.247  14.549  11.303  0.2851  0.2606 -0.0451
  209loPI   PO4 3332  17.166  14.870  10.854 -0.3160 -0.0180 -0.0356
  209loPI   GL1 3333  16.946  15.097  10.458  0.2689 -0.0616  0.3767
  209loPI   GL2 3334  17.157  15.296  10.563 -0.0576  0.0112 -0.1841
  209loPI   C1A 3335  16.960  14.919  10.045  0.1070  0.0466  0.0061
  209loPI   C2A 3336  17.110  14.957   9.639  0.0643  0.3075 -0.2670
  209loPI   C3A 3337  17.168  14.927   9.161  0.3267  0.1102 -0.0694
  209loPI   C4A 3338  17.239  14.966   8.726  0.1717 -0.0016  0.0473
  209loPI   C5A 3339  17.271  15.264   8.421 -0.0236 -0.0522  0.2635
  209loPI   C6A 3340  17.525  15.473   8.124 -0.1607  0.1061 -0.4195
  209loPI   C1B 3341  17.391  15.277  10.186  0.0143  0.0576  0.1684
  209loPI   C2B 3342  17.432  15.388   9.801 -0.0362  0.0739 -0.1862
  209loPI   C3B 3343  17.491  15.359   9.482  0.0016  0.1032 -0.1785
  209loPI   C4B 3344  17.464  15.268   9.006  0.0948 -0.2780 -0.0995
  210loPI    C1 3345   8.796  11.939  11.202  0.0717  0.0298 -0.0498
  210loPI    C2 3346   8.538  12.067  11.479 -0.0025  0.1125 -0.1563
  210loPI    C3 3347   8.929  12.057  11.560 -0.0533 -0.1888  0.0714
  210loPI   PO4 3348   8.745  12.086  10.931 -0.2807  0.3392 -0.3120
  210loPI   GL1 3349   8.793  11.969  10.606 -0.0932  0.0415  0.2123
  210loPI   GL2 3350   8.504  11.777  10.668  0.1799  0.1963  0.0253
  210loPI   C1A 3351   8.821  12.016  10.155 -0.3033 -0.0265 -0.1376
  210loPI   C2A 3352   8.811  11.974   9.684  0.1490  0.1352  0.1287
  210loPI   C3A 3353   8.782  11.860   9.230  0.2515  0.0461 -0.1946
  210loPI   C4A 3354   8.828  11.802   8.782 -0.0586  0.1062 -0.3427
  210loPI   C5A 3355   8.989  11.572   8.511  0.0851  0.0030 -0.2083
  210loPI   C6A 3356   9.053  11.380   8.138 -0.1715 -0.3983  0.0006
  210loPI   C1B 3357   8.477  11.538  10.375 -0.1857 -0.2398 -0.2002
  210loPI   C2B 3358   8.404  11.643   9.959 -0.0824 -0.1275 -0.1253
  210loPI   C3B 3359   8.376  11.721   9.528 -0.1900  0.0963 -0.3332
  210loPI   C4B 3360   8.233  11.877   9.133  0.1040  0.1267  0.3986
  211loPI    C1 3361   2.393   9.327  10.564 -0.2648  0.0477  0.1765
  211loPI    C2 3362   2.226   9.496  10.886  0.0980  0.0723  0.3569
  211loPI    C3 3363   2.562   9.282  10.924  0.0563 -0.0600  0.0160
  211loPI   PO4 3364   2.257   9.248  10.412  0.0424 -0.1848 -0.6565
  211loPI   GL1 3365   2.232   9.370  10.040  0.3668 -0.1771 -0.0166
  211loPI   GL2 3366   1.862   9.291  10.117 -0.1261  0.0768 -0.0964
  211loPI   C1A 3367   2.284   9.299   9.593  0.0249  0.0737 -0.1578
  211loPI   C2A 3368   2.212   9.320   9.106 -0.3602  0.1885  0.3683
  211loPI   C3A 3369   2.000   9.186   8.705 -0.0152 -0.2695 -0.1050
  211loPI   C4A 3370   1.997   8.957   8.249 -0.0817  0.0542  0.0936
  211loPI   C5A 3371   1.991   9.038   7.873 -0.3522 -0.0846  0.3532
  211loPI   C6A 3372   2.042   9.251   7.478 -0.0084 -0.2017  0.4176
  211loPI   C1B 3373   1.836   9.462   9.726 -0.1403 -0.2854  0.0406
  211loPI   C2B 3374   1.758   9.505   9.306  0.4425 -0.0063  0.0672
  211loPI   C3B 3375   1.905   9.656   8.934 -0.0824  0.1634 -0.0313
  211loPI   C4B 3376   1.796   9.634   8.545 -0.1523  0.0343 -0.0001
  212loPI    C1 3377   6.320   4.654  11.252  0.1039  0.3333  0.0662
  212loPI    C2 3378   6.614   4.764  11.500  0.3078 -0.1641  0.0560
  212loPI    C3 3379   6.380   4.453  11.593  0.0856 -0.0639 -0.1581
  212loPI   PO4 3380   6.372   4.616  11.067  0.1809  0.2195 -0.1349
  212loPI   GL1 3381   6.300   4.337  10.782 -0.3585  0.1268 -0.1411
  212loPI   GL2 3382   6.626   4.208  10.753  0.0757  0.1270 -0.0043
  212loPI   C1A 3383   6.158   4.433  10.323  0.1059  0.1300 -0.0110
  212loPI   C2A 3384   6.208   4.580   9.778 -0.2147  0.0599  0.1167
  212loPI   C3A 3385   6.170   4.580   9.356  0.0190  0.0590 -0.1225
  212loPI   C4A 3386   6.101   4.577   8.998  0.0044 -0.0185  0.2511
  212loPI   C5A 3387   6.227   4.698   8.530 -0.0469 -0.0471 -0.1232
  212loPI   C6A 3388   6.316   4.861   8.105  0.1548 -0.0943 -0.0480
  212loPI   C1B 3389   6.585   4.094  10.380 -0.0453 -0.0909 -0.2735
  212loPI   C2B 3390   6.479   4.261  10.028 -0.0988 -0.3993  0.2146
  212loPI   C3B 3391   6.539   4.291   9.548  0.1255  0.0816 -0.1724
  212loPI   C4B 3392   6.578   4.343   9.043 -0.2669  0.0077  0.0405
  213loPI    C1 3393   3.474  13.303  11.190  0.2261  0.0052  0.2084
  213loPI    C2 3394   3.201  13.582  11.275  0.2483  0.0226  0.2228
  213loPI    C3 3395   3.452  13.456  11.559  0.1335 -0.1276  0.2588
  213loPI   PO4 3396   3.503  13.352  10.879 -0.1461 -0.1024  0.3075
  213loPI   GL1 3397   3.311  13.650  10.559 -0.0409  0.2378  0.3268
  213loPI   GL2 3398   3.458  13.933  10.552  0.4898  0.2565 -0.2123
  213loPI   C1A 3399   3.343  13.540  10.198 -0.1660 -0.0347 -0.1278
  213loPI   C2A 3400   3.301  13.653   9.740  0.1936 -0.3511 -0.0058
  213loPI   C3A 3401   3.371  13.925   9.383 -0.2047  0.1438  0.2541
  213loPI   C4A 3402   3.381  14.039   8.953  0.1836  0.2237  0.0833
  213loPI   C5A 3403   3.574  14.048   8.509 -0.1169  0.1287 -0.1497
  213loPI   C6A 3404   3.905  14.313   8.291 -0.0332  0.1297 -0.0404
  213loPI   C1B 3405   3.579  13.963  10.125 -0.1200 -0.0719  0.2287
  213loPI   C2B 3406   3.785  13.914   9.710 -0.1083  0.1952 -0.3120
  213loPI   C3B 3407   3.894  13.901   9.287 -0.0301 -0.4326  0.1472
  213loPI   C4B 3408   4.002  14.088   8.803 -0.0706  0.1865 -0.1794
  214loPI    C1 3409   2.022   6.254  11.100 -0.0001 -0.3815  0.0862
  214loPI    C2 3410   2.093   6.245  11.493  0.1038 -0.0754  0.0773
  214loPI    C3 3411   1.733   6.356  11.357  0.0399 -0.2679  0.0869
  214loPI   PO4 3412   2.199   6.334  10.996 -0.0648 -0.0683  0.0906
  214loPI   GL1 3413   2.270   6.243  10.489 -0.2113  0.0250  0.1227
  214loPI   GL2 3414   2.409   5.947  10.364 -0.1239 -0.0260 -0.2793
  214loPI   C1A 3415   2.241   6.367  10.111  0.1782  0.0038 -0.0540
  214loPI   C2A 3416   2.280   6.397   9.675 -0.1581  0.0251  0.2119
  214loPI   C3A 3417   2.235   6.406   9.305 -0.0574  0.0902 -0.3538
  214loPI   C4A 3418   2.254   6.443   8.981  0.3762  0.0080 -0.0730
  214loPI   C5A 3419   2.168   6.383   8.525  0.0285 -0.2161  0.0583
  214loPI   C6A 3420   2.216   6.435   8.134  0.2796  0.2238  0.0621
  214loPI   C1B 3421   2.371   5.931   9.947 -0.0036  0.1135 -0.0683
  214loPI   C2B 3422   2.240   5.803   9.532  0.3237  0.2786  0.0049
  214loPI   C3B 3423   2.269   5.838   9.112 -0.2644 -0.1289  0.3999
  214loPI   C4B 3424   2.235   5.933   8.719  0.4152  0.0846  0.2399
  215loPI    C1 3425   4.782  12.441  11.088 -0.1663  0.0685  0.2311
  215loPI    C2 3426   4.707  12.307  11.457 -0.0321  0.2274  0.3174
  215loPI    C3 3427   4.494  12.611  11.308 -0.2474  0.0090  0.1717
  215loPI   PO4 3428   4.850  12.287  10.927  0.0382  0.2943  0.0747
  215loPI   GL1 3429   4.827  12.227  10.492  0.0084 -0.3035 -0.1134
  215loPI   GL2 3430   4.448  12.171  10.424  0.0155  0.0597  0.0182
  215loPI   C1A 3431   4.755  12.296  10.041 -0.0105  0.5325  0.0080
  215loPI   C2A 3432   4.922  11.956   9.739 -0.0366 -0.0588  0.0774
  215loPI   C3A 3433   4.924  12.089   9.274  0.1994  0.0989 -0.0477
  215loPI   C4A 3434   5.300  12.186   8.968 -0.0996 -0.0129 -0.0897
  215loPI   C5A 3435   5.518  12.582   8.832 -0.3375  0.1331  0.0160
  215loPI   C6A 3436   5.640  13.007   8.587 -0.0743  0.0269 -0.1608
  215loPI   C1B 3437   4.086  11.854  10.178 -0.2687 -0.1422 -0.0127
  215loPI   C2B 3438   3.944  11.816   9.736 -0.0538  0.0262  0.0597
  215loPI   C3B 3439   3.892  11.799   9.259 -0.1780 -0.2582  0.3609
  215loPI   C4B 3440   3.555  11.522   9.181  0.2551  0.3211 -0.1214
  216loPI    C1 3441   3.468  16.166  11.006 -0.1473 -0.0911 -0.0629
  216loPI    C2 3442   3.582  16.164  11.389 -0.0218  0.0504 -0.0984
  216loPI    C3 3443   3.372  16.473  11.244 -0.3338 -0.1439 -0.0686
  216loPI   PO4 3444   3.682  15.969  10.878  0.1778 -0.2549 -0.0082
  216loPI   GL1 3445   3.639  15.815  10.469 -0.0378  0.1446 -0.2717
  216loPI   GL2 3446   3.726  15.548  10.358 -0.0651 -0.3790  0.1731
  216loPI   C1A 3447   3.867  16.048  10.265 -0.0338  0.0231 -0.0230
  216loPI   C2A 3448   3.916  16.134   9.865 -0.1739  0.2408  0.1704
  216loPI   C3A 3449   3.851  16.156   9.438 -0.2113  0.2107  0.0981
  216loPI   C4A 3450   4.079  16.017   9.057 -0.1358 -0.1245  0.1577
  216loPI   C5A 3451   4.039  15.928   8.654  0.0795  0.2660 -0.3764
  216loPI   C6A 3452   4.130  15.946   8.178  0.1576 -0.1300  0.1312
  216loPI   C1B 3453   3.725  15.624   9.910  0.0582 -0.3314  0.0304
  216loPI   C2B 3454   3.575  15.687   9.464 -0.0562 -0.0123  0.0755
  216loPI   C3B 3455   3.611  15.852   9.081 -0.4200  0.3650  0.0313
  216loPI   C4B 3456   3.499  16.070   8.644 -0.0695 -0.0789  0.1077
  217loPI    C1 3457  13.426  16.990  10.722  0.0968 -0.2421  0.3213
  217loPI    C2 3458  13.442  17.351  10.894  0.0575 -0.0812 -0.0052
  217loPI    C3 3459  13.759  17.210  10.694 -0.0114 -0.1206 -0.0876
  217loPI   PO4 3460  13.082  16.988  10.573 -0.0439  0.0041  0.1413
  217loPI   GL1 3461  13.085  17.024  10.184  0.1549 -0.1198  0.3522
  217loPI   GL2 3462  12.891  17.302  10.169 -0.0783 -0.0848  0.0078
  217loPI   C1A 3463  12.957  16.818   9.830 -0.1705 -0.2505 -0.0666
  217loPI   C2A 3464  13.041  16.796   9.416  0.2526  0.0666  0.0373
  217loPI   C3A 3465  13.151  16.744   8.939  0.1346 -0.2764 -0.0834
  217loPI   C4A 3466  13.323  16.699   8.480 -0.1058 -0.1501 -0.1827
  217loPI   C5A 3467  13.656  16.872   8.355 -0.0889  0.1711 -0.0548
  217loPI   C6A 3468  13.972  16.942   8.077 -0.0091 -0.1942 -0.1476
  217loPI   C1B 3469  12.917  17.331   9.745 -0.3481 -0.0014 -0.3259
  217loPI   C2B 3470  12.811  17.322   9.222  0.3250  0.1253 -0.2215
  217loPI   C3B 3471  12.618  17.464   9.024  0.0799 -0.0141 -0.2221
  217loPI   C4B 3472  12.589  17.625   8.582 -0.1308 -0.1564  0.0914
  218loPI    C1 3473   2.169   6.901  10.942  0.1086 -0.1285 -0.0014
  218loPI    C2 3474   2.006   6.752  11.275  0.1428 -0.2639 -0.0447
  218loPI    C3 3475   2.401   6.729  11.219  0.1752  0.0317  0.0437
  218loPI   PO4 3476   2.062   6.771  10.647  0.1037  0.2441 -0.5120
  218loPI   GL1 3477   2.229   6.835  10.290 -0.1423  0.2048 -0.3256
  218loPI   GL2 3478   2.201   7.128  10.303  0.0247 -0.2090 -0.1473
  218loPI   C1A 3479   2.229   6.875   9.892  0.0059  0.5119  0.1528
  218loPI   C2A 3480   2.355   6.845   9.499 -0.3594 -0.0460 -0.3042
  218loPI   C3A 3481   2.251   6.926   9.110 -0.1656  0.0335 -0.2573
  218loPI   C4A 3482   2.265   6.893   8.594  0.3485 -0.0154  0.0383
  218loPI   C5A 3483   2.179   6.910   8.112 -0.2957 -0.2660  0.1808
  218loPI   C6A 3484   2.418   6.795   7.786  0.1281  0.0648 -0.1797
  218loPI   C1B 3485   2.311   7.366   9.926 -0.0557 -0.2134  0.0696
  218loPI   C2B 3486   2.358   7.389   9.513  0.0578 -0.3228 -0.1647
  218loPI   C3B 3487   2.335   7.526   9.070  0.0081 -0.0110  0.0037
  218loPI   C4B 3488   2.257   7.419   8.624 -0.2253  0.1044  0.0843
  219loPI    C1 3489  15.771  14.297  11.258 -0.1002  0.0165  0.0335
  219loPI    C2 3490  15.663  14.277  11.643  0.0526  0.0587  0.0795
  219loPI    C3 3491  15.721  13.941  11.434 -0.4883  0.0301 -0.0403
  219loPI   PO4 3492  15.592  14.351  11.148  0.0709 -0.0944  0.1729
  219loPI   GL1 3493  15.465  14.434  10.815  0.0346 -0.2931  0.1461
  219loPI   GL2 3494  15.283  14.040  10.598 -0.0527  0.0179 -0.1973
  219loPI   C1A 3495  15.605  14.455  10.465  0.1585 -0.0539  0.1557
  219loPI   C2A 3496  15.714  14.454  10.017 -0.3330  0.3169 -0.3607
  219loPI   C3A 3497  15.671  14.402   9.612 -0.0261  0.0356 -0.0075
  219loPI   C4A 3498  15.835  14.385   9.286  0.0865  0.1956  0.1330
  219loPI   C5A 3499  15.830  14.364   8.835 -0.1572  0.0664 -0.3796
  219loPI   C6A 3500  15.895  14.720   8.576 -0.2608 -0.0301 -0.0057
  219loPI   C1B 3501  15.277  14.117  10.208 -0.0690 -0.1116 -0.1253
  219loPI   C2B 3502  15.350  14.048   9.797 -0.0212 -0.1014  0.2432
  219loPI   C3B 3503  15.390  14.105   9.355  0.2616 -0.1100  0.0083
  219loPI   C4B 3504  15.494  14.029   8.899  0.4509 -0.0276  0.0844
  220loPI    C1 3505  17.157   5.784  10.358 -0.1266  0.0060 -0.0342
  220loPI    C2 3506  17.159   6.155  10.508  0.0383  0.0451 -0.1305
  220loPI    C3 3507  17.370   5.865  10.687 -0.1440 -0.0190 -0.0168
  220loPI   PO4 3508  16.903   5.693  10.339  0.2890 -0.2419  0.1924
  220loPI   GL1 3509  16.569   5.685  10.030  0.1514 -0.0279 -0.0165
  220loPI   GL2 3510  16.480   5.445  10.138  0.0359 -0.2695 -0.2580
  220loPI   C1A 3511  16.511   5.817   9.593 -0.4341  0.0637 -0.1258
  220loPI   C2A 3512  16.370   5.683   9.188  0.1350  0.1477 -0.0219
  220loPI   C3A 3513  16.135   5.618   8.782 -0.1882 -0.3520  0.3125
  220loPI   C4A 3514  16.129   5.299   8.493 -0.1224  0.0311 -0.4003
  220loPI   C5A 3515  15.798   5.134   8.273 -0.0988 -0.0007  0.0395
  220loPI   C6A 3516  15.700   5.057   7.826  0.0549  0.1446 -0.0396
  220loPI   C1B 3517  16.330   5.307   9.752 -0.2349 -0.1637 -0.0546
  220loPI   C2B 3518  16.117   5.272   9.402 -0.1683 -0.2172  0.1384
  220loPI   C3B 3519  15.984   5.038   9.046 -0.3738  0.0236  0.1262
  220loPI   C4B 3520  15.855   4.856   8.653  0.2346 -0.0505 -0.1594
  221loPI    C1 3521  11.913  15.156  11.174  0.3194  0.2638 -0.1771
  221loPI    C2 3522  11.986  14.919  11.489 -0.0959 -0.0235 -0.2887
  221loPI    C3 3523  11.994  15.317  11.531  0.2177 -0.0551 -0.0059
  221loPI   PO4 3524  12.008  15.027  10.972 -0.1615 -0.0314  0.1046
  221loPI   GL1 3525  12.017  14.859  10.604  0.1347 -0.1813 -0.0250
  221loPI   GL2 3526  11.906  15.192  10.518  0.0900 -0.2896  0.0511
  221loPI   C1A 3527  11.946  14.648  10.219 -0.0051  0.1071 -0.0361
  221loPI   C2A 3528  11.957  14.706   9.755  0.2345  0.1107  0.1632
  221loPI   C3A 3529  12.015  14.750   9.312 -0.1705 -0.1307 -0.0056
  221loPI   C4A 3530  12.068  14.822   8.931 -0.1300 -0.0815 -0.0377
  221loPI   C5A 3531  12.346  14.973   8.536 -0.0338  0.0708  0.0710
  221loPI   C6A 3532  12.740  14.801   8.332  0.2421  0.1016  0.0224
  221loPI   C1B 3533  11.936  15.246  10.082  0.3185 -0.2146 -0.0831
  221loPI   C2B 3534  11.907  15.219   9.696 -0.1633  0.3162  0.1056
  221loPI   C3B 3535  11.902  15.212   9.235  0.0264  0.1082 -0.0597
  221loPI   C4B 3536  11.911  15.273   8.839  0.0351 -0.0200 -0.1520
  222loPI    C1 3537   4.038  10.214  11.325 -0.1844 -0.0404  0.0220
  222loPI    C2 3538   4.267  10.337  11.628  0.1814 -0.0538 -0.2428
  222loPI    C3 3539   4.039  10.011  11.670  0.0862  0.0496  0.0763
  222loPI   PO4 3540   4.227  10.320  11.109  0.0818 -0.2671  0.0106
  222loPI   GL1 3541   4.376  10.436  10.667  0.0133 -0.2061 -0.0858
  222loPI   GL2 3542   4.094  10.706  10.535 -0.0776 -0.1294  0.2636
  222loPI   C1A 3543   4.563  10.622  10.297  0.0684 -0.4218  0.0849
  222loPI   C2A 3544   4.513  10.616   9.858 -0.2201  0.1615  0.2395
  222loPI   C3A 3545   4.650  10.669   9.426 -0.0843 -0.0483  0.4121
  222loPI   C4A 3546   4.662  10.763   8.962  0.0101 -0.1040 -0.0527
  222loPI   C5A 3547   4.463  10.767   8.531 -0.0273  0.6107 -0.1301
  222loPI   C6A 3548   4.169  10.535   8.370  0.1075  0.1405 -0.0766
  222loPI   C1B 3549   4.125  10.832  10.108 -0.3587  0.1330  0.3865
  222loPI   C2B 3550   4.172  10.836   9.637  0.1380  0.0000 -0.2720
  222loPI   C3B 3551   4.121  10.622   9.272  0.1941 -0.1633  0.1947
  222loPI   C4B 3552   4.121  10.849   8.941  0.1491 -0.0134  0.0352
  223loPI    C1 3553   0.419   0.676  10.759 -0.0381 -0.0430 -0.0532
  223loPI    C2 3554   0.615   0.681  11.108  0.1239  0.0552 -0.1441
  223loPI    C3 3555   0.347   0.967  11.025 -0.0071 -0.0384 -0.0498
  223loPI   PO4 3556   0.618   0.724  10.616 -0.3272 -0.0720 -0.1884
  223loPI   GL1 3557   0.457   0.749  10.185  0.0900 -0.2443  0.0787
  223loPI   GL2 3558   0.784   0.888  10.034  0.0478  0.0720 -0.1100
  223loPI   C1A 3559   0.405   0.458   9.997 -0.1694  0.0262 -0.1081
  223loPI   C2A 3560   0.412   0.146   9.674 -0.2643  0.2501 -0.0425
  223loPI   C3A 3561   0.395   0.003   9.292  0.0132  0.0873 -0.3080
  223loPI   C4A 3562   0.438  -0.004   8.967 -0.3179  0.1514 -0.0228
  223loPI   C5A 3563   0.632  -0.274   8.752  0.0059 -0.0307  0.1287
  223loPI   C6A 3564   0.876  -0.378   8.370 -0.0183  0.1843 -0.3056
  223loPI   C1B 3565   0.974   1.123   9.747 -0.2191  0.0133 -0.2251
  223loPI   C2B 3566   1.179   1.030   9.464  0.1513 -0.0777 -0.1012
  223loPI   C3B 3567   1.505   0.967   9.048  0.3578  0.0141  0.0977
  223loPI   C4B 3568   1.677   0.707   8.800  0.0951  0.0520 -0.1520
  224loPI    C1 3569   0.278   8.303  10.936  0.2271  0.4018  0.0592
  224loPI    C2 3570   0.573   8.059  11.051 -0.1431  0.0141  0.2126
  224loPI    C3 3571   0.418   8.322  11.310 -0.0116  0.1390  0.1657
  224loPI   PO4 3572   0.359   8.444  10.799 -0.2698 -0.1713  0.0674
  224loPI   GL1 3573   0.333   8.432  10.343 -0.3759  0.0335 -0.2591
  224loPI   GL2 3574   0.049   8.655  10.337  0.1611 -0.1277  0.0927
  224loPI   C1A 3575   0.177   8.474   9.913 -0.0742  0.1133 -0.1556
  224loPI   C2A 3576   0.077   8.470   9.451  0.1795  0.0453 -0.2784
  224loPI   C3A 3577   0.151   8.459   9.009 -0.0266  0.0862 -0.0544
  224loPI   C4A 3578   0.272   8.528   8.648  0.0732  0.0643 -0.0956
  224loPI   C5A 3579   0.401   8.254   8.343  0.0507  0.0102 -0.2383
  224loPI   C6A 3580   0.610   7.805   8.280  0.1932  0.1609  0.1749
  224loPI   C1B 3581   0.085   8.977  10.050  0.3042  0.1140 -0.1476
  224loPI   C2B 3582   0.016   9.015   9.534  0.1224 -0.1899 -0.0595
  224loPI   C3B 3583   0.093   9.018   9.181 -0.2494  0.0073  0.1874
  224loPI   C4B 3584   0.119   9.086   8.742  0.0590  0.1917 -0.1744
  225loPI    C1 3585   3.004   1.721  10.569 -0.0472 -0.1444 -0.1920
  225loPI    C2 3586   3.366   1.654  10.413 -0.0617 -0.1067 -0.2424
  225loPI    C3 3587   3.292   1.560  10.795  0.0355 -0.0080 -0.1988
  225loPI   PO4 3588   2.957   1.953  10.490  0.1802  0.1439 -0.0418
  225loPI   GL1 3589   3.064   2.012  10.110  0.2231  0.0253 -0.1962
  225loPI   GL2 3590   3.015   1.654  10.016  0.3041 -0.3739  0.0225
  225loPI   C1A 3591   3.126   2.251   9.787  0.1225  0.1850  0.1763
  225loPI   C2A 3592   3.194   2.286   9.334 -0.1304 -0.1570 -0.2436
  225loPI   C3A 3593   3.022   2.204   8.990  0.0121 -0.2648  0.1132
  225loPI   C4A 3594   3.117   2.163   8.556  0.0179 -0.0002 -0.0487
  225loPI   C5A 3595   3.237   1.947   8.195  0.0701  0.1209 -0.2994
  225loPI   C6A 3596   3.669   1.735   8.054  0.3421 -0.1007 -0.0247
  225loPI   C1B 3597   3.036   1.773   9.635 -0.2230 -0.1399 -0.2989
  225loPI   C2B 3598   3.005   1.711   9.263  0.0210 -0.0789 -0.0429
  225loPI   C3B 3599   3.084   1.673   8.929 -0.1612 -0.2726 -0.0333
  225loPI   C4B 3600   2.937   1.564   8.419  0.1724 -0.0976  0.0301
  226loPI    C1 3601  15.648  12.820  11.749 -0.0009 -0.0104  0.0535
  226loPI    C2 3602  15.582  12.430  11.811 -0.2241  0.0032 -0.0893
  226loPI    C3 3603  15.689  12.666  12.116 -0.2946 -0.1292  0.0389
  226loPI   PO4 3604  15.843  12.801  11.510 -0.0056  0.1985  0.3311
  226loPI   GL1 3605  15.983  12.659  11.061 -0.0713  0.2501  0.1372
  226loPI   GL2 3606  15.850  12.895  11.016  0.0185 -0.1222 -0.0645
  226loPI   C1A 3607  15.740  12.663  10.609  0.0928  0.0599  0.0837
  226loPI   C2A 3608  15.523  12.576  10.140  0.1974 -0.0987  0.3401
  226loPI   C3A 3609  15.599  12.620   9.557 -0.3215 -0.2815 -0.1934
  226loPI   C4A 3610  15.742  12.543   9.176  0.1727 -0.1217 -0.1085
  226loPI   C5A 3611  16.023  12.521   8.844  0.1176  0.2954  0.0128
  226loPI   C6A 3612  16.165  12.416   8.476  0.3250 -0.3482 -0.1297
  226loPI   C1B 3613  15.962  13.125  10.618 -0.2832 -0.1202 -0.0450
  226loPI   C2B 3614  15.960  13.042  10.161 -0.0543  0.1892 -0.2103
  226loPI   C3B 3615  16.010  12.892   9.673  0.2713  0.0223 -0.0008
  226loPI   C4B 3616  16.092  12.893   9.212 -0.1265 -0.2264  0.4307
  227loPI    C1 3617   4.229  14.586  10.892  0.0963  0.0984 -0.0938
  227loPI    C2 3618   3.852  14.565  11.023  0.1120  0.0257 -0.0598
  227loPI    C3 3619   4.147  14.398  11.235  0.1403 -0.0750 -0.1773
  227loPI   PO4 3620   4.160  14.465  10.610  0.0850 -0.1691 -0.1978
  227loPI   GL1 3621   4.044  14.615  10.266 -0.1014 -0.0521  0.3309
  227loPI   GL2 3622   3.689  14.680  10.323 -0.2377  0.0998 -0.0448
  227loPI   C1A 3623   4.060  14.747   9.802 -0.1258  0.2073 -0.5773
  227loPI   C2A 3624   4.208  14.621   9.351 -0.3875  0.1428  0.4740
  227loPI   C3A 3625   4.145  14.714   8.834  0.1861  0.4719 -0.0293
  227loPI   C4A 3626   4.306  14.456   8.525 -0.0154 -0.0209 -0.0383
  227loPI   C5A 3627   4.664  14.503   8.236  0.2229  0.0535 -0.1342
  227loPI   C6A 3628   4.884  14.841   7.964 -0.2415  0.3496 -0.0376
  227loPI   C1B 3629   3.708  14.476   9.975 -0.2642 -0.1111  0.0748
  227loPI   C2B 3630   3.765  14.382   9.545  0.2627 -0.2223  0.2105
  227loPI   C3B 3631   3.717  14.560   9.122 -0.1640 -0.1062  0.1834
  227loPI   C4B 3632   3.660  14.490   8.768  0.0619 -0.1211 -0.0335
  228loPI    C1 3633   4.599   2.531  10.691 -0.0267 -0.1864 -0.1173
  228loPI    C2 3634   4.576   2.273  10.996 -0.1593  0.0716  0.0954
  228loPI    C3 3635   4.264   2.508  10.909 -0.0978  0.0482 -0.1991
  228loPI   PO4 3636   4.651   2.363  10.511 -0.1214  0.1981  0.0597
  228loPI   GL1 3637   4.520   2.270  10.177  0.2773 -0.2150 -0.0480
  228loPI   GL2 3638   4.303   2.370  10.017  0.1571  0.0274  0.0639
  228loPI   C1A 3639   4.758   2.072   9.888 -0.1266 -0.0213 -0.0154
  228loPI   C2A 3640   4.862   2.002   9.579 -0.3544 -0.0371 -0.3595
  228loPI   C3A 3641   4.868   2.090   9.159 -0.0723 -0.2056  0.1110
  228loPI   C4A 3642   4.985   2.145   8.709 -0.4284 -0.0708 -0.4680
  228loPI   C5A 3643   4.865   2.062   8.273 -0.0406  0.3169  0.4439
  228loPI   C6A 3644   5.045   1.924   7.828 -0.5070  0.1307 -0.1555
  228loPI   C1B 3645   4.325   2.370   9.620 -0.1479  0.0192  0.2682
  228loPI   C2B 3646   4.477   2.400   9.173  0.2419 -0.3289 -0.0738
  228loPI   C3B 3647   4.595   2.525   8.804  0.2608 -0.0084 -0.0819
  228loPI   C4B 3648   4.782   2.559   8.407  0.0689 -0.2723  0.0628
  229loPI    C1 3649   3.324  15.423  10.847 -0.0126  0.0837  0.0703
  229loPI    C2 3650   3.371  15.677  11.152 -0.1771  0.1561  0.0370
  229loPI    C3 3651   3.108  15.377  11.180  0.1555 -0.1320  0.1513
  229loPI   PO4 3652   3.222  15.479  10.666 -0.0306 -0.2448 -0.0038
  229loPI   GL1 3653   2.978  15.566  10.427 -0.1308 -0.0184  0.3595
  229loPI   GL2 3654   3.255  15.689  10.190  0.1108 -0.2036  0.0794
  229loPI   C1A 3655   2.673  15.793  10.003 -0.0774  0.2692 -0.0176
  229loPI   C2A 3656   2.283  15.909   9.716  0.0456 -0.0554 -0.1106
  229loPI   C3A 3657   2.115  15.790   9.396 -0.1178  0.2493  0.0539
  229loPI   C4A 3658   1.851  16.022   9.155 -0.1897 -0.3176  0.0143
  229loPI   C5A 3659   1.689  16.282   8.746 -0.1434 -0.0703 -0.0265
  229loPI   C6A 3660   1.487  16.493   8.402 -0.0040  0.2130 -0.4182
  229loPI   C1B 3661   3.143  15.629   9.780 -0.2572 -0.0780  0.1009
  229loPI   C2B 3662   3.173  15.733   9.245  0.2792 -0.0416 -0.0616
  229loPI   C3B 3663   3.133  15.737   8.866 -0.3062  0.3200 -0.0560
  229loPI   C4B 3664   3.152  15.678   8.437 -0.4694 -0.2811 -0.1657
  230loPI    C1 3665   4.529  11.519  11.145 -0.0195  0.0409 -0.0626
  230loPI    C2 3666   4.396  11.222  11.378  0.0125 -0.0926 -0.2127
  230loPI    C3 3667   4.740  11.406  11.465 -0.0150 -0.0890 -0.1107
  230loPI   PO4 3668   4.439  11.364  10.898  0.4038 -0.2057 -0.1782
  230loPI   GL1 3669   4.557  11.405  10.445  0.0290  0.2041 -0.0383
  230loPI   GL2 3670   4.295  11.261  10.398  0.3891  0.0370  0.0655
  230loPI   C1A 3671   4.632  11.056  10.119 -0.0802 -0.0107  0.0446
  230loPI   C2A 3672   4.602  11.148   9.669 -0.2930 -0.0882 -0.0585
  230loPI   C3A 3673   4.527  11.213   9.266  0.3111  0.2485 -0.5072
  230loPI   C4A 3674   4.605  11.236   8.870 -0.0508 -0.0971  0.2829
  230loPI   C5A 3675   4.673  11.186   8.443  0.0143  0.0109  0.0438
  230loPI   C6A 3676   4.745  11.231   7.960  0.1898 -0.1881  0.3705
  230loPI   C1B 3677   4.188  11.323  10.038  0.0829 -0.0906  0.0173
  230loPI   C2B 3678   4.121  11.354   9.553  0.1466  0.0511  0.0031
  230loPI   C3B 3679   4.050  11.312   9.156 -0.2663  0.1991  0.0297
  230loPI   C4B 3680   4.133  11.290   8.677 -0.1296  0.1547  0.2019
  231loPI    C1 3681  14.557   7.093  11.083 -0.2463 -0.0712  0.0393
  231loPI    C2 3682  14.890   6.878  11.138 -0.0068  0.2622 -0.0758
  231loPI    C3 3683  14.619   6.906  11.431  0.1847  0.1909  0.1109
  231loPI   PO4 3684  14.627   7.218  10.854  0.3691  0.1563 -0.1411
  231loPI   GL1 3685  14.456   7.030  10.527  0.1349 -0.1089 -0.1005
  231loPI   GL2 3686  14.411   7.329  10.386  0.0412 -0.0481  0.1384
  231loPI   C1A 3687  14.550   6.869  10.197  0.1790  0.0617  0.0313
  231loPI   C2A 3688  14.531   6.943   9.774  0.2066 -0.3365  0.1933
  231loPI   C3A 3689  14.695   6.875   9.342 -0.0156  0.2976 -0.5312
  231loPI   C4A 3690  14.958   6.828   9.073 -0.1769 -0.1633 -0.0337
  231loPI   C5A 3691  15.103   6.758   8.724 -0.2285 -0.1135  0.0299
  231loPI   C6A 3692  15.010   6.842   8.352  0.4377 -0.1252  0.1404
  231loPI   C1B 3693  14.457   7.385   9.911 -0.2350  0.1673  0.2390
  231loPI   C2B 3694  14.474   7.494   9.453 -0.1851  0.1292 -0.1451
  231loPI   C3B 3695  14.432   7.302   9.122  0.1775 -0.1469 -0.1911
  231loPI   C4B 3696  14.586   7.071   8.798 -0.1358  0.3426  0.2040
  232loPI    C1 3697   2.230  10.528  11.287 -0.0316  0.0045  0.3163
  232loPI    C2 3698   1.870  10.399  11.403 -0.1030  0.1532  0.2635
  232loPI    C3 3699   2.197  10.284  11.601 -0.1682 -0.0733  0.2425
  232loPI   PO4 3700   2.152  10.684  11.064  0.2585  0.0323 -0.3110
  232loPI   GL1 3701   2.188  10.737  10.600  0.1383  0.0627  0.2238
  232loPI   GL2 3702   2.073  11.066  10.508  0.0372 -0.2235  0.0710
  232loPI   C1A 3703   2.095  10.730  10.178 -0.0863  0.1050 -0.1499
  232loPI   C2A 3704   1.930  10.756   9.764  0.1576  0.0690  0.1674
  232loPI   C3A 3705   2.018  10.746   9.417  0.1053  0.0225 -0.2856
  232loPI   C4A 3706   1.845  10.717   8.994 -0.0120  0.1570  0.4094
  232loPI   C5A 3707   1.951  10.946   8.569  0.0869  0.1308  0.0178
  232loPI   C6A 3708   1.902  11.210   8.273  0.1093  0.0031 -0.1788
  232loPI   C1B 3709   2.099  11.176  10.036  0.0969  0.0644 -0.0852
  232loPI   C2B 3710   1.933  11.236   9.713  0.0420  0.0289 -0.1322
  232loPI   C3B 3711   1.884  11.283   9.246  0.1106  0.1049 -0.0449
  232loPI   C4B 3712   1.906  11.363   8.828 -0.1987  0.1270 -0.0752
  233loPI    C1 3713   8.337   2.574  11.132  0.0744  0.0435 -0.0684
  233loPI    C2 3714   8.653   2.816  11.095  0.1012  0.0336  0.0874
  233loPI    C3 3715   8.681   2.482  11.313 -0.0004  0.0034  0.0550
  233loPI   PO4 3716   8.314   2.570  10.858  0.2404 -0.2222 -0.0292
  233loPI   GL1 3717   8.342   2.297  10.513  0.1288 -0.1099 -0.2233
  233loPI   GL2 3718   8.509   2.110  10.510  0.2223  0.1964 -0.2027
  233loPI   C1A 3719   8.129   2.287  10.046 -0.0479  0.2342  0.2762
  233loPI   C2A 3720   8.113   2.431   9.634 -0.0904  0.2506  0.0747
  233loPI   C3A 3721   8.260   2.479   9.302 -0.0503  0.1646 -0.2385
  233loPI   C4A 3722   8.154   2.590   8.889  0.2178 -0.1268  0.3218
  233loPI   C5A 3723   8.224   2.547   8.446  0.0175 -0.1182  0.1854
  233loPI   C6A 3724   7.950   2.645   8.085 -0.3738  0.0660  0.1152
  233loPI   C1B 3725   8.578   2.106  10.012  0.0826  0.0533 -0.0902
  233loPI   C2B 3726   8.596   2.086   9.605  0.2180  0.1476  0.2139
  233loPI   C3B 3727   8.625   2.101   9.222 -0.1050 -0.0092 -0.4415
  233loPI   C4B 3728   8.449   1.702   8.978  0.2929  0.3013 -0.2822
  234loPI    C1 3729  14.681  10.026  11.225 -0.1355  0.1321 -0.1660
  234loPI    C2 3730  14.460   9.825  11.491  0.1748  0.1518  0.1136
  234loPI    C3 3731  14.517  10.218  11.535  0.1601  0.1708 -0.0299
  234loPI   PO4 3732  14.600   9.993  11.015  0.1065 -0.1009 -0.0568
  234loPI   GL1 3733  14.281   9.978  10.727  0.0317  0.0684 -0.1310
  234loPI   GL2 3734  14.481   9.685  10.611  0.1136  0.2233  0.1619
  234loPI   C1A 3735  14.400  10.218  10.341 -0.1208 -0.0759 -0.3140
  234loPI   C2A 3736  14.379  10.169   9.891 -0.3386  0.2952 -0.0927
  234loPI   C3A 3737  14.435  10.270   9.421  0.3152 -0.1736 -0.2827
  234loPI   C4A 3738  14.347  10.445   8.952  0.2996 -0.0894  0.1023
  234loPI   C5A 3739  14.332  10.120   8.605  0.0021  0.0966 -0.0033
  234loPI   C6A 3740  14.029  10.061   8.239  0.2233 -0.0312  0.0419
  234loPI   C1B 3741  14.514   9.704  10.204  0.0204  0.0581 -0.3804
  234loPI   C2B 3742  14.531   9.716   9.754 -0.1103 -0.0583  0.0048
  234loPI   C3B 3743  14.556   9.747   9.285  0.2197  0.0267 -0.2399
  234loPI   C4B 3744  14.699   9.767   8.865 -0.1063  0.2738  0.2165
  235loPI    C1 3745  14.174  11.365  11.679  0.0918 -0.2323  0.0350
  235loPI    C2 3746  14.564  11.277  11.684  0.1175 -0.1180  0.4299
  235loPI    C3 3747  14.403  11.488  11.983 -0.2168 -0.0218  0.1882
  235loPI   PO4 3748  14.202  11.504  11.417  0.2525  0.0364  0.1655
  235loPI   GL1 3749  14.254  11.488  11.030  0.0627 -0.1462  0.5866
  235loPI   GL2 3750  14.140  11.779  10.972 -0.0195  0.0279  0.0603
  235loPI   C1A 3751  14.159  11.220  10.700  0.2408  0.0498 -0.0217
  235loPI   C2A 3752  14.118  11.131  10.300 -0.1303 -0.0442  0.0378
  235loPI   C3A 3753  14.135  11.143   9.764  0.3932 -0.3786 -0.3266
  235loPI   C4A 3754  14.165  11.341   9.410 -0.2966 -0.0218 -0.0860
  235loPI   C5A 3755  14.391  11.481   9.004  0.0150 -0.0146  0.1812
  235loPI   C6A 3756  14.325  11.849   8.702  0.0166  0.1048 -0.3143
  235loPI   C1B 3757  14.105  11.687  10.554 -0.1913  0.2085  0.1203
  235loPI   C2B 3758  14.049  11.609  10.100 -0.0988  0.1308  0.0941
  235loPI   C3B 3759  14.092  11.747   9.669 -0.0267 -0.3935  0.0394
  235loPI   C4B 3760  14.052  11.778   9.181 -0.1561 -0.0824 -0.4122
  236loPI    C1 3761  10.754   8.410  11.249  0.0131 -0.1666 -0.1322
  236loPI    C2 3762  10.409   8.249  11.372  0.1134 -0.3019 -0.0247
  236loPI    C3 3763  10.736   8.220  11.601  0.1167  0.1201  0.0319
  236loPI   PO4 3764  10.617   8.545  10.997 -0.1003 -0.2628 -0.4283
  236loPI   GL1 3765  10.522   8.465  10.597  0.1926 -0.1918  0.2623
  236loPI   GL2 3766  10.839   8.269  10.683 -0.0417  0.5122  0.4614
  236loPI   C1A 3767  10.497   8.430  10.173 -0.0906  0.0037 -0.1300
  236loPI   C2A 3768  10.229   8.488   9.831 -0.1171  0.0023 -0.2059
  236loPI   C3A 3769  10.113   8.540   9.414 -0.1166  0.0953 -0.2132
  236loPI   C4A 3770   9.806   8.776   9.231  0.1107 -0.3134  0.2205
  236loPI   C5A 3771   9.598   9.037   8.980  0.1093  0.4477 -0.0645
  236loPI   C6A 3772   9.672   9.037   8.492  0.0007  0.3519  0.1762
  236loPI   C1B 3773  10.959   8.427  10.320  0.0177  0.1894 -0.1403
  236loPI   C2B 3774  11.164   8.490   9.919 -0.0062 -0.0968 -0.1246
  236loPI   C3B 3775  11.065   8.646   9.509 -0.1748 -0.1854 -0.2817
  236loPI   C4B 3776  11.187   8.697   9.059 -0.2502 -0.0684  0.1218
  237loPI    C1 3777  11.282  16.887  11.025 -0.1563 -0.0900  0.0853
  237loPI    C2 3778  10.957  17.024  11.214 -0.0353  0.1511  0.1222
  237loPI    C3 3779  11.304  16.993  11.410 -0.0070  0.0073  0.0507
  237loPI   PO4 3780  11.260  16.636  10.894 -0.0395 -0.1784 -0.3280
  237loPI   GL1 3781  11.061  16.633  10.499 -0.2704 -0.2029  0.1583
  237loPI   GL2 3782  11.394  16.391  10.430  0.0066 -0.2034 -0.4061
  237loPI   C1A 3783  10.819  16.555  10.110 -0.0239  0.0507 -0.1729
  237loPI   C2A 3784  10.809  16.498   9.690 -0.1191 -0.2837 -0.0441
  237loPI   C3A 3785  10.800  16.552   9.222  0.0449  0.1529  0.3724
  237loPI   C4A 3786  10.890  16.651   8.785  0.2323 -0.0245  0.2397
  237loPI   C5A 3787  11.015  16.597   8.343 -0.1874 -0.0523 -0.0868
  237loPI   C6A 3788  11.153  16.802   7.979  0.1230  0.1379 -0.4083
  237loPI   C1B 3789  11.331  16.369  10.014 -0.0855 -0.0887 -0.2224
  237loPI   C2B 3790  11.275  16.363   9.620  0.0888 -0.0374 -0.0429
  237loPI   C3B 3791  11.323  16.405   9.225 -0.0922 -0.2090 -0.1136
  237loPI   C4B 3792  11.360  16.420   8.836 -0.3924 -0.2290 -0.0576
  238loPI    C1 3793   6.181   9.275  11.236  0.0610  0.2400 -0.1808
  238loPI    C2 3794   6.327   9.640  11.310  0.0106  0.1532  0.3902
  238loPI    C3 3795   6.395   9.341  11.568 -0.3448 -0.1287  0.1673
  238loPI   PO4 3796   6.265   9.248  10.975  0.0568  0.0288 -0.0433
  238loPI   GL1 3797   6.223   9.085  10.524 -0.1001  0.2345  0.0768
  238loPI   GL2 3798   5.946   9.305  10.478  0.2137  0.1124  0.0875
  238loPI   C1A 3799   6.211   8.961  10.168 -0.0105 -0.0331  0.0793
  238loPI   C2A 3800   6.172   9.001   9.744 -0.0518  0.2168 -0.1244
  238loPI   C3A 3801   6.211   9.026   9.290  0.2054 -0.1948  0.1392
  238loPI   C4A 3802   6.198   8.992   8.919 -0.1461  0.1867  0.1532
  238loPI   C5A 3803   6.085   8.890   8.487 -0.0113  0.1450  0.0305
  238loPI   C6A 3804   6.316   8.532   8.383 -0.1244  0.0022  0.0279
  238loPI   C1B 3805   5.808   9.256   9.992 -0.1385  0.0441 -0.0645
  238loPI   C2B 3806   5.864   9.280   9.559 -0.0746 -0.3894 -0.0652
  238loPI   C3B 3807   5.850   9.341   9.135  0.1210 -0.2047  0.0011
  238loPI   C4B 3808   5.920   9.309   8.712  0.0142  0.1460 -0.0363
  239loPI    C1 3809  16.871   3.009  10.547  0.1278  0.2458  0.2121
  239loPI    C2 3810  16.884   2.980  10.946 -0.0367  0.0415  0.2048
  239loPI    C3 3811  16.804   2.657  10.725 -0.1014  0.1860  0.0134
  239loPI   PO4 3812  16.948   3.190  10.440  0.0680 -0.1001 -0.2686
  239loPI   GL1 3813  17.126   3.280  10.107 -0.0444 -0.2761  0.3296
  239loPI   GL2 3814  17.161   3.546  10.118  0.1260  0.0904  0.3093
  239loPI   C1A 3815  16.909   3.087   9.651  0.0995  0.1799  0.2251
  239loPI   C2A 3816  17.022   3.015   9.224 -0.2244  0.2077 -0.2613
  239loPI   C3A 3817  16.932   3.075   8.804 -0.0027 -0.1970 -0.0518
  239loPI   C4A 3818  16.801   3.265   8.470  0.3078  0.0073  0.0304
  239loPI   C5A 3819  16.770   3.224   7.932 -0.0881  0.0363 -0.0598
  239loPI   C6A 3820  16.727   2.896   7.670  0.0099  0.1960 -0.1913
  239loPI   C1B 3821  17.306   3.663   9.738  0.0376 -0.1170 -0.1255
  239loPI   C2B 3822  17.259   3.545   9.415  0.0985  0.3432 -0.1457
  239loPI   C3B 3823  17.294   3.370   9.020  0.1504  0.0668  0.4049
  239loPI   C4B 3824  17.331   3.302   8.559 -0.0437  0.0477  0.0631
  240loPI    C1 3825  10.589  17.539  10.853 -0.0131 -0.0549  0.0104
  240loPI    C2 3826  10.569  17.788  11.165  0.2501  0.0403 -0.0451
  240loPI    C3 3827  10.629  17.397  11.224  0.2964  0.0575  0.0232
  240loPI   PO4 3828  10.724  17.581  10.717  0.0687  0.0353 -0.0264
  240loPI   GL1 3829  10.771  17.669  10.296 -0.0789  0.0531  0.2121
  240loPI   GL2 3830  10.456  17.740  10.331  0.1837  0.0451  0.0850
  240loPI   C1A 3831  10.610  17.522   9.875 -0.3643 -0.2233  0.1896
  240loPI   C2A 3832  10.628  17.576   9.441 -0.0400  0.0044 -0.0945
  240loPI   C3A 3833  10.635  17.528   8.929 -0.2664 -0.0031  0.1597
  240loPI   C4A 3834  10.773  17.750   8.522  0.1462 -0.0439 -0.0978
  240loPI   C5A 3835  10.887  18.221   8.368 -0.2234  0.0666 -0.2638
  240loPI   C6A 3836  11.094  18.541   8.511  0.1642 -0.1134  0.1257
  240loPI   C1B 3837  10.203  17.798  10.025 -0.0549 -0.1374  0.0845
  240loPI   C2B 3838  10.190  17.818   9.625 -0.2533 -0.4586  0.1309
  240loPI   C3B 3839  10.176  17.745   9.096 -0.0900  0.0218 -0.2115
  240loPI   C4B 3840  10.198  17.718   8.751 -0.0564  0.1444  0.0970
  241loPI    C1 3841  10.695  15.728  11.034  0.0780 -0.1057 -0.0646
  241loPI    C2 3842  10.773  16.029  11.286  0.0584 -0.1938  0.0478
  241loPI    C3 3843  10.749  15.654  11.424  0.2421 -0.2678 -0.1164
  241loPI   PO4 3844  10.863  15.842  10.821  0.0345  0.1385 -0.1516
  241loPI   GL1 3845  10.776  15.926  10.348  0.0896  0.1685 -0.2909
  241loPI   GL2 3846  10.968  16.129  10.400  0.1399  0.1528 -0.1605
  241loPI   C1A 3847  10.583  15.643  10.116 -0.2305 -0.4276 -0.2712
  241loPI   C2A 3848  10.497  15.724   9.649  0.1566  0.1373 -0.1990
  241loPI   C3A 3849  10.481  15.703   9.200  0.3470 -0.0439 -0.0638
  241loPI   C4A 3850  10.463  15.689   8.796 -0.0420  0.0278 -0.1238
  241loPI   C5A 3851  10.302  15.674   8.417  0.0866 -0.0167 -0.2520
  241loPI   C6A 3852   9.887  15.721   8.184  0.0938  0.0251 -0.5647
  241loPI   C1B 3853  10.930  16.049   9.873 -0.0209 -0.1256  0.1642
  241loPI   C2B 3854  10.814  15.995   9.430  0.0118 -0.3077  0.0659
  241loPI   C3B 3855  10.914  16.094   8.983  0.3243 -0.0449 -0.1108
  241loPI   C4B 3856  11.058  16.128   8.606  0.0969  0.0888  0.0177
  242loPI    C1 3857  10.433  10.241  11.245  0.1254 -0.0274 -0.0565
  242loPI    C2 3858  10.787  10.190  11.426  0.1434 -0.0842 -0.1073
  242loPI    C3 3859  10.449  10.181  11.640  0.1787  0.0648 -0.0444
  242loPI   PO4 3860  10.400  10.008  11.032 -0.1330 -0.0760  0.1005
  242loPI   GL1 3861  10.270   9.921  10.657  0.0191  0.0240  0.2754
  242loPI   GL2 3862  10.588   9.811  10.518 -0.1191 -0.1836  0.1663
  242loPI   C1A 3863  10.397  10.204  10.239  0.1537 -0.0514 -0.0168
  242loPI   C2A 3864  10.423  10.476  10.017 -0.2141 -0.0130  0.0153
  242loPI   C3A 3865  10.630  10.529   9.600  0.0697 -0.1540  0.0300
  242loPI   C4A 3866  10.752  10.584   9.195  0.0424  0.1525 -0.0807
  242loPI   C5A 3867  10.998  10.687   8.900  0.0457 -0.1783 -0.0290
  242loPI   C6A 3868  11.074  11.126   8.702  0.1156 -0.0572  0.2043
  242loPI   C1B 3869  10.634   9.804  10.082 -0.1249 -0.0072 -0.2621
  242loPI   C2B 3870  10.701   9.970   9.661  0.1533 -0.0139  0.2151
  242loPI   C3B 3871  10.868   9.962   9.235  0.1939  0.1488 -0.2129
  242loPI   C4B 3872  11.138  10.224   8.846  0.2268 -0.1745 -0.3159
  243loPI    C1 3873  14.428   0.712  10.664  0.1141 -0.0642  0.0293
  243loPI    C2 3874  14.356   1.031  10.434 -0.0660 -0.0625  0.0870
  243loPI    C3 3875  14.431   1.078  10.825 -0.2238 -0.0991  0.1225
  243loPI   PO4 3876  14.622   0.578  10.608 -0.2083 -0.0048  0.2110
  243loPI   GL1 3877  14.726   0.370  10.257 -0.0177  0.0979  0.0305
  243loPI   GL2 3878  14.404   0.370  10.206 -0.4357  0.0140 -0.3288
  243loPI   C1A 3879  15.050   0.434   9.908  0.2687 -0.4539 -0.2091
  243loPI   C2A 3880  15.123   0.328   9.561 -0.0640 -0.1098  0.3477
  243loPI   C3A 3881  15.075   0.083   9.156  0.1632 -0.1412  0.4924
  243loPI   C4A 3882  15.049   0.206   8.749  0.3315 -0.0629  0.1521
  243loPI   C5A 3883  14.853   0.561   8.456  0.0590  0.1804  0.0446
  243loPI   C6A 3884  14.775   0.933   8.323  0.0753 -0.0379  0.0468
  243loPI   C1B 3885  14.271   0.194   9.792 -0.0062  0.1342  0.1253
  243loPI   C2B 3886  14.258  -0.057   9.483 -0.1113  0.0873  0.1736
  243loPI   C3B 3887  14.219  -0.130   9.016  0.1755 -0.1658  0.1361
  243loPI   C4B 3888  14.121  -0.210   8.635  0.0652  0.4272 -0.1942
  244loPI    C1 3889   0.651  16.001  10.980  0.0315 -0.1297  0.1006
  244loPI    C2 3890   0.619  16.393  10.909  0.0168 -0.1051  0.2412
  244loPI    C3 3891   0.903  16.257  11.155  0.0794 -0.1916  0.1218
  244loPI   PO4 3892   0.600  15.863  10.773 -0.0735 -0.1356  0.0726
  244loPI   GL1 3893   0.419  15.683  10.382 -0.3039 -0.2550  0.0528
  244loPI   GL2 3894   0.538  15.839  10.250  0.1479  0.0221  0.1826
  244loPI   C1A 3895   0.128  15.445  10.086 -0.0018  0.0197  0.3667
  244loPI   C2A 3896  -0.015  15.142   9.821 -0.0485 -0.1635  0.2661
  244loPI   C3A 3897   0.024  15.164   9.294  0.3551  0.2632  0.0720
  244loPI   C4A 3898   0.145  15.153   8.966 -0.0490 -0.0303  0.1621
  244loPI   C5A 3899   0.299  15.160   8.625  0.0120 -0.0034  0.0286
  244loPI   C6A 3900   0.538  14.894   8.450  0.3943  0.0188  0.0337
  244loPI   C1B 3901   0.754  15.495  10.075  0.2134 -0.0402  0.1091
  244loPI   C2B 3902   0.796  15.129   9.789 -0.3506  0.0242  0.2562
  244loPI   C3B 3903   0.734  14.992   9.397  0.1627  0.0585 -0.1346
  244loPI   C4B 3904   0.559  14.928   9.074 -0.0510  0.3039 -0.0093
  245loPI    C1 3905  15.920  13.349  11.293 -0.0101 -0.0405 -0.0852
  245loPI    C2 3906  16.030  13.574  11.604 -0.0804  0.0080 -0.0951
  245loPI    C3 3907  15.773  13.272  11.656  0.0614 -0.1099 -0.0707
  245loPI   PO4 3908  15.788  13.508  11.129 -0.0044  0.3067  0.0638
  245loPI   GL1 3909  15.493  13.532  10.869  0.0296  0.1705 -0.1397
  245loPI   GL2 3910  15.496  13.208  10.784  0.0546  0.1947  0.0125
  245loPI   C1A 3911  15.438  13.601  10.413 -0.1189 -0.3915  0.0456
  245loPI   C2A 3912  15.462  13.607  10.046  0.0481  0.0496 -0.0069
  245loPI   C3A 3913  15.470  13.567   9.591  0.2739  0.3720 -0.2421
  245loPI   C4A 3914  15.510  13.582   9.133  0.0257  0.0567 -0.1883
  245loPI   C5A 3915  15.742  13.591   8.682 -0.0649  0.1774  0.0019
  245loPI   C6A 3916  16.056  13.709   8.547 -0.0177  0.1985 -0.1077
  245loPI   C1B 3917  15.530  13.114  10.361  0.3119 -0.0302 -0.0435
  245loPI   C2B 3918  15.517  13.035   9.927  0.2088 -0.0256 -0.0452
  245loPI   C3B 3919  15.536  13.069   9.472  0.0899  0.2355  0.1861
  245loPI   C4B 3920  15.657  13.104   9.057  0.1403  0.1426  0.0249
  246loPI    C1 3921   6.903   2.571  10.875  0.1407 -0.1093  0.3132
  246loPI    C2 3922   6.762   2.338  11.169 -0.2299 -0.2840  0.0066
  246loPI    C3 3923   6.524   2.610  10.998 -0.0022 -0.1479 -0.0996
  246loPI   PO4 3924   6.975   2.428  10.654 -0.1331  0.0585  0.0401
  246loPI   GL1 3925   6.879   2.453  10.324  0.0155 -0.0057 -0.1409
  246loPI   GL2 3926   6.630   2.278  10.170  0.1574  0.1273 -0.0713
  246loPI   C1A 3927   7.173   2.465   9.976  0.2182 -0.0598  0.6258
  246loPI   C2A 3928   7.192   2.582   9.509 -0.0185 -0.1394  0.1792
  246loPI   C3A 3929   7.317   2.614   9.035  0.0027  0.1879 -0.1000
  246loPI   C4A 3930   7.230   2.635   8.577  0.0573 -0.1923  0.0205
  246loPI   C5A 3931   7.083   2.847   8.213 -0.0433  0.3427 -0.0041
  246loPI   C6A 3932   6.783   3.033   7.960  0.0679  0.0142 -0.1171
  246loPI   C1B 3933   6.705   2.413   9.783  0.0718  0.0679  0.1167
  246loPI   C2B 3934   6.753   2.400   9.427 -0.0125  0.1368 -0.3463
  246loPI   C3B 3935   6.809   2.411   9.026 -0.0095 -0.1475 -0.0327
  246loPI   C4B 3936   6.750   2.502   8.555  0.3662 -0.4250 -0.1794
  247loPI    C1 3937   8.162  17.121  11.507 -0.1072 -0.0190 -0.1629
  247loPI    C2 3938   8.547  17.221  11.468  0.0146 -0.4529 -0.1287
  247loPI    C3 3939   8.371  17.236  11.827 -0.0759 -0.0127 -0.1856
  247loPI   PO4 3940   8.123  16.962  11.267 -0.2843  0.0889  0.1193
  247loPI   GL1 3941   8.191  16.904  10.812 -0.0897  0.0279 -0.0608
  247loPI   GL2 3942   8.041  17.111  10.637 -0.2048  0.0039 -0.0121
  247loPI   C1A 3943   8.230  16.700  10.331 -0.1704  0.1915 -0.0390
  247loPI   C2A 3944   8.145  16.694   9.948 -0.0064 -0.1852  0.1926
  247loPI   C3A 3945   8.067  16.696   9.462 -0.5378 -0.3109 -0.0395
  247loPI   C4A 3946   8.016  16.675   8.972  0.0520 -0.2682 -0.1945
  247loPI   C5A 3947   7.882  16.738   8.668  0.0746 -0.0869 -0.1323
  247loPI   C6A 3948   7.675  16.878   8.339  0.0462 -0.0058  0.1486
  247loPI   C1B 3949   8.126  17.206  10.259  0.1820  0.0415  0.0416
  247loPI   C2B 3950   8.058  17.194   9.886  0.0692  0.1381  0.1765
  247loPI   C3B 3951   7.935  17.204   9.467  0.2639  0.3496  0.3661
  247loPI   C4B 3952   7.978  17.196   9.016 -0.2286  0.3111  0.1975
  248loPI    C1 3953  11.691  10.978  11.381 -0.1304  0.4818 -0.2833
  248loPI    C2 3954  11.980  10.994  11.658 -0.1788 -0.0724 -0.1904
  248loPI    C3 3955  11.693  11.272  11.653 -0.1281 -0.0047  0.2620
  248loPI   PO4 3956  11.747  10.708  11.243 -0.1344 -0.1562 -0.2320
  248loPI   GL1 3957  11.792  10.637  10.881  0.0566 -0.1357 -0.0666
  248loPI   GL2 3958  11.763  10.380  10.867 -0.2028 -0.0418 -0.4375
  248loPI   C1A 3959  11.808  10.912  10.481  0.0124  0.2265 -0.0327
  248loPI   C2A 3960  11.840  11.042  10.051  0.1716 -0.1999 -0.0530
  248loPI   C3A 3961  11.830  11.040   9.604  0.0758 -0.0272  0.2429
  248loPI   C4A 3962  11.918  11.150   9.230  0.0887  0.2515 -0.1160
  248loPI   C5A 3963  11.849  11.432   8.893 -0.1947  0.1843 -0.1443
  248loPI   C6A 3964  11.980  11.397   8.438 -0.0669 -0.1616 -0.1180
  248loPI   C1B 3965  11.842  10.406  10.397  0.0029  0.3135  0.0346
  248loPI   C2B 3966  11.987  10.561  10.033 -0.1065  0.1808  0.3084
  248loPI   C3B 3967  11.992  10.610   9.569 -0.3218  0.0680 -0.2937
  248loPI   C4B 3968  11.958  10.646   9.087 -0.1596 -0.0927 -0.1467
  249loPI    C1 3969  13.083   0.411  10.560 -0.1802 -0.2073  0.1294
  249loPI    C2 3970  13.377   0.444  10.829 -0.2168  0.0917  0.1364
  249loPI    C3 3971  13.010   0.575  10.917 -0.3099 -0.1136  0.0607
  249loPI   PO4 3972  13.015   0.133  10.457 -0.1933  0.0807 -0.0097
  249loPI   GL1 3973  13.101  -0.096  10.116  0.0440 -0.0086 -0.0144
  249loPI   GL2 3974  13.392   0.002  10.065 -0.0805  0.0724  0.1377
  249loPI   C1A 3975  12.804  -0.062   9.864  0.0021  0.0548 -0.1416
  249loPI   C2A 3976  12.727  -0.018   9.372  0.5156 -0.2462  0.2159
  249loPI   C3A 3977  12.761   0.124   8.977 -0.1313 -0.0259 -0.1435
  249loPI   C4A 3978  12.664   0.292   8.556  0.2847  0.2224 -0.0718
  249loPI   C5A 3979  12.640   0.537   8.266 -0.0983  0.0029 -0.2476
  249loPI   C6A 3980  12.525   0.886   8.261 -0.1059 -0.2503 -0.2371
  249loPI   C1B 3981  13.371  -0.092   9.685  0.0854  0.0805  0.3110
  249loPI   C2B 3982  13.195  -0.195   9.248 -0.0434  0.2046 -0.1966
  249loPI   C3B 3983  13.128  -0.248   8.838 -0.0525 -0.2292 -0.4992
  249loPI   C4B 3984  13.127   0.020   8.553  0.0736 -0.1203 -0.0668
  250loPI    C1 3985   7.786  16.451  11.030 -0.2100 -0.0581 -0.0067
  250loPI    C2 3986   7.709  16.298  11.391  0.0527  0.1246  0.1297
  250loPI    C3 3987   7.740  16.694  11.344 -0.0554  0.1064 -0.1091
  250loPI   PO4 3988   7.622  16.324  10.916  0.0378 -0.2899 -0.0240
  250loPI   GL1 3989   7.348  16.557  10.627 -0.2290 -0.0399 -0.2738
  250loPI   GL2 3990   7.701  16.712  10.582 -0.1289  0.1146 -0.3073
  250loPI   C1A 3991   7.322  16.521  10.244  0.2871 -0.3094 -0.1216
  250loPI   C2A 3992   7.237  16.612   9.798 -0.0901 -0.3503  0.0220
  250loPI   C3A 3993   7.237  16.625   9.331  0.1483 -0.1353 -0.3332
  250loPI   C4A 3994   7.203  16.527   8.922  0.1512 -0.3777 -0.0876
  250loPI   C5A 3995   7.442  16.580   8.630 -0.0366  0.1355 -0.1573
  250loPI   C6A 3996   7.741  16.325   8.450 -0.2501  0.4345 -0.0594
  250loPI   C1B 3997   7.753  16.864  10.184  0.1529  0.0087  0.0762
  250loPI   C2B 3998   7.690  16.864   9.730  0.2392  0.2012 -0.1554
  250loPI   C3B 3999   7.638  16.886   9.264  0.3092 -0.2313  0.2052
  250loPI   C4B 4000   7.486  17.042   8.879  0.0411 -0.3563 -0.0315
  251loPI    C1 4001  14.487   8.410  11.526  0.1443 -0.0764  0.1375
  251loPI    C2 4002  14.232   8.111  11.603  0.0904 -0.0573  0.0341
  251loPI    C3 4003  14.559   8.044  11.382  0.1626 -0.0761  0.1457
  251loPI   PO4 4004  14.346   8.595  11.369  0.1179 -0.0129 -0.0453
  251loPI   GL1 4005  14.382   8.576  10.887 -0.1387 -0.2320  0.1837
  251loPI   GL2 4006  14.108   8.556  10.827 -0.1114 -0.0087  0.1374
  251loPI   C1A 4007  14.619   8.595  10.573 -0.1040 -0.2209 -0.2515
  251loPI   C2A 4008  14.617   8.681  10.099  0.0759 -0.3892 -0.0592
  251loPI   C3A 4009  14.727   8.666   9.755  0.1384 -0.2618  0.2430
  251loPI   C4A 4010  14.758   8.706   9.302  0.0287 -0.3219  0.0042
  251loPI   C5A 4011  14.869   8.837   8.903  0.1560 -0.0941  0.3017
  251loPI   C6A 4012  14.750   8.774   8.456  0.3719  0.0804 -0.0394
  251loPI   C1B 4013  14.272   8.266  10.520  0.4058  0.0880 -0.2187
  251loPI   C2B 4014  14.215   8.326  10.081 -0.3507 -0.0877  0.3253
  251loPI   C3B 4015  14.352   8.472   9.553 -0.0463  0.0469 -0.2638
  251loPI   C4B 4016  14.375   8.414   9.106 -0.0545  0.3123  0.2375
  252loPI    C1 4017  15.689   7.661  11.111  0.1603  0.1514  0.1215
  252loPI    C2 4018  15.463   7.844  11.385 -0.1609 -0.1542  0.0676
  252loPI    C3 4019  15.800   7.659  11.495 -0.0606  0.0951  0.1865
  252loPI   PO4 4020  15.438   7.624  10.902 -0.1275  0.0359 -0.3131
  252loPI   GL1 4021  15.369   7.680  10.451  0.1877  0.0565 -0.0300
  252loPI   GL2 4022  15.302   7.351  10.350 -0.1095  0.2028  0.2468
  252loPI   C1A 4023  15.308   7.984  10.065  0.0909  0.1574 -0.0024
  252loPI   C2A 4024  15.380   8.087   9.608  0.0964 -0.1536 -0.1118
  252loPI   C3A 4025  15.440   8.050   9.172  0.2901  0.3308  0.0672
  252loPI   C4A 4026  15.447   8.048   8.779  0.0911 -0.1829  0.2977
  252loPI   C5A 4027  15.496   8.114   8.321  0.0182  0.0383 -0.0406
  252loPI   C6A 4028  15.925   8.208   8.172  0.0247  0.1742  0.0853
  252loPI   C1B 4029  15.420   7.489   9.972  0.1391 -0.0644 -0.0930
  252loPI   C2B 4030  15.401   7.533   9.570  0.0585 -0.0516  0.0162
  252loPI   C3B 4031  15.480   7.510   9.052  0.0458  0.2400  0.2367
  252loPI   C4B 4032  15.454   7.557   8.680  0.1029 -0.0354  0.2736
  253loPI    C1 4033  17.017  16.559  10.969 -0.0171  0.2495 -0.0620
  253loPI    C2 4034  17.374  16.380  10.986 -0.1775 -0.0497  0.2905
  253loPI    C3 4035  17.270  16.646  11.266 -0.0875  0.3245 -0.0235
  253loPI   PO4 4036  16.893  16.318  10.871  0.1335  0.2218  0.1874
  253loPI   GL1 4037  16.646  16.012  10.584  0.1708 -0.0612  0.0162
  253loPI   GL2 4038  16.998  16.123  10.396 -0.0962  0.1285 -0.1316
  253loPI   C1A 4039  16.411  15.888  10.185 -0.1150  0.2137 -0.0981
  253loPI   C2A 4040  16.596  15.678   9.785  0.3206  0.2365 -0.0255
  253loPI   C3A 4041  16.432  15.605   9.369  0.2231  0.1769 -0.0054
  253loPI   C4A 4042  16.330  15.511   8.894  0.1165 -0.0975 -0.0202
  253loPI   C5A 4043  16.428  15.520   8.438 -0.0464  0.0944 -0.2038
  253loPI   C6A 4044  16.565  15.500   7.979 -0.2288 -0.3497 -0.2677
  253loPI   C1B 4045  16.828  16.098  10.001  0.1501 -0.2592 -0.0984
  253loPI   C2B 4046  16.879  16.057   9.586 -0.1511  0.0756  0.0098
  253loPI   C3B 4047  16.869  15.843   9.249 -0.1562 -0.1242  0.4178
  253loPI   C4B 4048  16.741  15.765   8.845 -0.2089 -0.1339 -0.0305
  254loPI    C1 4049   6.141   8.719  11.117  0.2141  0.0541  0.1588
  254loPI    C2 4050   6.197   8.804  11.504 -0.0311  0.1606  0.1724
  254loPI    C3 4051   5.834   8.848  11.340  0.0240 -0.0838 -0.0196
  254loPI   PO4 4052   6.251   8.536  10.956  0.5381  0.3855  0.1646
  254loPI   GL1 4053   6.387   8.410  10.553 -0.1237  0.1599 -0.0968
  254loPI   GL2 4054   6.091   8.563  10.452  0.0007 -0.0710  0.1153
  254loPI   C1A 4055   6.588   8.702  10.298 -0.0352 -0.0107 -0.0615
  254loPI   C2A 4056   6.629   8.659   9.900 -0.1349 -0.2297  0.2708
  254loPI   C3A 4057   6.619   8.662   9.468 -0.1474  0.0233 -0.0039
  254loPI   C4A 4058   6.655   8.711   8.994 -0.1729 -0.0582  0.1214
  254loPI   C5A 4059   6.580   8.824   8.637 -0.0220 -0.1141 -0.1454
  254loPI   C6A 4060   6.938   8.906   8.389 -0.2747  0.0561  0.0549
  254loPI   C1B 4061   6.155   8.428  10.085  0.1994 -0.3042 -0.0443
  254loPI   C2B 4062   6.162   8.523   9.711  0.0946  0.0723 -0.1063
  254loPI   C3B 4063   6.176   8.493   9.250 -0.0613  0.0675  0.1062
  254loPI   C4B 4064   6.110   8.502   8.863  0.0363  0.0177  0.1192
  255loPI    C1 4065   9.728   1.287  10.906 -0.2195  0.0804  0.0588
  255loPI    C2 4066   9.865   1.581  11.140 -0.0310 -0.0016  0.0534
  255loPI    C3 4067  10.088   1.255  11.078 -0.1620 -0.0658 -0.0861
  255loPI   PO4 4068   9.624   1.343  10.660  0.1474 -0.0905  0.1095
  255loPI   GL1 4069   9.575   1.193  10.310 -0.0764  0.0795  0.3051
  255loPI   GL2 4070   9.373   0.786  10.212 -0.3299 -0.1809  0.0494
  255loPI   C1A 4071   9.315   1.261   9.873 -0.0048  0.1252 -0.2101
  255loPI   C2A 4072   9.124   1.302   9.380  0.1307 -0.0430  0.1967
  255loPI   C3A 4073   9.268   1.188   9.020  0.0604  0.2181  0.1132
  255loPI   C4A 4074   9.432   1.147   8.592  0.3633  0.1865 -0.2411
  255loPI   C5A 4075   9.764   1.031   8.395  0.2568  0.0104  0.4078
  255loPI   C6A 4076   9.956   0.690   8.235 -0.1105  0.0270  0.0891
  255loPI   C1B 4077   9.191   0.752   9.811  0.1464  0.0052  0.1312
  255loPI   C2B 4078   9.169   0.721   9.338  0.0498  0.1323 -0.2606
  255loPI   C3B 4079   9.016   0.741   8.886 -0.0868  0.1222 -0.1478
  255loPI   C4B 4080   8.996   0.807   8.527 -0.2244  0.0136  0.2305
  256loPI    C1 4081   0.011   9.817  10.957  0.0427  0.1017  0.0262
  256loPI    C2 4082   0.364   9.840  11.143  0.0751  0.0011 -0.0220
  256loPI    C3 4083   0.054   9.664  11.324  0.0823 -0.0173 -0.0276
  256loPI   PO4 4084   0.056   9.753  10.699  0.1698  0.0141 -0.0481
  256loPI   GL1 4085   0.187   9.975  10.326  0.1671 -0.0822 -0.1728
  256loPI   GL2 4086   0.418  10.108  10.258 -0.0560  0.2070 -0.1145
  256loPI   C1A 4087  -0.146  10.037  10.100 -0.3560 -0.1550  0.0720
  256loPI   C2A 4088  -0.091  10.001   9.608  0.0286  0.0415 -0.0070
  256loPI   C3A 4089  -0.150  10.013   9.141 -0.0169 -0.2939  0.0612
  256loPI   C4A 4090  -0.256  10.143   8.783 -0.2145  0.0771 -0.1572
  256loPI   C5A 4091  -0.403  10.488   8.482  0.1283 -0.1217 -0.1292
  256loPI   C6A 4092  -0.675  10.688   8.177 -0.1618  0.1565 -0.0297
  256loPI   C1B 4093   0.399   9.890   9.825  0.1420  0.0099 -0.3042
  256loPI   C2B 4094   0.382   9.847   9.419  0.1778 -0.1885  0.0300
  256loPI   C3B 4095   0.366   9.975   8.897 -0.1424 -0.0816  0.1944
  256loPI   C4B 4096   0.493  10.178   8.537 -0.1268  0.5283 -0.2688
  257loPI    C1 4097  10.648   6.025  11.050  0.0500 -0.0232  0.0772
  257loPI    C2 4098  10.863   5.939  11.376  0.0894 -0.0046  0.0563
  257loPI    C3 4099  10.470   6.006  11.407  0.0651 -0.1529  0.0785
  257loPI   PO4 4100  10.874   6.217  10.867  0.1030 -0.4514  0.0765
  257loPI   GL1 4101  11.018   6.155  10.472  0.0597 -0.0156 -0.1472
  257loPI   GL2 4102  10.895   6.538  10.437  0.2217  0.0672  0.0559
  257loPI   C1A 4103  10.720   6.149  10.138 -0.3307 -0.2066  0.1885
  257loPI   C2A 4104  10.506   5.972   9.757  0.1367  0.0309 -0.1245
  257loPI   C3A 4105  10.156   5.735   9.729 -0.1438  0.1022  0.2808
  257loPI   C4A 4106   9.837   5.748   9.440 -0.1925  0.2371  0.0002
  257loPI   C5A 4107   9.527   6.056   9.321 -0.2403 -0.0485  0.1218
  257loPI   C6A 4108   9.643   6.334   8.977 -0.3996 -0.1866  0.2951
  257loPI   C1B 4109  11.164   6.382  10.054 -0.0097 -0.0689 -0.2768
  257loPI   C2B 4110  11.346   6.581   9.659 -0.2830  0.1005 -0.3943
  257loPI   C3B 4111  11.434   7.071   9.538 -0.0725  0.0179 -0.0082
  257loPI   C4B 4112  11.754   7.299   9.332  0.0545 -0.2287 -0.0003
  258loPI    C1 4113   2.970   0.997  10.531  0.0628 -0.1112  0.0684
  258loPI    C2 4114   2.602   0.990  10.688  0.0491 -0.2381  0.0312
  258loPI    C3 4115   2.917   0.890  10.913  0.0731 -0.0258  0.0942
  258loPI   PO4 4116   3.079   1.258  10.414  0.2913  0.3493  0.3024
  258loPI   GL1 4117   3.423   1.333  10.076  0.0605  0.2590  0.0461
  258loPI   GL2 4118   3.354   1.069   9.948 -0.2769  0.2561  0.1102
  258loPI   C1A 4119   3.407   1.440   9.614  0.0232 -0.1524  0.2022
  258loPI   C2A 4120   3.470   1.435   9.252  0.1591 -0.0300  0.0971
  258loPI   C3A 4121   3.560   1.415   8.802  0.1258  0.1621  0.1073
  258loPI   C4A 4122   3.938   1.304   8.414  0.0455 -0.1475 -0.2191
  258loPI   C5A 4123   4.146   1.136   8.130  0.0457  0.3349  0.0868
  258loPI   C6A 4124   4.300   0.781   7.942  0.3308 -0.1454  0.0970
  258loPI   C1B 4125   3.330   0.880   9.601 -0.1282 -0.0705  0.2806
  258loPI   C2B 4126   3.318   0.772   9.066  0.0329 -0.0232 -0.1930
  258loPI   C3B 4127   3.565   0.820   8.615 -0.1631 -0.1488 -0.2361
  258loPI   C4B 4128   3.814   0.796   8.229  0.2616 -0.2131  0.2091
  259loPI    C1 4129   0.205  16.295  11.128  0.1129  0.2351 -0.0178
  259loPI    C2 4130  -0.113  16.186  11.345  0.1811  0.2349  0.0824
  259loPI    C3 4131   0.222  16.307  11.527  0.3299 -0.0193 -0.0161
  259loPI   PO4 4132   0.100  16.330  10.909 -0.2380  0.1600  0.0697
  259loPI   GL1 4133   0.221  16.187  10.565 -0.1928  0.3003 -0.3376
  259loPI   GL2 4134   0.344  16.450  10.439  0.0227  0.1954  0.0089
  259loPI   C1A 4135   0.036  15.983  10.240  0.1587  0.0082  0.1907
  259loPI   C2A 4136  -0.096  15.791   9.851  0.2633 -0.1074 -0.0193
  259loPI   C3A 4137  -0.011  15.673   9.497  0.1411  0.0966  0.2478
  259loPI   C4A 4138   0.049  15.634   9.055  0.1153  0.0390 -0.1703
  259loPI   C5A 4139   0.314  15.721   8.631  0.0588  0.1361 -0.1702
  259loPI   C6A 4140   0.626  15.647   8.369 -0.2374  0.1431  0.2645
  259loPI   C1B 4141   0.479  16.348  10.090  0.0069  0.1696 -0.0023
  259loPI   C2B 4142   0.344  16.106   9.826 -0.4224  0.2891  0.2423
  259loPI   C3B 4143   0.397  15.705   9.730 -0.1677  0.1493  0.1799
  259loPI   C4B 4144   0.410  15.374   9.607  0.2340 -0.3294  0.0068
  260loPI    C1 4145   7.227   7.746  11.180 -0.0479 -0.1470 -0.0156
  260loPI    C2 4146   7.238   7.350  11.232  0.1369 -0.1428 -0.0145
  260loPI    C3 4147   7.128   7.588  11.534 -0.2388 -0.2077 -0.0952
  260loPI   PO4 4148   7.477   7.764  11.008  0.0107 -0.1614 -0.0943
  260loPI   GL1 4149   7.683   8.155  10.721 -0.0256  0.0983 -0.0552
  260loPI   GL2 4150   7.439   7.971  10.508  0.0670 -0.0055  0.0458
  260loPI   C1A 4151   7.611   8.450  10.254 -0.1804  0.0323  0.2512
  260loPI   C2A 4152   7.464   8.535   9.874 -0.2238 -0.0414 -0.2332
  260loPI   C3A 4153   7.533   8.584   9.410 -0.0912 -0.0177  0.0575
  260loPI   C4A 4154   7.637   8.698   8.989 -0.0196 -0.2735 -0.1429
  260loPI   C5A 4155   7.443   8.744   8.588  0.0345  0.2047  0.2180
  260loPI   C6A 4156   7.218   8.489   8.186  0.2482 -0.0571 -0.0839
  260loPI   C1B 4157   7.525   7.968  10.155 -0.0404 -0.3013 -0.4024
  260loPI   C2B 4158   7.545   8.071   9.752  0.2720  0.1208 -0.2013
  260loPI   C3B 4159   7.508   8.085   9.382  0.1166  0.2480 -0.1650
  260loPI   C4B 4160   7.502   8.210   8.936 -0.2416 -0.0898 -0.2169
  261loPI    C1 4161  12.416   3.614  10.561 -0.0044 -0.1219 -0.0968
  261loPI    C2 4162  12.201   3.299  10.683 -0.0844 -0.1009 -0.1816
  261loPI    C3 4163  12.476   3.461  10.925 -0.2250 -0.0736 -0.0389
  261loPI   PO4 4164  12.225   3.709  10.354 -0.0081 -0.2215 -0.2622
  261loPI   GL1 4165  12.056   3.952  10.196 -0.0370  0.3564  0.0641
  261loPI   GL2 4166  12.165   4.186   9.950 -0.3882 -0.2091  0.2877
  261loPI   C1A 4167  11.710   3.910   9.917  0.1761  0.0973 -0.4868
  261loPI   C2A 4168  11.520   4.005   9.526 -0.2980 -0.1649  0.0064
  261loPI   C3A 4169  11.687   3.848   9.118 -0.1636  0.0454 -0.3816
  261loPI   C4A 4170  11.808   3.592   8.764  0.0725 -0.1083 -0.0491
  261loPI   C5A 4171  11.571   3.636   8.386 -0.1432  0.1088  0.1958
  261loPI   C6A 4172  11.519   3.465   8.096 -0.0423  0.0614  0.0023
  261loPI   C1B 4173  12.304   4.312   9.494  0.2088 -0.1252 -0.1387
  261loPI   C2B 4174  12.114   4.315   9.108 -0.2050  0.1996 -0.1467
  261loPI   C3B 4175  12.063   4.082   8.721 -0.0107  0.2173 -0.0394
  261loPI   C4B 4176  11.950   3.998   8.247  0.2731  0.0062  0.0956
  262loPI    C1 4177   3.805   1.818  10.825  0.0876  0.1376  0.0464
  262loPI    C2 4178   3.886   2.184  10.964 -0.1011  0.1920  0.0159
  262loPI    C3 4179   3.519   2.030  11.009 -0.1221  0.1487 -0.2840
  262loPI   PO4 4180   3.801   1.839  10.581 -0.0104  0.1146  0.1686
  262loPI   GL1 4181   3.683   1.891  10.077 -0.0210 -0.0091  0.1258
  262loPI   GL2 4182   3.477   1.883   9.830 -0.0609 -0.0222  0.1960
  262loPI   C1A 4183   3.888   2.139   9.670  0.2162 -0.2798 -0.0631
  262loPI   C2A 4184   3.946   2.204   9.284 -0.3755 -0.1933 -0.4081
  262loPI   C3A 4185   4.096   2.220   8.903  0.0671 -0.0734  0.2576
  262loPI   C4A 4186   3.951   2.335   8.442 -0.0835 -0.1432 -0.0153
  262loPI   C5A 4187   3.697   2.289   8.052  0.1606 -0.0782  0.0042
  262loPI   C6A 4188   3.451   2.016   7.697  0.2536  0.1600 -0.1630
  262loPI   C1B 4189   3.523   1.914   9.370  0.0510  0.3296  0.3321
  262loPI   C2B 4190   3.537   2.086   9.033  0.0517 -0.1167 -0.2156
  262loPI   C3B 4191   3.567   2.396   8.788  0.0882  0.0148 -0.0005
  262loPI   C4B 4192   3.430   2.634   8.447 -0.0826  0.2851 -0.0166
  263loPI    C1 4193   3.977   7.459  10.616 -0.0944 -0.0606  0.0760
  263loPI    C2 4194   4.069   7.789  10.822  0.0460  0.0708 -0.1912
  263loPI    C3 4195   3.736   7.585  10.908  0.1705  0.0444  0.2527
  263loPI   PO4 4196   3.980   7.563  10.386  0.1186  0.0881  0.2895
  263loPI   GL1 4197   4.125   7.707  10.037  0.1741  0.1149  0.0232
  263loPI   GL2 4198   4.492   7.760  10.265 -0.0712  0.0015  0.1479
  263loPI   C1A 4199   4.195   8.138   9.916 -0.0477  0.2904  0.0710
  263loPI   C2A 4200   4.289   8.182   9.489 -0.0450  0.5770  0.0910
  263loPI   C3A 4201   4.308   8.249   9.030  0.1161  0.3393  0.0070
  263loPI   C4A 4202   4.490   8.236   8.567 -0.1787 -0.1109 -0.0329
  263loPI   C5A 4203   4.452   8.046   8.117  0.0066 -0.1301 -0.2057
  263loPI   C6A 4204   4.661   8.106   7.744  0.1160 -0.0120 -0.3961
  263loPI   C1B 4205   4.608   7.778   9.871 -0.0781  0.3491  0.1467
  263loPI   C2B 4206   4.675   7.880   9.411 -0.0627 -0.1995  0.1785
  263loPI   C3B 4207   4.870   7.917   8.936  0.0007  0.2515  0.1478
  263loPI   C4B 4208   4.844   7.843   8.487 -0.2025 -0.2783  0.0868
  264loPI    C1 4209  10.609  15.247  11.148 -0.1830 -0.2846 -0.0342
  264loPI    C2 4210  10.991  15.209  11.261 -0.1478  0.0173 -0.0445
  264loPI    C3 4211  10.697  15.166  11.529 -0.1006 -0.0754 -0.0074
  264loPI   PO4 4212  10.609  15.066  10.849 -0.1589  0.1171  0.1103
  264loPI   GL1 4213  10.725  15.189  10.359  0.1178 -0.1939 -0.2198
  264loPI   GL2 4214  10.952  15.451  10.309 -0.3999 -0.1792 -0.0852
  264loPI   C1A 4215  10.590  15.201   9.947 -0.0134  0.1953  0.2144
  264loPI   C2A 4216  10.623  15.244   9.510  0.1328  0.0716 -0.0268
  264loPI   C3A 4217  10.589  15.246   9.086  0.1162 -0.0871 -0.2365
  264loPI   C4A 4218  10.521  15.201   8.656  0.2046 -0.1920  0.0882
  264loPI   C5A 4219  10.665  15.212   8.188 -0.4160  0.0522  0.1782
  264loPI   C6A 4220  10.420  15.478   7.866 -0.1315  0.4863  0.0191
  264loPI   C1B 4221  10.956  15.492   9.871  0.0639 -0.1896 -0.2387
  264loPI   C2B 4222  10.989  15.562   9.386  0.1409 -0.0582  0.0514
  264loPI   C3B 4223  10.982  15.538   8.952 -0.0287 -0.0482  0.1865
  264loPI   C4B 4224  10.937  15.588   8.613 -0.0823  0.2603  0.0863
  265loPI    C1 4225  11.871   8.348  10.916  0.1963 -0.0652 -0.1562
  265loPI    C2 4226  12.061   8.380  11.266  0.1014 -0.1878 -0.0926
  265loPI    C3 4227  12.266   8.408  10.924  0.1822  0.0138 -0.0291
  265loPI   PO4 4228  11.629   8.129  10.987  0.1402 -0.0186 -0.0180
  265loPI   GL1 4229  11.308   8.052  10.628  0.1561  0.0050  0.0743
  265loPI   GL2 4230  11.357   7.712  10.478  0.0797  0.3527  0.0474
  265loPI   C1A 4231  11.507   8.314  10.280  0.0217  0.1111 -0.1083
  265loPI   C2A 4232  11.737   8.572  10.020 -0.4033  0.0412 -0.0808
  265loPI   C3A 4233  11.897   8.736   9.703 -0.1045  0.1339 -0.3855
  265loPI   C4A 4234  11.945   8.725   9.349  0.0469  0.2446  0.0921
  265loPI   C5A 4235  12.041   8.615   8.873  0.0535  0.1869 -0.0013
  265loPI   C6A 4236  12.225   8.383   8.499  0.0617  0.1103  0.0192
  265loPI   C1B 4237  11.581   7.734  10.151 -0.1110 -0.0585  0.2703
  265loPI   C2B 4238  11.550   8.017   9.800  0.2204  0.1090  0.0245
  265loPI   C3B 4239  11.519   8.380   9.477  0.2716  0.1010 -0.1515
  265loPI   C4B 4240  11.560   8.368   9.035  0.0006  0.3325  0.0985
  266loPI    C1 4241   2.208   2.445  10.449  0.0312 -0.0533  0.2412
  266loPI    C2 4242   2.256   2.411  10.845  0.1738 -0.0137  0.2280
  266loPI    C3 4243   2.567   2.355  10.600  0.0925 -0.0096  0.1228
  266loPI   PO4 4244   2.161   2.681  10.429 -0.2352  0.1631  0.1587
  266loPI   GL1 4245   2.088   3.119  10.237 -0.1308  0.0866 -0.2570
  266loPI   GL2 4246   2.484   3.217  10.151  0.1977 -0.3366 -0.0992
  266loPI   C1A 4247   2.132   3.384   9.899  0.1513  0.0062 -0.1452
  266loPI   C2A 4248   2.268   3.526   9.515 -0.1575  0.1985 -0.1637
  266loPI   C3A 4249   2.343   3.483   9.087  0.1567  0.2298 -0.1003
  266loPI   C4A 4250   2.402   3.462   8.645 -0.2299  0.3211 -0.2010
  266loPI   C5A 4251   2.152   3.643   8.296 -0.2313  0.0542 -0.0411
  266loPI   C6A 4252   2.065   3.688   7.919 -0.1161  0.2285  0.0353
  266loPI   C1B 4253   2.644   3.104   9.816  0.2411 -0.0045 -0.1128
  266loPI   C2B 4254   2.623   3.126   9.317  0.1778  0.3390  0.0693
  266loPI   C3B 4255   2.775   3.187   8.937  0.0318 -0.0485  0.1373
  266loPI   C4B 4256   2.759   3.203   8.424 -0.2697  0.1880  0.1536
  267loPI    C1 4257   6.358   7.360  11.378  0.2703 -0.0648 -0.0617
  267loPI    C2 4258   6.396   7.756  11.418  0.0039 -0.0280 -0.1512
  267loPI    C3 4259   6.644   7.511  11.613  0.1220  0.1810 -0.0347
  267loPI   PO4 4260   6.178   7.356  11.228 -0.1968 -0.0083  0.1268
  267loPI   GL1 4261   6.196   7.409  10.826 -0.0803 -0.1812  0.0751
  267loPI   GL2 4262   6.405   7.591  10.836 -0.0806  0.2245 -0.1350
  267loPI   C1A 4263   6.094   7.393  10.355  0.1554 -0.2791  0.1856
  267loPI   C2A 4264   6.110   7.411   9.934  0.4106 -0.1084  0.0058
  267loPI   C3A 4265   6.051   7.479   9.522  0.0692 -0.3740  0.2052
  267loPI   C4A 4266   6.093   7.462   9.058 -0.0877  0.3321  0.1938
  267loPI   C5A 4267   6.105   7.161   8.791  0.2447 -0.1246  0.3054
  267loPI   C6A 4268   6.392   7.150   8.347 -0.1446  0.1675 -0.3074
  267loPI   C1B 4269   6.525   7.604  10.333 -0.0778  0.1513  0.0501
  267loPI   C2B 4270   6.577   7.702   9.887 -0.0550 -0.0460  0.0013
  267loPI   C3B 4271   6.487   7.722   9.450 -0.0618  0.0406  0.0088
  267loPI   C4B 4272   6.543   7.726   9.021 -0.1099  0.1000 -0.1927
  268loPI    C1 4273  11.181   5.809  10.958  0.0999 -0.0440 -0.1843
  268loPI    C2 4274  11.395   5.471  10.942  0.1940  0.0081 -0.0483
  268loPI    C3 4275  11.188   5.561  11.272  0.1396  0.0656 -0.0978
  268loPI   PO4 4276  11.356   5.969  10.860  0.2611 -0.1333  0.1618
  268loPI   GL1 4277  11.493   5.968  10.501  0.1010 -0.4407  0.1829
  268loPI   GL2 4278  11.590   6.268  10.365  0.0116  0.1031  0.0112
  268loPI   C1A 4279  11.365   5.822  10.095 -0.1348 -0.0512  0.2238
  268loPI   C2A 4280  11.045   5.956   9.812  0.1978 -0.1310 -0.1706
  268loPI   C3A 4281  10.936   6.266   9.527 -0.0617  0.1494  0.0854
  268loPI   C4A 4282  10.970   6.612   9.310 -0.1483  0.0857  0.2824
  268loPI   C5A 4283  10.944   6.988   9.197  0.1740  0.0140 -0.2336
  268loPI   C6A 4284  11.006   7.165   8.829 -0.2231  0.2675  0.3108
  268loPI   C1B 4285  11.696   6.222   9.934 -0.0820 -0.0417  0.1480
  268loPI   C2B 4286  11.936   6.216   9.591  0.0432 -0.0242 -0.2143
  268loPI   C3B 4287  11.842   6.268   9.140 -0.0020  0.2152 -0.1019
  268loPI   C4B 4288  11.659   6.542   8.795 -0.3273 -0.0405 -0.1306
  269loPI    C1 4289  10.005  15.248  11.189  0.0904 -0.0457 -0.1631
  269loPI    C2 4290  10.259  15.418  11.446 -0.1896 -0.0440  0.1196
  269loPI    C3 4291  10.204  15.022  11.453 -0.1412 -0.0531  0.0085
  269loPI   PO4 4292  10.159  15.282  10.933 -0.0689  0.1678  0.1513
  269loPI   GL1 4293  10.148  15.076  10.554  0.2582  0.2067  0.0269
  269loPI   GL2 4294  10.349  14.861  10.440  0.2603  0.0051 -0.1517
  269loPI   C1A 4295  10.094  15.294  10.244  0.0051  0.1510  0.0242
  269loPI   C2A 4296  10.128  15.427   9.859  0.1770 -0.0910 -0.0937
  269loPI   C3A 4297  10.079  15.405   9.359 -0.1502  0.4723 -0.0938
  269loPI   C4A 4298  10.161  15.370   8.999  0.0351  0.1931  0.0871
  269loPI   C5A 4299   9.973  15.314   8.554  0.0323  0.0992 -0.0266
  269loPI   C6A 4300  10.164  15.211   8.188 -0.2636 -0.0690  0.2198
  269loPI   C1B 4301  10.237  14.908  10.002 -0.0929 -0.3974  0.3019
  269loPI   C2B 4302  10.202  14.938   9.506  0.2196  0.1983 -0.2202
  269loPI   C3B 4303  10.246  14.827   9.080 -0.0005  0.0104 -0.0117
  269loPI   C4B 4304  10.083  14.878   8.677  0.1147 -0.4256 -0.3107
  270loPI    C1 4305   5.360  15.777  11.193 -0.0338  0.0132 -0.1133
  270loPI    C2 4306   5.344  15.925  11.564  0.0670  0.0305 -0.1156
  270loPI    C3 4307   5.006  15.857  11.361  0.0095 -0.0339  0.0009
  270loPI   PO4 4308   5.434  15.547  11.196  0.1021 -0.0719  0.2591
  270loPI   GL1 4309   5.509  15.417  10.806 -0.2904 -0.2082  0.3543
  270loPI   GL2 4310   5.781  15.284  10.627  0.1438  0.3156  0.0360
  270loPI   C1A 4311   5.319  15.328  10.321  0.4365 -0.0419  0.0670
  270loPI   C2A 4312   5.256  15.454   9.885  0.0387 -0.0406  0.1903
  270loPI   C3A 4313   5.262  15.590   9.451  0.0366  0.0467 -0.2399
  270loPI   C4A 4314   5.181  15.570   9.024 -0.0588  0.0434 -0.1626
  270loPI   C5A 4315   5.022  15.696   8.672  0.1417 -0.2465  0.1628
  270loPI   C6A 4316   4.800  15.491   8.430 -0.1105  0.0502 -0.0484
  270loPI   C1B 4317   5.787  15.328  10.174  0.0045 -0.0007  0.1719
  270loPI   C2B 4318   6.072  15.063   9.788  0.1316  0.2403  0.2687
  270loPI   C3B 4319   6.155  15.104   9.422  0.0921 -0.1684 -0.1354
  270loPI   C4B 4320   5.975  15.304   9.204  0.1404 -0.0119  0.2722
  271loPI    C1 4321  15.041   1.078  10.708 -0.1480 -0.2373 -0.0153
  271loPI    C2 4322  14.843   0.901  11.007 -0.1618 -0.1170  0.0473
  271loPI    C3 4323  14.920   1.293  11.023  0.0728 -0.1601  0.0187
  271loPI   PO4 4324  14.878   1.025  10.456 -0.3378  0.0715 -0.0038
  271loPI   GL1 4325  14.696   0.821  10.122  0.1870  0.2175 -0.2302
  271loPI   GL2 4326  14.892   1.017   9.939  0.2967 -0.1313 -0.1244
  271loPI   C1A 4327  14.599   0.515   9.718 -0.0703  0.0645  0.1673
  271loPI   C2A 4328  14.655   0.303   9.338 -0.0201  0.0880  0.1586
  271loPI   C3A 4329  14.535   0.242   8.901 -0.1394 -0.3240 -0.0232
  271loPI   C4A 4330  14.342   0.502   8.489  0.1017 -0.0787 -0.0123
  271loPI   C5A 4331  14.331   0.858   8.211 -0.0204  0.0273  0.0245
  271loPI   C6A 4332  14.068   1.184   8.101  0.3767 -0.2887  0.0437
  271loPI   C1B 4333  15.035   0.855   9.566  0.1149  0.2433 -0.2580
  271loPI   C2B 4334  15.297   1.033   9.157  0.2886  0.1223 -0.2626
  271loPI   C3B 4335  15.256   0.826   8.750 -0.0226 -0.2640  0.2426
  271loPI   C4B 4336  15.370   0.818   8.358 -0.0884 -0.3472  0.0746
  272loPI    C1 4337   1.452   5.120  10.606 -0.0870 -0.1422  0.0374
  272loPI    C2 4338   1.600   4.800  10.417  0.0626 -0.0278 -0.0418
  272loPI    C3 4339   1.566   4.798  10.815 -0.0528 -0.1879 -0.0511
  272loPI   PO4 4340   1.542   5.292  10.423  0.0607  0.1960 -0.1039
  272loPI   GL1 4341   1.585   5.219  10.031  0.0212  0.2929 -0.1552
  272loPI   GL2 4342   1.281   5.363  10.002 -0.0088 -0.1211 -0.1738
  272loPI   C1A 4343   1.154   5.027   9.682 -0.2169  0.1630  0.4789
  272loPI   C2A 4344   1.186   4.978   9.307  0.0476  0.0938  0.0973
  272loPI   C3A 4345   1.275   4.946   8.900  0.2784 -0.0504  0.1584
  272loPI   C4A 4346   1.227   4.906   8.488  0.2139  0.2151  0.0567
  272loPI   C5A 4347   1.209   4.460   8.097  0.0227  0.0088  0.0784
  272loPI   C6A 4348   1.052   4.265   7.642  0.0491  0.2410 -0.1052
  272loPI   C1B 4349   1.533   5.280   9.543  0.0844 -0.2018 -0.1603
  272loPI   C2B 4350   1.688   5.230   9.190  0.0279  0.1296 -0.0207
  272loPI   C3B 4351   1.683   5.178   8.771  0.1492  0.2983 -0.1449
  272loPI   C4B 4352   1.699   5.057   8.331  0.0401 -0.3777 -0.3026
  273loPI    C1 4353   8.732  11.214  11.290 -0.0007 -0.0759 -0.0893
  273loPI    C2 4354   8.487  11.527  11.245  0.2196  0.1632  0.3099
  273loPI    C3 4355   8.416  11.257  11.532  0.3620  0.1756  0.3577
  273loPI   PO4 4356   8.710  11.112  11.106 -0.2979  0.0545 -0.1495
  273loPI   GL1 4357   8.865  11.098  10.663  0.1863  0.2487  0.0260
  273loPI   GL2 4358   8.629  10.829  10.566 -0.2498 -0.2017  0.2728
  273loPI   C1A 4359   9.155  11.008  10.322  0.2787 -0.1141  0.0906
  273loPI   C2A 4360   9.092  11.072   9.839  0.0664  0.1146 -0.0155
  273loPI   C3A 4361   9.159  11.054   9.389  0.0009 -0.2972  0.0246
  273loPI   C4A 4362   9.312  10.741   9.070  0.1470  0.1236 -0.2517
  273loPI   C5A 4363   9.423  10.373   8.843 -0.2081 -0.0298  0.0332
  273loPI   C6A 4364   9.376   9.998   8.552  0.0189 -0.2353 -0.0938
  273loPI   C1B 4365   8.662  11.080  10.192  0.2580  0.4017 -0.1726
  273loPI   C2B 4366   8.544  11.215   9.734  0.3403 -0.0739 -0.2054
  273loPI   C3B 4367   8.589  11.088   9.339 -0.1661  0.3226  0.0892
  273loPI   C4B 4368   8.724  11.050   8.909  0.0147 -0.0476 -0.0000
  274loPI    C1 4369  11.725  17.205  11.013  0.1194 -0.0648 -0.1803
  274loPI    C2 4370  11.747  16.879  11.244  0.3313 -0.1001 -0.2483
  274loPI    C3 4371  12.003  17.181  11.300  0.1907  0.0187 -0.2421
  274loPI   PO4 4372  11.687  17.128  10.806  0.0039 -0.3095  0.2466
  274loPI   GL1 4373  11.752  17.302  10.482 -0.1488  0.2260 -0.1905
  274loPI   GL2 4374  12.001  17.221  10.270 -0.1856  0.2727  0.0974
  274loPI   C1A 4375  11.575  17.306   9.991 -0.1749 -0.2607 -0.1968
  274loPI   C2A 4376  11.581  17.247   9.572  0.1033  0.0163  0.0598
  274loPI   C3A 4377  11.561  17.270   9.078 -0.1239 -0.0490  0.0310
  274loPI   C4A 4378  11.538  17.427   8.633  0.3338  0.0523 -0.2112
  274loPI   C5A 4379  11.681  17.842   8.512  0.1662 -0.1826 -0.0171
  274loPI   C6A 4380  12.132  17.925   8.483  0.0306 -0.1651  0.0626
  274loPI   C1B 4381  11.963  17.061   9.890  0.0778  0.0091 -0.0900
  274loPI   C2B 4382  12.041  17.031   9.385  0.0179 -0.3436 -0.4401
  274loPI   C3B 4383  12.075  17.158   8.963 -0.0246 -0.2313  0.3994
  274loPI   C4B 4384  11.991  17.550   8.818  0.2531 -0.1329 -0.1502
  275loPI    C1 4385   9.314  16.955  11.160  0.1249  0.1419  0.0661
  275loPI    C2 4386   9.007  16.911  11.413  0.0159 -0.1127 -0.1054
  275loPI    C3 4387   9.335  16.687  11.456  0.0753 -0.0204 -0.0750
  275loPI   PO4 4388   9.148  17.092  10.926  0.3043  0.2673  0.0650
  275loPI   GL1 4389   9.049  17.212  10.459  0.0193  0.1356  0.0349
  275loPI   GL2 4390   9.041  16.895  10.515 -0.2539 -0.0948  0.1205
  275loPI   C1A 4391   8.999  17.306  10.066  0.1110 -0.0066  0.0288
  275loPI   C2A 4392   8.917  17.390   9.707  0.2019 -0.0723 -0.0283
  275loPI   C3A 4393   8.854  17.270   9.294  0.0587  0.2417  0.0930
  275loPI   C4A 4394   8.849  17.309   8.812  0.1533  0.1051  0.0795
  275loPI   C5A 4395   8.775  17.377   8.441  0.0451  0.0907  0.0373
  275loPI   C6A 4396   8.456  17.421   8.124  0.0640  0.0833 -0.1163
  275loPI   C1B 4397   9.117  16.825  10.097  0.1430  0.2936 -0.0999
  275loPI   C2B 4398   8.981  16.906   9.690  0.1348 -0.1035  0.0181
  275loPI   C3B 4399   8.964  16.744   9.233  0.0347  0.1604  0.0274
  275loPI   C4B 4400   8.991  16.799   8.842  0.1939 -0.4639  0.2786
  276loPI    C1 4401  12.631  17.541  10.991  0.0181 -0.0397  0.0371
  276loPI    C2 4402  12.354  17.582  11.277  0.0079 -0.1759  0.0470
  276loPI    C3 4403  12.692  17.383  11.354  0.1659  0.0982  0.0738
  276loPI   PO4 4404  12.553  17.688  10.777 -0.0633  0.0577  0.1055
  276loPI   GL1 4405  12.584  17.691  10.391  0.1748  0.2301 -0.0353
  276loPI   GL2 4406  12.197  17.663  10.429 -0.0335  0.2285  0.0840
  276loPI   C1A 4407  12.483  17.515  10.097  0.0493 -0.0889 -0.0352
  276loPI   C2A 4408  12.436  17.500   9.697  0.3589 -0.5020  0.1894
  276loPI   C3A 4409  12.239  17.624   9.264 -0.0226 -0.1686  0.2177
  276loPI   C4A 4410  12.297  17.979   8.938 -0.3392 -0.1364  0.0959
  276loPI   C5A 4411  11.843  18.138   8.959 -0.1521  0.4900 -0.0324
  276loPI   C6A 4412  11.548  18.338   8.803 -0.1422  0.0720 -0.1301
  276loPI   C1B 4413  11.949  17.627  10.042  0.1005 -0.0327 -0.0906
  276loPI   C2B 4414  11.917  17.631   9.648 -0.3177 -0.3693 -0.0161
  276loPI   C3B 4415  11.750  17.730   9.289  0.1961 -0.2175 -0.0600
  276loPI   C4B 4416  11.459  17.779   9.001 -0.2768 -0.0736 -0.1952
  277loPI    C1 4417  17.452   3.989  10.552 -0.0669 -0.0388  0.0490
  277loPI    C2 4418  17.827   4.113  10.615 -0.1110  0.0634  0.1115
  277loPI    C3 4419  17.667   3.832  10.850 -0.0426 -0.0470  0.0272
  277loPI   PO4 4420  17.402   3.999  10.391 -0.2319  0.1683 -0.0290
  277loPI   GL1 4421  17.614   3.937   9.977 -0.2256  0.0950  0.1322
  277loPI   GL2 4422  17.450   4.130   9.891 -0.1341  0.0524 -0.1109
  277loPI   C1A 4423  17.792   3.699   9.655 -0.3289  0.2206 -0.0162
  277loPI   C2A 4424  17.871   3.842   9.207  0.1028  0.2970  0.0603
  277loPI   C3A 4425  17.981   3.988   8.834  0.1629 -0.1573  0.1378
  277loPI   C4A 4426  18.252   4.072   8.542  0.0285  0.1444  0.2213
  277loPI   C5A 4427  18.010   4.090   8.259  0.0575  0.2031 -0.3584
  277loPI   C6A 4428  17.808   4.424   8.056  0.0751 -0.0289  0.0606
  277loPI   C1B 4429  17.452   4.040   9.481 -0.2823  0.0652 -0.1100
  277loPI   C2B 4430  17.363   3.960   9.071  0.0556  0.1362 -0.0695
  277loPI   C3B 4431  17.545   3.755   8.755  0.2064  0.0786  0.1186
  277loPI   C4B 4432  17.887   3.662   8.432  0.1732  0.1406  0.2097
  278loPI    C1 4433   6.643  12.264  11.238 -0.1886  0.4021 -0.1826
  278loPI    C2 4434   7.028  12.306  11.137 -0.0700 -0.0608  0.0513
  278loPI    C3 4435   6.900  12.430  11.496 -0.0971 -0.0807  0.0485
  278loPI   PO4 4436   6.470  12.278  10.912 -0.2453  0.0526 -0.1067
  278loPI   GL1 4437   6.427  12.085  10.492 -0.3006  0.0450 -0.3096
  278loPI   GL2 4438   6.126  12.085  10.348  0.2816 -0.2306  0.1385
  278loPI   C1A 4439   6.650  12.152  10.120  0.2196 -0.0729 -0.1386
  278loPI   C2A 4440   6.855  11.902   9.794  0.2966 -0.3338 -0.1159
  278loPI   C3A 4441   6.888  11.553   9.664 -0.2536 -0.0275 -0.2019
  278loPI   C4A 4442   7.276  11.351   9.658  0.1392 -0.2303  0.2058
  278loPI   C5A 4443   7.655  11.276   9.874  0.0036 -0.1057 -0.1697
  278loPI   C6A 4444   8.059  11.247   9.917  0.1680 -0.1939 -0.0538
  278loPI   C1B 4445   6.246  11.949   9.859 -0.1652  0.1520  0.0608
  278loPI   C2B 4446   6.502  12.136   9.474 -0.0683 -0.1380  0.2612
  278loPI   C3B 4447   6.810  11.873   9.210 -0.0345  0.0083 -0.1157
  278loPI   C4B 4448   6.753  11.496   8.978 -0.1725 -0.1425 -0.0210
  279loPI    C1 4449  13.272   9.290  11.173 -0.0930  0.1393 -0.2264
  279loPI    C2 4450  13.460   9.640  11.213 -0.0905  0.1302 -0.1560
  279loPI    C3 4451  13.129   9.615  10.990 -0.1195  0.1880 -0.1199
  279loPI   PO4 4452  13.482   9.014  11.166 -0.0395  0.1336  0.0922
  279loPI   GL1 4453  13.718   8.882  10.774  0.0222 -0.0147  0.1462
  279loPI   GL2 4454  13.645   8.572  10.757 -0.1370 -0.3833 -0.0415
  279loPI   C1A 4455  13.786   9.024  10.406 -0.0324  0.1775  0.1015
  279loPI   C2A 4456  13.749   9.046  10.014  0.2168 -0.0356 -0.1719
  279loPI   C3A 4457  13.607   9.114   9.566  0.1200 -0.2213  0.1760
  279loPI   C4A 4458  13.734   9.125   9.134 -0.3189 -0.2134 -0.0692
  279loPI   C5A 4459  13.946   9.109   8.768 -0.1925  0.0434 -0.4383
  279loPI   C6A 4460  14.334   8.847   8.719 -0.0430 -0.0971 -0.0177
  279loPI   C1B 4461  13.799   8.523  10.306 -0.2089  0.1390 -0.1972
  279loPI   C2B 4462  13.791   8.501   9.840 -0.0770 -0.0740 -0.0014
  279loPI   C3B 4463  13.765   8.579   9.405 -0.1660  0.1792 -0.2496
  279loPI   C4B 4464  13.924   8.573   8.960  0.1731 -0.1709  0.0920
  280loPI    C1 4465   7.491  15.924  11.193 -0.0634  0.3151  0.0290
  280loPI    C2 4466   7.498  15.653  11.487 -0.2016  0.4388  0.1484
  280loPI    C3 4467   7.839  15.817  11.358 -0.0755 -0.0519 -0.1726
  280loPI   PO4 4468   7.419  15.830  10.948 -0.0966 -0.1777 -0.1550
  280loPI   GL1 4469   7.449  16.065  10.570 -0.0010 -0.4167 -0.1922
  280loPI   GL2 4470   7.749  15.827  10.576 -0.0394  0.1239 -0.1012
  280loPI   C1A 4471   7.339  15.974  10.176 -0.1308 -0.2738  0.0501
  280loPI   C2A 4472   7.336  16.053   9.725  0.1707  0.1698  0.2089
  280loPI   C3A 4473   7.266  16.080   9.221  0.0332 -0.1783  0.1145
  280loPI   C4A 4474   7.263  16.073   8.665  0.0433  0.1489 -0.2159
  280loPI   C5A 4475   7.449  15.926   8.307  0.0569 -0.1659 -0.2727
  280loPI   C6A 4476   7.564  15.505   8.150  0.0557 -0.0931  0.1516
  280loPI   C1B 4477   7.790  15.822  10.125 -0.1620 -0.0774  0.1145
  280loPI   C2B 4478   7.796  15.838   9.627  0.1449  0.0298  0.0342
  280loPI   C3B 4479   7.835  15.763   9.219  0.3003 -0.0032 -0.2845
  280loPI   C4B 4480   7.845  15.807   8.801 -0.0614 -0.0739  0.1113
  281loPI    C1 4481   5.797  16.889  10.886  0.3113 -0.0754 -0.0168
  281loPI    C2 4482   6.012  16.572  11.001  0.0111 -0.1936  0.2296
  281loPI    C3 4483   5.757  16.745  11.257  0.2573  0.3234  0.1371
  281loPI   PO4 4484   5.654  16.861  10.629  0.2525  0.3780 -0.1322
  281loPI   GL1 4485   5.479  17.090  10.335  0.0706 -0.1137 -0.0008
  281loPI   GL2 4486   5.556  16.761  10.153  0.0488 -0.0396 -0.1472
  281loPI   C1A 4487   5.227  17.356   9.998 -0.1611 -0.0820 -0.1748
  281loPI   C2A 4488   5.156  17.450   9.599  0.0790  0.1226 -0.2493
  281loPI   C3A 4489   5.070  17.616   9.199 -0.0767 -0.1699 -0.1266
  281loPI   C4A 4490   4.895  17.393   8.943 -0.1476 -0.2920  0.2953
  281loPI   C5A 4491   4.953  17.282   8.521 -0.3208 -0.1233  0.1809
  281loPI   C6A 4492   4.796  17.327   8.111 -0.4199 -0.4376 -0.0762
  281loPI   C1B 4493   5.446  16.946   9.814  0.3285 -0.0751 -0.2414
  281loPI   C2B 4494   5.519  17.136   9.501  0.1571  0.0485 -0.5451
  281loPI   C3B 4495   5.486  17.268   9.033  0.1903 -0.3645 -0.0824
  281loPI   C4B 4496   5.427  17.194   8.667  0.0505  0.0412  0.0264
  282loPI    C1 4497   1.062  11.617  11.336 -0.1151 -0.0974  0.0227
  282loPI    C2 4498   1.084  11.243  11.198 -0.3225 -0.1119  0.0253
  282loPI    C3 4499   1.312  11.356  11.507  0.0337 -0.1216 -0.2269
  282loPI   PO4 4500   1.225  11.807  11.092  0.1986 -0.1206  0.1625
  282loPI   GL1 4501   1.342  11.598  10.652 -0.2341  0.0536  0.2060
  282loPI   GL2 4502   1.066  11.459  10.476  0.0645  0.0126 -0.3077
  282loPI   C1A 4503   1.414  11.933  10.242 -0.1229  0.0276 -0.1126
  282loPI   C2A 4504   1.382  11.895   9.727 -0.1052  0.0273 -0.2829
  282loPI   C3A 4505   1.349  12.042   9.308  0.0930  0.3320  0.0621
  282loPI   C4A 4506   1.321  12.066   8.905 -0.0166 -0.1905  0.0377
  282loPI   C5A 4507   1.317  12.332   8.520  0.1097 -0.1673  0.2024
  282loPI   C6A 4508   1.465  12.712   8.274  0.0792 -0.1099  0.0352
  282loPI   C1B 4509   1.079  11.140  10.121 -0.0665 -0.0926  0.1065
  282loPI   C2B 4510   1.020  11.115   9.645  0.0951  0.0343 -0.3668
  282loPI   C3B 4511   1.064  11.248   9.276  0.5260 -0.0032 -0.1184
  282loPI   C4B 4512   0.909  11.244   8.835  0.0495 -0.2150 -0.0995
  283loPI    C1 4513   0.544   5.997  10.856  0.3202  0.2967  0.1447
  283loPI    C2 4514   0.408   6.100  11.218  0.1718  0.2023  0.1170
  283loPI    C3 4515   0.745   5.886  11.183  0.0286 -0.0434  0.2149
  283loPI   PO4 4516   0.381   6.149  10.686 -0.0481  0.1317 -0.1134
  283loPI   GL1 4517   0.257   6.118  10.329  0.0784  0.1125  0.0549
  283loPI   GL2 4518   0.414   5.938  10.198 -0.3538 -0.3123  0.2820
  283loPI   C1A 4519   0.096   6.284   9.906 -0.2266  0.1874 -0.2302
  283loPI   C2A 4520  -0.284   6.397   9.610  0.0105  0.0255 -0.0492
  283loPI   C3A 4521  -0.395   6.333   9.124  0.3059 -0.3078 -0.3542
  283loPI   C4A 4522  -0.381   6.293   8.707  0.4893 -0.2443  0.2150
  283loPI   C5A 4523  -0.343   6.174   8.280 -0.1026  0.0288  0.1274
  283loPI   C6A 4524  -0.478   5.883   8.051 -0.0091  0.5311  0.1005
  283loPI   C1B 4525   0.505   5.975   9.701 -0.1591 -0.2679  0.0979
  283loPI   C2B 4526   0.391   5.840   9.300 -0.2387 -0.5342  0.2562
  283loPI   C3B 4527   0.565   5.655   8.991 -0.1513 -0.0099  0.3127
  283loPI   C4B 4528   0.916   5.791   8.772  0.2176  0.1226 -0.0873
  284loPI    C1 4529   4.374  13.573  11.142 -0.0174  0.1621  0.1345
  284loPI    C2 4530   4.757  13.688  11.132  0.0034  0.0918  0.1145
  284loPI    C3 4531   4.589  13.577  11.478  0.0528 -0.0498  0.0933
  284loPI   PO4 4532   4.324  13.604  10.864  0.4117 -0.0378 -0.1276
  284loPI   GL1 4533   4.307  13.491  10.465 -0.1586 -0.2419  0.2581
  284loPI   GL2 4534   4.224  13.115  10.555  0.0498  0.0217 -0.1842
  284loPI   C1A 4535   4.668  13.559  10.105  0.1785 -0.1619 -0.0936
  284loPI   C2A 4536   4.743  13.453   9.660 -0.0080  0.1929 -0.3556
  284loPI   C3A 4537   4.668  13.279   9.367  0.1592  0.3753  0.0550
  284loPI   C4A 4538   4.799  12.943   9.155 -0.0090 -0.0681 -0.0348
  284loPI   C5A 4539   5.000  12.567   9.078  0.0162  0.0470 -0.2593
  284loPI   C6A 4540   5.232  12.532   9.338  0.0109  0.1158 -0.1127
  284loPI   C1B 4541   4.292  13.147  10.081  0.1542  0.0999  0.0942
  284loPI   C2B 4542   4.348  13.129   9.735  0.2660 -0.2473  0.1976
  284loPI   C3B 4543   4.206  13.090   9.265 -0.0726  0.4146  0.2628
  284loPI   C4B 4544   4.094  13.268   8.927  0.1811 -0.1912 -0.0584
  285loPI    C1 4545  17.741   6.202  10.736 -0.1652 -0.0134 -0.2426
  285loPI    C2 4546  17.807   6.413  11.069 -0.1665 -0.0068 -0.2465
  285loPI    C3 4547  17.735   6.020  11.091 -0.3108  0.0201 -0.2273
  285loPI   PO4 4548  17.669   6.287  10.499 -0.1273 -0.0981 -0.0125
  285loPI   GL1 4549  17.534   6.448  10.234  0.2914  0.3624  0.0832
  285loPI   GL2 4550  17.341   6.782  10.208 -0.0082 -0.1768  0.0472
  285loPI   C1A 4551  17.363   6.141   9.973 -0.0291  0.1334  0.1371
  285loPI   C2A 4552  17.344   5.941   9.576  0.2511  0.0811 -0.1180
  285loPI   C3A 4553  17.356   5.827   9.111 -0.0563 -0.2870 -0.1811
  285loPI   C4A 4554  17.245   5.827   8.571  0.0103  0.0692  0.0202
  285loPI   C5A 4555  16.985   5.507   8.260 -0.3633  0.0542  0.4282
  285loPI   C6A 4556  16.861   5.098   8.100  0.2682  0.0474 -0.1384
  285loPI   C1B 4557  17.362   6.968   9.869  0.1784  0.1379 -0.0640
  285loPI   C2B 4558  17.414   6.817   9.429 -0.1000 -0.3529  0.0443
  285loPI   C3B 4559  17.401   6.759   8.854 -0.0425  0.1522  0.0484
  285loPI   C4B 4560  17.165   6.764   8.452  0.0384  0.0502 -0.2670
  286loPI    C1 4561   1.043  16.865  11.199  0.0089  0.1302  0.0991
  286loPI    C2 4562   1.310  16.567  11.214 -0.0150  0.0993 -0.0668
  286loPI    C3 4563   1.032  16.601  11.499  0.0766  0.0473  0.0294
  286loPI   PO4 4564   0.914  16.827  10.986  0.1442  0.0793 -0.1683
  286loPI   GL1 4565   0.881  16.838  10.605  0.0218 -0.1854  0.0126
  286loPI   GL2 4566   1.102  16.866  10.533  0.1749  0.0883 -0.1637
  286loPI   C1A 4567   0.703  16.758  10.157  0.0932  0.0252  0.0733
  286loPI   C2A 4568   0.994  16.695   9.746  0.1474  0.1699  0.0386
  286loPI   C3A 4569   1.110  16.625   9.339 -0.0439 -0.2167 -0.0522
  286loPI   C4A 4570   1.170  16.919   8.990  0.2462  0.1092  0.1818
  286loPI   C5A 4571   1.518  16.919   8.794  0.1259  0.2653 -0.0558
  286loPI   C6A 4572   1.930  16.753   8.640  0.0896  0.0810 -0.1828
  286loPI   C1B 4573   1.333  16.904  10.180 -0.1981  0.0880  0.1925
  286loPI   C2B 4574   1.480  16.858   9.683 -0.1580  0.1119 -0.3439
  286loPI   C3B 4575   1.599  17.038   9.264  0.0422  0.1378 -0.2915
  286loPI   C4B 4576   1.784  17.400   9.202 -0.2672 -0.1510  0.1900
  287loPI    C1 4577   5.882  13.723  11.092 -0.1058  0.0852 -0.0478
  287loPI    C2 4578   6.079  13.530  11.382 -0.1904 -0.0798 -0.0994
  287loPI    C3 4579   6.017  13.924  11.411  0.0513 -0.0452 -0.0309
  287loPI   PO4 4580   5.876  13.649  10.875  0.0493 -0.0554 -0.0808
  287loPI   GL1 4581   5.995  13.897  10.477  0.0750  0.1175  0.0850
  287loPI   GL2 4582   6.332  13.737  10.551 -0.2165  0.2536  0.0902
  287loPI   C1A 4583   6.140  13.974  10.145 -0.0801 -0.2000 -0.0952
  287loPI   C2A 4584   6.183  14.058   9.711  0.1562  0.4024  0.1330
  287loPI   C3A 4585   6.355  14.087   9.304  0.0854  0.3877 -0.4566
  287loPI   C4A 4586   6.267  14.014   8.916  0.3296 -0.1865  0.1931
  287loPI   C5A 4587   6.203  14.407   8.611  0.1594  0.4252  0.2474
  287loPI   C6A 4588   5.867  14.664   8.657 -0.0854  0.0299  0.0241
  287loPI   C1B 4589   6.157  13.493  10.286 -0.1224 -0.1087  0.1809
  287loPI   C2B 4590   6.166  13.541   9.907 -0.2348  0.3835  0.1536
  287loPI   C3B 4591   6.238  13.588   9.435 -0.0804  0.1270 -0.0791
  287loPI   C4B 4592   6.394  13.519   9.073  0.3245 -0.0604  0.3185
  288loPI    C1 4593  10.223  13.259  11.487 -0.0241 -0.0219 -0.0862
  288loPI    C2 4594  10.243  13.646  11.588 -0.2313 -0.0094 -0.0880
  288loPI    C3 4595  10.490  13.382  11.759 -0.0406  0.1336 -0.1391
  288loPI   PO4 4596  10.081  13.270  11.276  0.0254  0.0974 -0.1385
  288loPI   GL1 4597   9.982  13.215  10.841 -0.2450  0.0115 -0.2088
  288loPI   GL2 4598  10.223  13.313  10.784 -0.1144  0.0992  0.0396
  288loPI   C1A 4599  10.002  13.122  10.347  0.0419  0.2756 -0.0910
  288loPI   C2A 4600   9.954  13.072   9.970  0.5714  0.2440  0.0997
  288loPI   C3A 4601  10.019  13.094   9.593 -0.0224 -0.0506 -0.0140
  288loPI   C4A 4602  10.045  12.970   9.168  0.0480 -0.3281  0.0622
  288loPI   C5A 4603  10.070  13.029   8.758 -0.2955  0.0672 -0.2436
  288loPI   C6A 4604  10.237  12.732   8.429 -0.2604  0.1058  0.0845
  288loPI   C1B 4605  10.409  13.422  10.526  0.0573 -0.0617 -0.2191
  288loPI   C2B 4606  10.446  13.419  10.021 -0.0436 -0.1119  0.1859
  288loPI   C3B 4607  10.503  13.414   9.554  0.2183  0.2230 -0.0011
  288loPI   C4B 4608  10.412  13.355   9.135 -0.0815  0.2919 -0.0988
  289loPI    C1 4609  16.459   9.805  11.447  0.0251 -0.1653  0.1977
  289loPI    C2 4610  16.340   9.971  11.791 -0.1626  0.2038 -0.0387
  289loPI    C3 4611  16.100   9.714  11.600 -0.0132 -0.0856  0.1557
  289loPI   PO4 4612  16.502   9.981  11.299  0.3620  0.0546 -0.0908
  289loPI   GL1 4613  16.463  10.200  10.866  0.2346 -0.1635  0.0771
  289loPI   GL2 4614  16.324  10.022  10.674 -0.3192  0.4297 -0.3296
  289loPI   C1A 4615  16.609  10.409  10.486  0.2565  0.2045  0.0130
  289loPI   C2A 4616  16.617  10.533  10.029 -0.3608 -0.0121 -0.0908
  289loPI   C3A 4617  16.636  10.481   9.564  0.0393 -0.0312  0.3369
  289loPI   C4A 4618  16.602  10.376   9.153  0.2170 -0.1098  0.1536
  289loPI   C5A 4619  16.683  10.390   8.739 -0.0354  0.1687  0.1902
  289loPI   C6A 4620  16.891  10.311   8.287  0.1884 -0.0747  0.2603
  289loPI   C1B 4621  16.239  10.163  10.184  0.1183 -0.0379 -0.0060
  289loPI   C2B 4622  16.204  10.075   9.838 -0.0575 -0.1910  0.2170
  289loPI   C3B 4623  16.332   9.945   9.349  0.1935  0.0028 -0.1993
  289loPI   C4B 4624  16.277  10.115   8.953  0.1559  0.1643 -0.1118
  290loPI    C1 4625  10.599   2.855  11.106 -0.1767 -0.1491  0.0933
  290loPI    C2 4626  10.814   2.561  11.272 -0.1832 -0.2763 -0.1196
  290loPI    C3 4627  10.518   2.733  11.478 -0.0314 -0.2621  0.0891
  290loPI   PO4 4628  10.728   3.041  10.807 -0.2305  0.0677 -0.0859
  290loPI   GL1 4629  11.128   3.146  10.487 -0.0761 -0.0902 -0.0826
  290loPI   GL2 4630  11.055   2.881  10.431 -0.1697  0.0315  0.0286
  290loPI   C1A 4631  11.097   3.454  10.307  0.2585  0.1352  0.2297
  290loPI   C2A 4632  11.214   3.495   9.862  0.0807 -0.0529 -0.1293
  290loPI   C3A 4633  11.177   3.328   9.445  0.0436 -0.2682 -0.0307
  290loPI   C4A 4634  11.319   3.286   8.977  0.0743 -0.0014 -0.0172
  290loPI   C5A 4635  11.199   3.316   8.553 -0.1858 -0.3199  0.1047
  290loPI   C6A 4636  10.838   3.268   8.271 -0.1523 -0.1013  0.1073
  290loPI   C1B 4637  10.905   2.899  10.021 -0.1851 -0.2263  0.3534
  290loPI   C2B 4638  10.865   2.955   9.581 -0.1816 -0.2662 -0.3149
  290loPI   C3B 4639  10.911   2.963   9.129 -0.3051 -0.2414  0.0406
  290loPI   C4B 4640  10.834   3.016   8.727  0.1832  0.1210  0.1880
  291loPI    C1 4641  12.373   2.391  10.738  0.1035 -0.1448 -0.0987
  291loPI    C2 4642  12.563   2.481  11.078 -0.0924 -0.1138  0.0038
  291loPI    C3 4643  12.383   2.126  11.038 -0.1920 -0.0620 -0.0121
  291loPI   PO4 4644  12.447   2.459  10.517  0.2465  0.1332  0.3327
  291loPI   GL1 4645  12.649   2.735  10.242  0.4106 -0.0339 -0.1751
  291loPI   GL2 4646  12.897   2.671  10.146  0.0176  0.3348 -0.0104
  291loPI   C1A 4647  12.382   2.834   9.901 -0.4393 -0.0451  0.2377
  291loPI   C2A 4648  12.313   2.984   9.434 -0.0729 -0.0797 -0.0861
  291loPI   C3A 4649  12.372   3.114   8.938  0.3451  0.1694 -0.0015
  291loPI   C4A 4650  12.298   3.398   8.627  0.0115 -0.2082  0.3053
  291loPI   C5A 4651  12.147   3.544   8.271 -0.2143  0.0228 -0.0441
  291loPI   C6A 4652  12.020   3.660   7.879  0.2669 -0.0169  0.3830
  291loPI   C1B 4653  12.864   2.482   9.673 -0.1763 -0.4676 -0.0561
  291loPI   C2B 4654  12.839   2.280   9.328 -0.0487 -0.0138 -0.1263
  291loPI   C3B 4655  13.140   2.264   8.933  0.2950 -0.2625  0.1751
  291loPI   C4B 4656  13.398   2.063   8.629 -0.1145 -0.1074  0.0842
  292loPI    C1 4657   6.725  17.279  11.110  0.1593  0.0411  0.1580
  292loPI    C2 4658   6.466  17.409  11.385 -0.1357 -0.1447 -0.0264
  292loPI    C3 4659   6.768  17.170  11.493 -0.2072 -0.1585  0.1468
  292loPI   PO4 4660   6.866  17.496  10.965 -0.1665 -0.3085  0.0376
  292loPI   GL1 4661   7.100  17.509  10.556  0.0828 -0.3562  0.1352
  292loPI   GL2 4662   6.815  17.561  10.392 -0.1142 -0.0134 -0.1360
  292loPI   C1A 4663   7.193  17.580  10.097  0.2882  0.0582  0.1182
  292loPI   C2A 4664   7.103  17.746   9.711 -0.0261  0.0030 -0.2035
  292loPI   C3A 4665   7.058  17.834   9.310  0.0107 -0.0220 -0.0939
  292loPI   C4A 4666   6.874  17.917   8.903  0.1377  0.0775  0.1895
  292loPI   C5A 4667   6.677  18.057   8.461 -0.3330 -0.0421 -0.2632
  292loPI   C6A 4668   6.387  18.351   8.395 -0.0746 -0.0257  0.0096
  292loPI   C1B 4669   6.792  17.336  10.010  0.1157 -0.3046  0.0735
  292loPI   C2B 4670   6.694  17.409   9.608 -0.0028  0.0088  0.1175
  292loPI   C3B 4671   6.594  17.591   9.279  0.2441  0.1406  0.2976
  292loPI   C4B 4672   6.405  17.692   8.856  0.0333 -0.1140  0.1026
  293loPI    C1 4673   8.013   0.910  11.056  0.1915  0.1811 -0.1667
  293loPI    C2 4674   8.043   0.626  11.336  0.0842  0.2237 -0.1114
  293loPI    C3 4675   8.351   0.872  11.266  0.2547 -0.0389 -0.3046
  293loPI   PO4 4676   7.830   0.715  10.887  0.1133 -0.0643  0.0463
  293loPI   GL1 4677   7.719   0.736  10.491 -0.0388  0.1014 -0.0263
  293loPI   GL2 4678   7.751   1.237  10.451  0.0120 -0.0963 -0.3917
  293loPI   C1A 4679   7.486   0.618  10.091  0.4632  0.0627 -0.1654
  293loPI   C2A 4680   7.547   0.567   9.724  0.0088 -0.2050  0.1574
  293loPI   C3A 4681   7.491   0.720   9.394 -0.1273 -0.0476 -0.2347
  293loPI   C4A 4682   7.498   0.813   8.974  0.1386 -0.2395  0.1799
  293loPI   C5A 4683   7.591   0.742   8.643 -0.1394  0.2289  0.0568
  293loPI   C6A 4684   7.836   0.579   8.270 -0.0285 -0.3148 -0.0517
  293loPI   C1B 4685   7.882   0.895  10.125 -0.2892  0.0372  0.1253
  293loPI   C2B 4686   7.931   0.852   9.738 -0.2425  0.0833  0.0404
  293loPI   C3B 4687   7.968   0.960   9.301 -0.1661 -0.2973 -0.0312
  293loPI   C4B 4688   7.911   1.060   8.839  0.2110  0.1300 -0.0937
  294loPI    C1 4689   7.758  15.380  11.147 -0.2672  0.3900  0.3243
  294loPI    C2 4690   7.919  15.042  11.288 -0.3468  0.1770 -0.0803
  294loPI    C3 4691   7.952  15.382  11.497  0.0628  0.0025  0.1508
  294loPI   PO4 4692   7.783  15.398  10.949  0.4807  0.0954 -0.0356
  294loPI   GL1 4693   7.629  15.206  10.678 -0.1285  0.3521  0.0555
  294loPI   GL2 4694   7.681  14.925  10.900  0.1046 -0.0424  0.2607
  294loPI   C1A 4695   7.847  15.346  10.249  0.3859  0.0462 -0.0372
  294loPI   C2A 4696   7.881  15.406   9.863  0.1078  0.0694  0.0756
  294loPI   C3A 4697   7.820  15.326   9.409 -0.0370 -0.1306  0.0196
  294loPI   C4A 4698   7.922  15.299   9.009  0.0642 -0.0028  0.5056
  294loPI   C5A 4699   7.785  15.336   8.546 -0.1056 -0.0117 -0.1611
  294loPI   C6A 4700   7.750  14.971   8.259 -0.0111  0.2197 -0.0057
  294loPI   C1B 4701   7.787  14.812  10.441 -0.2144  0.0122  0.2158
  294loPI   C2B 4702   7.942  14.899  10.054 -0.2467  0.0635  0.1321
  294loPI   C3B 4703   7.914  14.845   9.630  0.0367  0.1256 -0.1199
  294loPI   C4B 4704   8.010  14.898   9.230  0.2602 -0.0100  0.0963
  295loPI    C1 4705  10.088  14.175  11.299  0.2474  0.2263 -0.0356
  295loPI    C2 4706  10.220  14.476  11.527  0.1086  0.1242  0.1830
  295loPI    C3 4707  10.205  14.104  11.675  0.1042  0.0404 -0.0246
  295loPI   PO4 4708  10.169  14.254  11.066 -0.2446  0.0055  0.3202
  295loPI   GL1 4709  10.140  14.441  10.632 -0.1489  0.1669  0.0769
  295loPI   GL2 4710   9.879  14.552  10.526 -0.0659 -0.1362  0.2703
  295loPI   C1A 4711  10.290  14.397  10.215  0.0262 -0.1691 -0.2779
  295loPI   C2A 4712  10.343  14.327   9.768 -0.4726 -0.2454  0.0463
  295loPI   C3A 4713  10.369  14.409   9.380 -0.0397 -0.0379  0.0230
  295loPI   C4A 4714  10.336  14.294   8.936  0.0273 -0.1042 -0.2744
  295loPI   C5A 4715  10.213  14.288   8.536 -0.2663 -0.0238 -0.2361
  295loPI   C6A 4716  10.517  14.322   8.181 -0.1552  0.1555 -0.0084
  295loPI   C1B 4717   9.873  14.558  10.123 -0.2024  0.2059 -0.1323
  295loPI   C2B 4718   9.802  14.598   9.651  0.2274 -0.0723 -0.0866
  295loPI   C3B 4719   9.897  14.567   9.258  0.1052 -0.0611 -0.0400
  295loPI   C4B 4720   9.882  14.432   8.843  0.2365  0.0158  0.0782
  296loPI    C1 4721   3.015   6.863  10.888 -0.3136  0.0730  0.0257
  296loPI    C2 4722   3.033   7.246  11.003 -0.0598  0.0698  0.0017
  296loPI    C3 4723   2.750   7.006  11.152 -0.1595  0.2412  0.0914
  296loPI   PO4 4724   3.048   6.808  10.678 -0.0329  0.0224  0.1345
  296loPI   GL1 4725   3.394   6.792  10.369 -0.1885  0.1085  0.1673
  296loPI   GL2 4726   3.160   6.818  10.186  0.3187 -0.1108 -0.0510
  296loPI   C1A 4727   3.642   6.870  10.006 -0.0826 -0.0555 -0.2057
  296loPI   C2A 4728   3.790   6.951   9.593  0.1930  0.1097  0.1734
  296loPI   C3A 4729   3.711   6.964   9.149 -0.2660 -0.0039 -0.2428
  296loPI   C4A 4730   3.960   6.911   8.758 -0.0493  0.0624  0.3395
  296loPI   C5A 4731   4.152   7.254   8.548 -0.0629 -0.1423  0.2287
  296loPI   C6A 4732   4.497   7.380   8.209 -0.3288  0.0612 -0.0572
  296loPI   C1B 4733   3.160   6.806   9.705  0.1238  0.0700 -0.2548
  296loPI   C2B 4734   3.228   6.678   9.267  0.2295  0.2279  0.0853
  296loPI   C3B 4735   3.262   6.814   8.815  0.3849 -0.1310 -0.1301
  296loPI   C4B 4736   3.347   6.609   8.446  0.4886  0.0028 -0.0860
  297loPI    C1 4737  17.304  17.089  11.034 -0.3198 -0.1005  0.3107
  297loPI    C2 4738  17.172  17.426  11.204  0.3077  0.2080  0.2157
  297loPI    C3 4739  17.486  17.232  11.360  0.1768 -0.1373  0.0599
  297loPI   PO4 4740  17.354  17.135  10.754  0.0765  0.2931 -0.2147
  297loPI   GL1 4741  17.324  17.182  10.323  0.0525  0.0685  0.1255
  297loPI   GL2 4742  17.468  17.371  10.067 -0.2397  0.1024 -0.3902
  297loPI   C1A 4743  17.149  16.904  10.001 -0.2407  0.2688 -0.0773
  297loPI   C2A 4744  17.176  16.892   9.587  0.0305 -0.1311 -0.3061
  297loPI   C3A 4745  17.107  16.759   9.185  0.0047 -0.3026 -0.1871
  297loPI   C4A 4746  17.190  16.531   8.816 -0.3047  0.1272  0.1152
  297loPI   C5A 4747  17.152  16.071   8.773  0.1401 -0.0163 -0.2726
  297loPI   C6A 4748  17.237  15.685   8.735  0.0568 -0.1778  0.1339
  297loPI   C1B 4749  17.529  17.372   9.611  0.0111  0.1518 -0.0611
  297loPI   C2B 4750  17.511  17.217   9.298 -0.0963 -0.0262 -0.0575
  297loPI   C3B 4751  17.694  17.155   8.793 -0.0617 -0.0692  0.1937
  297loPI   C4B 4752  17.725  17.248   8.344 -0.0119 -0.0160 -0.0727
  298loPI    C1 4753  15.093   1.617  10.605  0.1145  0.2325 -0.0886
  298loPI    C2 4754  15.203   1.678  10.985  0.0220 -0.0813 -0.0086
  298loPI    C3 4755  15.424   1.444  10.748  0.1838  0.2646 -0.2083
  298loPI   PO4 4756  15.112   1.843  10.513  0.3681  0.0831  0.0303
  298loPI   GL1 4757  15.213   2.025  10.201  0.1526  0.0465 -0.3214
  298loPI   GL2 4758  15.150   2.375  10.094 -0.0109  0.0323 -0.0012
  298loPI   C1A 4759  15.271   1.941   9.825 -0.1981  0.1806  0.1653
  298loPI   C2A 4760  15.255   2.019   9.333  0.2201 -0.0247  0.0647
  298loPI   C3A 4761  15.546   2.223   9.101  0.1047 -0.1300 -0.0115
  298loPI   C4A 4762  15.628   2.213   8.596  0.1186 -0.3296  0.0848
  298loPI   C5A 4763  15.603   2.417   8.125  0.0635  0.1059  0.2231
  298loPI   C6A 4764  15.500   2.473   7.708 -0.3953  0.1824 -0.2429
  298loPI   C1B 4765  15.064   2.406   9.698 -0.2783  0.3185 -0.2043
  298loPI   C2B 4766  14.899   2.480   9.215  0.0796  0.0621 -0.0021
  298loPI   C3B 4767  14.826   2.592   8.811 -0.1190  0.0638 -0.0035
  298loPI   C4B 4768  14.660   2.550   8.289  0.2786 -0.0252 -0.0703
  299loPI    C1 4769  10.156   5.968  10.926 -0.0368  0.1786 -0.1817
  299loPI    C2 4770   9.953   5.931  11.268  0.1219  0.2080 -0.0836
  299loPI    C3 4771  10.125   6.279  11.174  0.1449  0.1771 -0.1563
  299loPI   PO4 4772  10.016   5.931  10.701  0.3374  0.2214  0.0313
  299loPI   GL1 4773   9.705   6.100  10.339  0.3071  0.0286 -0.2415
  299loPI   GL2 4774   9.368   6.309  10.453 -0.0614 -0.1497  0.2019
  299loPI   C1A 4775   9.840   6.521  10.139  0.1174 -0.0670 -0.1970
  299loPI   C2A 4776  10.024   6.769   9.763  0.1893 -0.0654  0.0053
  299loPI   C3A 4777  10.082   6.698   9.451 -0.2226 -0.1835  0.1918
  299loPI   C4A 4778   9.976   6.624   9.128 -0.1765  0.0278 -0.0608
  299loPI   C5A 4779  10.128   6.573   8.777 -0.1637 -0.0530  0.1638
  299loPI   C6A 4780  10.403   6.271   8.685 -0.0147  0.2921  0.0726
  299loPI   C1B 4781   9.353   6.592  10.094 -0.5254 -0.1251  0.2711
  299loPI   C2B 4782   9.392   6.866   9.797  0.1094  0.1389  0.0521
  299loPI   C3B 4783   9.177   6.965   9.462  0.0349 -0.3703  0.0779
  299loPI   C4B 4784   9.134   7.165   9.103 -0.1263  0.2668 -0.0799
  300loPI    C1 4785  16.697   7.598  10.891 -0.0569  0.1257  0.5175
  300loPI    C2 4786  17.006   7.536  11.137  0.1021 -0.1112  0.2643
  300loPI    C3 4787  16.650   7.373  11.218  0.1987 -0.3337  0.2485
  300loPI   PO4 4788  16.800   7.546  10.635 -0.0998 -0.2661 -0.0891
  300loPI   GL1 4789  17.140   7.559  10.396 -0.5557 -0.2549 -0.0210
  300loPI   GL2 4790  17.398   7.284  10.276 -0.0448  0.0977 -0.1412
  300loPI   C1A 4791  17.237   7.862  10.061 -0.1087  0.1719 -0.0238
  300loPI   C2A 4792  17.104   7.856   9.679 -0.2731 -0.0898 -0.0624
  300loPI   C3A 4793  17.207   7.889   9.299 -0.0689 -0.3506  0.0448
  300loPI   C4A 4794  17.173   7.926   8.944  0.0109 -0.1171 -0.0373
  300loPI   C5A 4795  17.414   7.917   8.438  0.0012 -0.0934 -0.1767
  300loPI   C6A 4796  17.621   7.549   8.262  0.1245 -0.4176 -0.1991
  300loPI   C1B 4797  17.326   7.425   9.826  0.1641  0.0915  0.0691
  300loPI   C2B 4798  17.327   7.272   9.391  0.3156  0.2060  0.1014
  300loPI   C3B 4799  17.257   7.301   9.011 -0.4237 -0.0109  0.1356
  300loPI   C4B 4800  17.344   7.469   8.657  0.2983  0.2628 -0.3032
  301loPI    C1 4801   3.809  17.625  11.162  0.0743  0.0850 -0.1077
  301loPI    C2 4802   3.505  17.441  11.346  0.1886 -0.1248 -0.1259
  301loPI    C3 4803   3.880  17.385  11.473  0.2403 -0.0348 -0.2362
  301loPI   PO4 4804   3.765  17.550  10.907  0.0840  0.0166  0.0209
  301loPI   GL1 4805   3.954  17.588  10.526  0.1675  0.1301 -0.0412
  301loPI   GL2 4806   4.189  17.477  10.341  0.1852 -0.0351 -0.1633
  301loPI   C1A 4807   3.675  17.525  10.147 -0.0937  0.0039  0.5661
  301loPI   C2A 4808   3.742  17.544   9.727 -0.2350  0.0289 -0.3078
  301loPI   C3A 4809   3.687  17.804   9.398 -0.0580 -0.1075  0.1291
  301loPI   C4A 4810   3.770  17.883   9.022 -0.1388  0.0065 -0.1339
  301loPI   C5A 4811   4.004  17.849   8.667  0.4016 -0.0560 -0.1424
  301loPI   C6A 4812   4.339  17.803   8.330 -0.0693  0.0233 -0.2192
  301loPI   C1B 4813   4.217  17.541   9.878  0.1876  0.1996 -0.2328
  301loPI   C2B 4814   4.207  17.620   9.512  0.0630 -0.0457 -0.1978
  301loPI   C3B 4815   4.258  17.622   9.113  0.0689  0.1022  0.1442
  301loPI   C4B 4816   4.381  17.377   8.797  0.2085 -0.2837  0.1274
  302loPI    C1 4817   1.674   1.908  10.776  0.0025  0.0462  0.1262
  302loPI    C2 4818   1.668   2.299  10.858 -0.0776  0.0712  0.0047
  302loPI    C3 4819   1.561   2.035  11.138 -0.0679  0.1387  0.0725
  302loPI   PO4 4820   1.612   1.963  10.453  0.0772 -0.0435  0.0110
  302loPI   GL1 4821   1.788   2.250  10.075 -0.3075  0.0291 -0.1374
  302loPI   GL2 4822   2.028   2.060  10.036 -0.1088  0.1621  0.0238
  302loPI   C1A 4823   1.635   2.117   9.644  0.1385 -0.2505  0.0186
  302loPI   C2A 4824   1.609   2.323   9.300 -0.2684  0.0239  0.3576
  302loPI   C3A 4825   1.333   2.614   9.134 -0.0060  0.2453 -0.0261
  302loPI   C4A 4826   1.212   2.577   8.714  0.0040  0.1995  0.1270
  302loPI   C5A 4827   1.383   2.669   8.313  0.0839  0.1214  0.0889
  302loPI   C6A 4828   1.191   2.653   7.852  0.1823  0.1114 -0.1207
  302loPI   C1B 4829   2.062   2.388   9.711 -0.1587  0.2310  0.0602
  302loPI   C2B 4830   2.144   2.514   9.415  0.1368 -0.1264  0.0346
  302loPI   C3B 4831   2.091   2.420   8.989 -0.1262 -0.0676 -0.0673
  302loPI   C4B 4832   2.249   2.149   8.740 -0.3005 -0.3910  0.2204
  303loPI    C1 4833   3.216   8.748  10.819 -0.1782 -0.1183 -0.0365
  303loPI    C2 4834   2.895   8.921  10.983 -0.0214 -0.1474  0.3104
  303loPI    C3 4835   2.915   8.523  10.957 -0.0888 -0.1399  0.1258
  303loPI   PO4 4836   3.215   8.897  10.532  0.3912  0.1432 -0.2737
  303loPI   GL1 4837   3.423   8.794  10.167 -0.0562 -0.0746 -0.1074
  303loPI   GL2 4838   3.800   8.816  10.255  0.1239 -0.0803  0.0483
  303loPI   C1A 4839   3.482   8.843   9.690  0.0150 -0.3737 -0.0243
  303loPI   C2A 4840   3.539   8.905   9.209  0.2609  0.2184  0.1758
  303loPI   C3A 4841   3.421   8.875   8.731 -0.1084  0.1390  0.0438
  303loPI   C4A 4842   3.389   8.882   8.386  0.3420 -0.0624  0.0568
  303loPI   C5A 4843   3.502   8.695   7.994 -0.3281 -0.1345  0.0149
  303loPI   C6A 4844   3.176   8.509   7.795 -0.0431 -0.1236  0.3969
  303loPI   C1B 4845   3.930   8.930   9.903  0.1061  0.3564  0.1255
  303loPI   C2B 4846   3.974   8.967   9.429  0.0865 -0.0323 -0.0973
  303loPI   C3B 4847   4.069   9.081   9.097  0.1482  0.3182 -0.0794
  303loPI   C4B 4848   4.120   9.108   8.673  0.2833 -0.0149  0.0676
  304loPI    C1 4849  11.224  14.792  11.096 -0.1020  0.1171  0.0506
  304loPI    C2 4850  11.509  14.605  10.886 -0.1876 -0.1921  0.2036
  304loPI    C3 4851  11.593  14.755  11.248 -0.1046  0.1220  0.0581
  304loPI   PO4 4852  11.045  14.811  10.887 -0.0074  0.1838 -0.0927
  304loPI   GL1 4853  10.831  14.734  10.529  0.0874  0.1508 -0.0075
  304loPI   GL2 4854  11.080  14.478  10.515  0.0738 -0.4404 -0.0507
  304loPI   C1A 4855  10.677  14.730  10.127  0.0493  0.0039 -0.0470
  304loPI   C2A 4856  10.713  14.698   9.694  0.0145  0.0586  0.0677
  304loPI   C3A 4857  10.692  14.791   9.322 -0.0750 -0.5361  0.1048
  304loPI   C4A 4858  10.687  14.787   8.869 -0.4633 -0.1295 -0.0265
  304loPI   C5A 4859  10.507  14.768   8.503 -0.0807  0.1166  0.2581
  304loPI   C6A 4860  10.390  14.778   8.064  0.4548 -0.1768  0.2375
  304loPI   C1B 4861  11.143  14.450  10.101  0.0355  0.0918 -0.0456
  304loPI   C2B 4862  11.155  14.572   9.704 -0.0227  0.3157  0.0751
  304loPI   C3B 4863  11.115  14.579   9.270  0.0854 -0.1719 -0.1444
  304loPI   C4B 4864  11.176  14.652   8.830  0.0912 -0.1715  0.1284
  305loPI    C1 4865  10.723  16.345  10.841  0.2060 -0.3712  0.0803
  305loPI    C2 4866  10.450  16.305  11.131  0.0096 -0.0357 -0.0525
  305loPI    C3 4867  10.405  16.110  10.785 -0.0214 -0.0401 -0.0459
  305loPI   PO4 4868  10.718  16.677  10.837 -0.3559  0.0394 -0.3497
  305loPI   GL1 4869  10.568  16.878  10.431  0.0405 -0.0886  0.0564
  305loPI   GL2 4870  10.707  17.100  10.309 -0.6442 -0.1788  0.0250
  305loPI   C1A 4871  10.320  16.740  10.026 -0.1554 -0.1927 -0.1286
  305loPI   C2A 4872  10.350  16.718   9.540 -0.1964 -0.0206 -0.0811
  305loPI   C3A 4873  10.237  16.757   9.143 -0.0683  0.4210 -0.1309
  305loPI   C4A 4874  10.322  16.752   8.714 -0.3189  0.0278  0.0029
  305loPI   C5A 4875  10.548  16.631   8.326  0.0632  0.1681  0.0625
  305loPI   C6A 4876  10.556  16.407   7.958 -0.0601 -0.1227  0.0780
  305loPI   C1B 4877  10.779  16.992   9.924  0.2569  0.0033 -0.1591
  305loPI   C2B 4878  10.678  17.083   9.494  0.1268  0.0095  0.1850
  305loPI   C3B 4879  10.684  17.016   9.110  0.1595 -0.3647 -0.0856
  305loPI   C4B 4880  10.701  17.085   8.734 -0.0561  0.2983  0.1609
  306loPI    C1 4881  15.571   3.411  10.739 -0.0595  0.1776  0.1698
  306loPI    C2 4882  15.585   3.073  10.953  0.3272  0.1032  0.0355
  306loPI    C3 4883  15.785   3.396  11.077  0.2006  0.1930  0.0083
  306loPI   PO4 4884  15.582   3.281  10.493  0.1628  0.0012  0.0872
  306loPI   GL1 4885  15.637   3.125  10.056  0.0238 -0.2318  0.0382
  306loPI   GL2 4886  15.409   2.933  10.008 -0.4670 -0.3770 -0.1296
  306loPI   C1A 4887  15.797   3.007   9.625 -0.1040 -0.0937 -0.2475
  306loPI   C2A 4888  16.006   2.855   9.292  0.0735 -0.0377 -0.2634
  306loPI   C3A 4889  15.964   2.521   8.925 -0.1829  0.3021  0.0532
  306loPI   C4A 4890  15.843   2.698   8.480 -0.1335  0.1972  0.0930
  306loPI   C5A 4891  15.763   2.848   8.111 -0.2061 -0.1524  0.0674
  306loPI   C6A 4892  15.708   3.247   7.882  0.2393  0.1514 -0.3262
  306loPI   C1B 4893  15.259   2.883   9.551  0.1746  0.0970 -0.1937
  306loPI   C2B 4894  14.978   3.003   9.189  0.0390  0.2086 -0.1619
  306loPI   C3B 4895  14.931   3.158   8.773 -0.0555 -0.1553  0.1413
  306loPI   C4B 4896  14.770   3.035   8.306 -0.0874 -0.2763  0.0393
  307loPI    C1 4897   8.924  10.505  11.039 -0.1257  0.2548 -0.0102
  307loPI    C2 4898   8.653  10.392  11.311  0.0508 -0.0515  0.0432
  307loPI    C3 4899   8.910  10.687  11.395  0.1610 -0.2028  0.2443
  307loPI   PO4 4900   8.720  10.371  10.779  0.2971 -0.0052 -0.2228
  307loPI   GL1 4901   8.734  10.090  10.400 -0.2580  0.4049 -0.0005
  307loPI   GL2 4902   8.544   9.855  10.511  0.0234 -0.1468 -0.3207
  307loPI   C1A 4903   9.018  10.265  10.150 -0.0991 -0.3310 -0.0439
  307loPI   C2A 4904   9.149  10.373   9.715 -0.1228  0.3244  0.0345
  307loPI   C3A 4905   9.267  10.298   9.306  0.4188  0.0751  0.1732
  307loPI   C4A 4906   9.049   9.993   8.952 -0.2344 -0.1661  0.2042
  307loPI   C5A 4907   8.973   9.782   8.436 -0.0905  0.0400 -0.1659
  307loPI   C6A 4908   9.054   9.400   8.141 -0.4036  0.2746  0.0409
  307loPI   C1B 4909   8.504   9.602  10.103  0.1973 -0.3974  0.0413
  307loPI   C2B 4910   8.307   9.586   9.735  0.0748 -0.1902  0.1554
  307loPI   C3B 4911   8.289   9.441   9.278 -0.0671 -0.1105  0.0647
  307loPI   C4B 4912   8.220   9.530   8.733 -0.2344 -0.2473  0.1202
  308loPI    C1 4913   5.169  16.304  11.260 -0.0268 -0.1099  0.0850
  308loPI    C2 4914   4.849  16.316  11.500 -0.0067 -0.2404  0.1188
  308loPI    C3 4915   5.117  16.612  11.510 -0.2577 -0.0009 -0.0937
  308loPI   PO4 4916   5.135  16.231  11.064 -0.0691 -0.0339 -0.0557
  308loPI   GL1 4917   5.310  16.109  10.701 -0.0045 -0.1220  0.1877
  308loPI   GL2 4918   5.239  15.823  10.602  0.0287  0.0665  0.0389
  308loPI   C1A 4919   5.532  16.270  10.224 -0.1551 -0.5355 -0.0970
  308loPI   C2A 4920   5.569  16.337   9.757  0.0898  0.0006 -0.0246
  308loPI   C3A 4921   5.306  16.104   9.409  0.2054 -0.0765 -0.0417
  308loPI   C4A 4922   4.911  15.950   9.279  0.0913 -0.2519 -0.1351
  308loPI   C5A 4923   4.607  15.782   8.953  0.2039  0.1529  0.1520
  308loPI   C6A 4924   4.609  15.935   8.603 -0.1900  0.0117 -0.1173
  308loPI   C1B 4925   5.251  15.863  10.235 -0.0845  0.2147  0.0751
  308loPI   C2B 4926   5.075  15.942   9.877  0.0554  0.0661  0.2076
  308loPI   C3B 4927   4.686  16.059   9.697 -0.0949 -0.0082  0.1356
  308loPI   C4B 4928   4.410  16.145   9.408  0.1298 -0.0192  0.0079
  309loPI    C1 4929   3.565   2.546  10.963  0.0377 -0.1210 -0.0400
  309loPI    C2 4930   3.718   2.790  11.241  0.0106 -0.0709 -0.0688
  309loPI    C3 4931   3.658   2.403  11.325  0.0753 -0.0727 -0.0305
  309loPI   PO4 4932   3.672   2.559  10.756 -0.2152  0.0274  0.0376
  309loPI   GL1 4933   3.737   2.628  10.218  0.2585 -0.1218 -0.0379
  309loPI   GL2 4934   3.529   2.378  10.025  0.0440 -0.3570  0.0148
  309loPI   C1A 4935   3.976   2.661   9.839 -0.1935  0.0328  0.4603
  309loPI   C2A 4936   4.027   2.943   9.495  0.0958  0.2245 -0.3185
  309loPI   C3A 4937   4.027   3.235   9.133  0.0082  0.0100 -0.0106
  309loPI   C4A 4938   4.159   3.277   8.717  0.2072 -0.0159 -0.2606
  309loPI   C5A 4939   4.345   3.708   8.419 -0.1127  0.2177 -0.4203
  309loPI   C6A 4940   4.526   4.038   8.256 -0.1644 -0.0286  0.2036
  309loPI   C1B 4941   3.545   2.464   9.638  0.0369 -0.0030  0.1835
  309loPI   C2B 4942   3.662   2.610   9.322 -0.0965 -0.1719 -0.0928
  309loPI   C3B 4943   4.066   2.697   9.072  0.0508 -0.0030 -0.2796
  309loPI   C4B 4944   4.176   2.752   8.671 -0.1148 -0.0319  0.1180
  310loPI    C1 4945   7.178   5.184  11.101  0.0691 -0.0959 -0.0509
  310loPI    C2 4946   7.220   5.277  11.487 -0.0129 -0.1242 -0.0351
  310loPI    C3 4947   7.403   5.497  11.208 -0.4073  0.2451 -0.0146
  310loPI   PO4 4948   6.861   5.093  11.142 -0.0488  0.2538 -0.1299
  310loPI   GL1 4949   6.657   4.977  10.800  0.3558  0.1176 -0.3544
  310loPI   GL2 4950   6.767   4.673  10.673 -0.0702  0.0970  0.1115
  310loPI   C1A 4951   6.615   5.215  10.436 -0.1483  0.2567  0.0899
  310loPI   C2A 4952   6.693   5.212   9.997 -0.1091 -0.2277 -0.0600
  310loPI   C3A 4953   6.759   5.420   9.556 -0.2062  0.0706  0.0868
  310loPI   C4A 4954   6.762   5.396   9.127  0.2073  0.1061  0.2614
  310loPI   C5A 4955   6.701   5.560   8.763  0.0939 -0.0408 -0.3051
  310loPI   C6A 4956   6.546   5.877   8.501 -0.2980  0.0821 -0.1253
  310loPI   C1B 4957   6.593   4.725  10.245  0.0728  0.1746  0.0841
  310loPI   C2B 4958   6.644   4.821   9.710  0.0908  0.0435  0.0170
  310loPI   C3B 4959   6.590   4.824   9.253 -0.0769  0.2474 -0.0916
  310loPI   C4B 4960   6.625   4.812   8.800  0.0523 -0.0946  0.3268
  311loPI    C1 4961   6.785   8.012  11.195  0.0871 -0.2141  0.1160
  311loPI    C2 4962   6.815   8.023  11.594 -0.0303  0.1265  0.1188
  311loPI    C3 4963   7.037   8.269  11.370 -0.1953  0.1587 -0.0113
  311loPI   PO4 4964   6.794   7.797  11.031 -0.0825 -0.0951  0.0512
  311loPI   GL1 4965   7.068   7.672  10.680 -0.2929  0.1646  0.2736
  311loPI   GL2 4966   6.887   7.437  10.627 -0.0445 -0.2867 -0.2176
  311loPI   C1A 4967   7.058   7.772  10.154 -0.1144 -0.0349  0.1749
  311loPI   C2A 4968   7.023   7.875   9.734  0.1491  0.2863 -0.0396
  311loPI   C3A 4969   7.066   7.913   9.358 -0.0775  0.0928 -0.1332
  311loPI   C4A 4970   7.004   8.051   8.906 -0.1093 -0.1585  0.2233
  311loPI   C5A 4971   7.267   8.005   8.522 -0.1158 -0.2598 -0.2839
  311loPI   C6A 4972   7.463   7.891   8.187 -0.1627 -0.3187  0.0801
  311loPI   C1B 4973   7.000   7.274  10.213 -0.1826 -0.1488 -0.0028
  311loPI   C2B 4974   7.013   7.379   9.815 -0.1013 -0.2488  0.1951
  311loPI   C3B 4975   7.016   7.402   9.373  0.0646  0.1241  0.3478
  311loPI   C4B 4976   7.037   7.442   8.965 -0.2058 -0.0077  0.4687
  312loPI    C1 4977   3.209  12.177  11.364  0.1169  0.4527  0.1991
  312loPI    C2 4978   2.930  12.379  11.568  0.0213  0.1437  0.3811
  312loPI    C3 4979   3.182  12.135  11.760 -0.0596 -0.1411  0.1333
  312loPI   PO4 4980   3.227  12.357  11.173  0.1839 -0.1503 -0.1286
  312loPI   GL1 4981   3.136  12.410  10.814 -0.1383  0.0367 -0.1145
  312loPI   GL2 4982   3.398  12.564  10.600  0.1605  0.1484 -0.2201
  312loPI   C1A 4983   3.172  12.172  10.408 -0.2590 -0.0772  0.0267
  312loPI   C2A 4984   3.056  12.231   9.940 -0.1551 -0.0984 -0.2292
  312loPI   C3A 4985   3.068  12.221   9.489 -0.2143  0.1224  0.4280
  312loPI   C4A 4986   3.030  12.240   9.113  0.1125  0.0069  0.1253
  312loPI   C5A 4987   2.974  12.198   8.693  0.1871  0.0355  0.2240
  312loPI   C6A 4988   3.150  12.315   8.318 -0.0317 -0.2489  0.0421
  312loPI   C1B 4989   3.503  12.585  10.153  0.0241  0.0890  0.1452
  312loPI   C2B 4990   3.482  12.548   9.667 -0.0437 -0.1154 -0.1376
  312loPI   C3B 4991   3.384  12.631   9.280 -0.0739  0.1047 -0.0803
  312loPI   C4B 4992   3.224  12.614   8.837 -0.0862  0.0015 -0.0243
  313loPI    C1 4993   4.176  15.482  11.230 -0.1743 -0.3370  0.0488
  313loPI    C2 4994   3.881  15.741  11.307  0.0302 -0.0860  0.0009
  313loPI    C3 4995   4.113  15.608  11.604 -0.0238 -0.1532  0.0134
  313loPI   PO4 4996   4.285  15.665  11.064 -0.0507 -0.2864 -0.0340
  313loPI   GL1 4997   4.615  15.718  10.759  0.0006 -0.1578 -0.3067
  313loPI   GL2 4998   4.441  15.371  10.642  0.1682  0.3493 -0.1768
  313loPI   C1A 4999   4.729  15.959  10.415 -0.0725  0.0746 -0.1118
  313loPI   C2A 5000   4.965  16.252  10.225  0.4253 -0.0723 -0.1300
  313loPI   C3A 5001   5.112  16.456   9.798 -0.2674 -0.0616  0.2810
  313loPI   C4A 5002   5.272  16.612   9.408  0.0470 -0.1725 -0.0628
  313loPI   C5A 5003   5.319  16.491   9.012  0.1394  0.2172  0.2401
  313loPI   C6A 5004   5.456  16.586   8.479 -0.0853  0.1204  0.0966
  313loPI   C1B 5005   4.297  15.560  10.410  0.2366  0.1300  0.0171
  313loPI   C2B 5006   4.239  15.822  10.075  0.2962  0.0209 -0.2101
  313loPI   C3B 5007   4.267  15.742   9.636  0.3546  0.2219 -0.0738
  313loPI   C4B 5008   4.275  15.526   9.339  0.0913  0.2512 -0.1284
  314loPI    C1 5009  14.538   7.537  11.562  0.1477  0.0440  0.3179
  314loPI    C2 5010  14.414   7.225  11.779 -0.2276 -0.0045  0.0439
  314loPI    C3 5011  14.396   7.595  11.931 -0.1062 -0.0785  0.2421
  314loPI   PO4 5012  14.420   7.587  11.181 -0.1870  0.1579  0.1737
  314loPI   GL1 5013  14.597   7.690  10.708  0.0104 -0.0856  0.1759
  314loPI   GL2 5014  14.825   7.595  10.589 -0.1490 -0.0837  0.2268
  314loPI   C1A 5015  14.387   7.830  10.328  0.0952 -0.0273  0.0645
  314loPI   C2A 5016  14.355   7.862   9.981  0.1224  0.2327 -0.0828
  314loPI   C3A 5017  14.418   7.937   9.604  0.1812 -0.0119 -0.1160
  314loPI   C4A 5018  14.495   7.855   9.085 -0.1350  0.0467 -0.2457
  314loPI   C5A 5019  14.581   7.751   8.731 -0.0668 -0.0764  0.2491
  314loPI   C6A 5020  14.657   7.488   8.362  0.0495 -0.2040  0.2172
  314loPI   C1B 5021  14.825   7.632  10.174  0.2333  0.0743 -0.2573
  314loPI   C2B 5022  14.907   7.704   9.727 -0.0422  0.1239 -0.3829
  314loPI   C3B 5023  14.973   7.782   9.303  0.2576 -0.2595  0.0902
  314loPI   C4B 5024  15.061   7.788   8.834 -0.0758 -0.0052  0.0851
  315loPI    C1 5025   2.982  11.160  10.972 -0.3957 -0.2340  0.1287
  315loPI    C2 5026   2.775  11.359  11.250 -0.3157  0.0093  0.0166
  315loPI    C3 5027   3.144  11.228  11.331 -0.3361 -0.0195  0.0627
  315loPI   PO4 5028   2.911  11.257  10.776  0.0638  0.1718 -0.2585
  315loPI   GL1 5029   2.683  11.395  10.511 -0.1207 -0.1707 -0.1726
  315loPI   GL2 5030   2.464  11.400  10.505 -0.1701 -0.0854 -0.3183
  315loPI   C1A 5031   2.792  11.421  10.084 -0.0680 -0.3027  0.2158
  315loPI   C2A 5032   2.746  11.400   9.606 -0.0273 -0.1662  0.0967
  315loPI   C3A 5033   2.678  11.421   9.209  0.0537 -0.1079 -0.0113
  315loPI   C4A 5034   2.784  11.420   8.766  0.0631  0.0117 -0.1295
  315loPI   C5A 5035   3.028  11.642   8.405 -0.0203  0.2608 -0.1465
  315loPI   C6A 5036   3.301  11.423   8.021 -0.1892 -0.0626  0.1780
  315loPI   C1B 5037   2.404  11.664  10.201  0.0550  0.1324  0.1992
  315loPI   C2B 5038   2.297  11.542   9.785  0.0509 -0.4414  0.1263
  315loPI   C3B 5039   2.201  11.613   9.397  0.0810  0.1513 -0.2031
  315loPI   C4B 5040   2.267  11.606   9.001 -0.2235  0.1562 -0.0200
  316loPI    C1 5041   3.378  11.693  11.226 -0.3629 -0.1269  0.0780
  316loPI    C2 5042   3.361  11.641  11.622 -0.0751  0.0959  0.1229
  316loPI    C3 5043   3.620  11.429  11.402 -0.0260  0.1844  0.0947
  316loPI   PO4 5044   3.156  11.644  11.067  0.0252  0.1869  0.0709
  316loPI   GL1 5045   2.997  11.762  10.673 -0.0530 -0.2396 -0.1279
  316loPI   GL2 5046   3.328  11.624  10.554  0.0911 -0.1345 -0.2172
  316loPI   C1A 5047   2.801  11.924  10.347  0.0430  0.1508 -0.1638
  316loPI   C2A 5048   2.704  11.901   9.885  0.0242  0.1246  0.0848
  316loPI   C3A 5049   2.614  11.955   9.446 -0.1059 -0.1796 -0.4136
  316loPI   C4A 5050   2.721  11.866   9.028  0.0090  0.0886 -0.3143
  316loPI   C5A 5051   2.521  11.876   8.622  0.1185  0.3082 -0.2376
  316loPI   C6A 5052   2.106  11.619   8.490 -0.1054  0.0869  0.2662
  316loPI   C1B 5053   3.216  11.721  10.200  0.2325 -0.0342  0.0913
  316loPI   C2B 5054   3.173  11.600   9.792  0.0855 -0.1300  0.3039
  316loPI   C3B 5055   3.096  11.757   9.310 -0.1585 -0.0615 -0.2555
  316loPI   C4B 5056   3.217  11.779   8.869 -0.4817  0.0743 -0.1037
  317loPI    C1 5057   9.164   0.074  11.219 -0.0596 -0.0573 -0.0625
  317loPI    C2 5058   9.324   0.263  11.533 -0.0461 -0.0355 -0.0824
  317loPI    C3 5059   8.996   0.039  11.580  0.0133 -0.1129 -0.0337
  317loPI   PO4 5060   9.330   0.093  10.931  0.2133  0.0305 -0.6269
  317loPI   GL1 5061   9.275  -0.245  10.533 -0.3355  0.5969 -0.0588
  317loPI   GL2 5062   8.931  -0.128  10.371  0.1601 -0.2816  0.0209
  317loPI   C1A 5063   9.365  -0.233  10.111 -0.0333  0.0386 -0.1418
  317loPI   C2A 5064   9.311  -0.201   9.752  0.2252 -0.1651  0.1938
  317loPI   C3A 5065   9.309  -0.184   9.284  0.2262 -0.0144 -0.1041
  317loPI   C4A 5066   9.239  -0.235   8.840 -0.0080  0.0604 -0.3346
  317loPI   C5A 5067   9.276  -0.238   8.457  0.0437  0.0417 -0.1710
  317loPI   C6A 5068   9.485  -0.287   8.035  0.0082  0.2834 -0.0716
  317loPI   C1B 5069   8.887   0.041  10.006  0.1396  0.1999  0.0298
  317loPI   C2B 5070   8.826  -0.015   9.470  0.1652 -0.1206  0.0776
  317loPI   C3B 5071   8.690  -0.075   9.055  0.0751 -0.0494  0.3356
  317loPI   C4B 5072   8.533   0.005   8.640  0.1147  0.1172  0.1137
  318loPI    C1 5073   9.469  10.465  11.198  0.1756 -0.0695 -0.0983
  318loPI    C2 5074   9.185  10.217  11.331  0.0380 -0.0071 -0.2703
  318loPI    C3 5075   9.571  10.114  11.360 -0.0003 -0.0928 -0.0356
  318loPI   PO4 5076   9.443  10.503  11.016  0.1043 -0.0875 -0.1380
  318loPI   GL1 5077   9.538  10.757  10.662  0.4117 -0.1268 -0.1203
  318loPI   GL2 5078   9.597  10.837  10.418  0.2275 -0.2511 -0.2537
  318loPI   C1A 5079   9.746  10.351  10.453 -0.0059 -0.0187  0.0681
  318loPI   C2A 5080   9.939  10.388  10.113 -0.1049  0.0798 -0.0520
  318loPI   C3A 5081   9.796  10.426   9.726 -0.1696  0.2482  0.1132
  318loPI   C4A 5082   9.802  10.386   9.232  0.1133  0.1391  0.1211
  318loPI   C5A 5083   9.968  10.160   8.897  0.1565 -0.2608  0.1513
  318loPI   C6A 5084  10.227  10.081   8.603 -0.1635 -0.0894  0.0652
  318loPI   C1B 5085   9.510  10.704  10.067  0.1349  0.2261  0.1725
  318loPI   C2B 5086   9.471  10.744   9.608 -0.0594 -0.3882  0.1522
  318loPI   C3B 5087   9.757  10.920   9.250  0.3957  0.5330  0.3590
  318loPI   C4B 5088   9.965  10.718   8.818  0.2234  0.0937 -0.4573
  319loPI    C1 5089   9.598  15.574  11.056  0.0550  0.0703  0.0506
  319loPI    C2 5090   9.574  15.380  11.405 -0.0290  0.0563  0.0374
  319loPI    C3 5091   9.796  15.711  11.374  0.1557 -0.0653  0.0472
  319loPI   PO4 5092   9.310  15.623  10.978 -0.0123 -0.0158 -0.1766
  319loPI   GL1 5093   9.317  15.605  10.643  0.0047 -0.0861 -0.1678
  319loPI   GL2 5094   9.183  15.293  10.581  0.1768 -0.0167  0.1393
  319loPI   C1A 5095   9.187  15.821  10.224 -0.2408 -0.0967 -0.0772
  319loPI   C2A 5096   9.171  15.884   9.812 -0.0017 -0.1283  0.0186
  319loPI   C3A 5097   9.188  15.692   9.444 -0.0174 -0.0769  0.0526
  319loPI   C4A 5098   9.137  15.761   9.000 -0.1258 -0.1021  0.0807
  319loPI   C5A 5099   9.023  15.769   8.623 -0.0810 -0.1739  0.1390
  319loPI   C6A 5100   8.659  15.758   8.370 -0.1616 -0.1466  0.1906
  319loPI   C1B 5101   9.259  15.277  10.061  0.0249 -0.3335  0.0479
  319loPI   C2B 5102   9.262  15.190   9.609 -0.0637  0.0046 -0.1872
  319loPI   C3B 5103   9.248  15.168   9.259  0.0025 -0.2376 -0.1171
  319loPI   C4B 5104   9.191  15.261   8.809 -0.2796  0.2214 -0.0285
  320loPI    C1 5105   6.302  13.052  11.238 -0.0907  0.0128  0.0460
  320loPI    C2 5106   5.961  13.157  11.056 -0.0159  0.1592 -0.0115
  320loPI    C3 5107   5.961  12.865  11.329 -0.2094  0.2405  0.0772
  320loPI   PO4 5108   6.433  13.020  11.040  0.1326 -0.1569 -0.0798
  320loPI   GL1 5109   6.547  12.867  10.618 -0.1759 -0.1132 -0.0127
  320loPI   GL2 5110   6.588  13.190  10.532 -0.0670  0.0712 -0.0188
  320loPI   C1A 5111   6.366  12.639  10.318 -0.2304 -0.3189 -0.0540
  320loPI   C2A 5112   6.144  12.439   9.998 -0.1746 -0.2703  0.2710
  320loPI   C3A 5113   6.077  12.398   9.610  0.0224 -0.2557  0.5788
  320loPI   C4A 5114   6.101  12.390   9.141  0.3018  0.0826  0.0275
  320loPI   C5A 5115   5.969  12.447   8.696 -0.1298  0.2366 -0.2074
  320loPI   C6A 5116   5.878  12.215   8.291 -0.0008 -0.0366  0.2623
  320loPI   C1B 5117   6.513  13.134  10.119  0.4235  0.2344  0.0330
  320loPI   C2B 5118   6.462  13.215   9.700 -0.1270 -0.0578  0.2159
  320loPI   C3B 5119   6.802  13.242   9.359  0.2165  0.2944  0.0178
  320loPI   C4B 5120   7.027  12.969   9.114  0.0540 -0.1216  0.0113
  321loPI    C1 5121  11.261  17.406  10.958  0.2092  0.3149  0.3490
  321loPI    C2 5122  11.064  17.741  11.052 -0.3231  0.1066  0.0187
  321loPI    C3 5123  11.122  17.459  11.329 -0.3436  0.2415  0.1615
  321loPI   PO4 5124  11.319  17.461  10.646  0.1299 -0.2537 -0.0238
  321loPI   GL1 5125  11.186  17.302  10.268  0.1392  0.1873  0.0312
  321loPI   GL2 5126  11.356  17.012  10.508  0.0277  0.0679 -0.1980
  321loPI   C1A 5127  11.129  17.280   9.835  0.1004 -0.3588  0.1776
  321loPI   C2A 5128  11.092  17.331   9.380 -0.1531 -0.0104 -0.1364
  321loPI   C3A 5129  11.096  17.455   8.870 -0.1422 -0.2613 -0.0654
  321loPI   C4A 5130  10.944  17.328   8.436 -0.0558  0.1045  0.3438
  321loPI   C5A 5131  10.770  17.191   8.056 -0.1708  0.0288 -0.0404
  321loPI   C6A 5132  10.444  16.912   7.843  0.1431  0.0006  0.0533
  321loPI   C1B 5133  11.268  16.851  10.010  0.3843  0.1823  0.0990
  321loPI   C2B 5134  11.133  16.846   9.540 -0.0096 -0.0899  0.0015
  321loPI   C3B 5135  11.200  16.918   9.084  0.0096  0.1017  0.0852
  321loPI   C4B 5136  11.295  16.936   8.584  0.0597  0.1805  0.1885
  322loPI    C1 5137  13.400  12.111  11.477  0.0547  0.0442 -0.0363
  322loPI    C2 5138  13.546  11.943  11.809 -0.1591 -0.1048 -0.0154
  322loPI    C3 5139  13.736  12.253  11.642 -0.1684  0.1163  0.3711
  322loPI   PO4 5140  13.392  12.002  11.276 -0.2703  0.0418 -0.0585
  322loPI   GL1 5141  13.243  12.133  10.897  0.1452 -0.0148  0.0895
  322loPI   GL2 5142  13.085  11.929  10.858  0.2068  0.1431 -0.0397
  322loPI   C1A 5143  13.496  12.320  10.543  0.1918  0.0055  0.0409
  322loPI   C2A 5144  13.421  12.390  10.066 -0.2386 -0.4811 -0.0224
  322loPI   C3A 5145  13.446  12.421   9.681  0.0273  0.1225  0.0730
  322loPI   C4A 5146  13.446  12.344   9.339 -0.0421  0.3512  0.0138
  322loPI   C5A 5147  13.177  12.390   8.896  0.0812 -0.0579 -0.0566
  322loPI   C6A 5148  13.154  12.492   8.568 -0.0909 -0.1316 -0.1412
  322loPI   C1B 5149  13.061  11.935  10.354 -0.2035 -0.3603 -0.0828
  322loPI   C2B 5150  13.044  11.987   9.862  0.0042 -0.1416  0.2569
  322loPI   C3B 5151  12.998  12.122   9.544  0.3536  0.3864  0.2084
  322loPI   C4B 5152  13.107  11.991   9.243  0.0226  0.1873 -0.0280
  323loPI    C1 5153  11.044  13.200  11.275  0.1347 -0.0793  0.0432
  323loPI    C2 5154  11.292  13.170  11.588  0.1102  0.1261  0.0835
  323loPI    C3 5155  10.968  13.404  11.611 -0.2040 -0.2997  0.1048
  323loPI   PO4 5156  11.194  13.200  11.027  0.0310 -0.0229  0.1479
  323loPI   GL1 5157  11.442  13.038  10.766 -0.0801 -0.0605 -0.0699
  323loPI   GL2 5158  11.528  12.741  10.764 -0.3359 -0.2854 -0.1368
  323loPI   C1A 5159  11.523  13.017  10.362  0.2604  0.0672  0.0608
  323loPI   C2A 5160  11.509  13.121   9.873 -0.0417  0.0232 -0.2795
  323loPI   C3A 5161  11.473  13.016   9.490  0.1029 -0.0802 -0.2400
  323loPI   C4A 5162  11.417  13.068   8.976  0.0032  0.0121  0.0264
  323loPI   C5A 5163  11.547  12.816   8.655  0.1146 -0.1508  0.0631
  323loPI   C6A 5164  11.863  12.428   8.533  0.1126 -0.1703 -0.0634
  323loPI   C1B 5165  11.558  12.502  10.302  0.0320 -0.0228 -0.6029
  323loPI   C2B 5166  11.541  12.625   9.971 -0.2553  0.3348 -0.0090
  323loPI   C3B 5167  11.610  12.579   9.541  0.2986 -0.0634 -0.0888
  323loPI   C4B 5168  11.669  12.616   9.073  0.0157 -0.1210  0.1700
  324loPI    C1 5169  12.996   6.579  11.149 -0.0298 -0.1197  0.0663
  324loPI    C2 5170  13.008   6.179  11.152 -0.1679 -0.1232  0.2807
  324loPI    C3 5171  12.813   6.376  11.441 -0.0930  0.0998  0.1810
  324loPI   PO4 5172  13.033   6.597  10.915  0.0742 -0.0064 -0.2114
  324loPI   GL1 5173  12.860   6.548  10.521  0.1761  0.2297  0.2945
  324loPI   GL2 5174  13.030   6.749  10.438  0.0083  0.0358 -0.2371
  324loPI   C1A 5175  12.861   6.417  10.101 -0.1951  0.1128 -0.0391
  324loPI   C2A 5176  12.910   6.417   9.585 -0.2782  0.3308  0.3600
  324loPI   C3A 5177  12.798   6.502   9.185  0.0847 -0.0591 -0.0478
  324loPI   C4A 5178  12.729   6.366   8.856  0.0124 -0.0415 -0.0005
  324loPI   C5A 5179  12.628   6.174   8.426 -0.2555 -0.1108 -0.0686
  324loPI   C6A 5180  12.381   6.248   8.152 -0.1819 -0.1060  0.0016
  324loPI   C1B 5181  13.253   6.802  10.110  0.0320  0.0123 -0.1034
  324loPI   C2B 5182  13.252   6.812   9.694  0.1234  0.0270  0.1849
  324loPI   C3B 5183  13.198   6.849   9.301 -0.1475 -0.5398 -0.1237
  324loPI   C4B 5184  13.058   6.867   8.913  0.0763 -0.1425  0.0622
  325loPI    C1 5185  15.130  11.801  11.770 -0.0022  0.1671 -0.0456
  325loPI    C2 5186  14.899  11.556  11.987 -0.1607  0.2475 -0.1221
  325loPI    C3 5187  14.888  11.951  12.050  0.0183  0.2450 -0.0693
  325loPI   PO4 5188  15.063  11.729  11.522 -0.3306 -0.2327  0.0054
  325loPI   GL1 5189  15.015  11.498  11.155 -0.2070 -0.1682 -0.0333
  325loPI   GL2 5190  14.725  11.451  11.249 -0.0394 -0.0580  0.1414
  325loPI   C1A 5191  15.122  11.411  10.799 -0.1322  0.0362 -0.1330
  325loPI   C2A 5192  14.999  11.379  10.343  0.1214  0.0367  0.0234
  325loPI   C3A 5193  15.052  11.482   9.845  0.3272  0.1714 -0.0196
  325loPI   C4A 5194  15.034  11.395   9.399 -0.0307  0.3634 -0.2119
  325loPI   C5A 5195  15.101  11.370   8.993 -0.1439  0.0566  0.0978
  325loPI   C6A 5196  15.256  11.309   8.592 -0.0685 -0.3176 -0.1300
  325loPI   C1B 5197  14.639  11.461  10.742  0.2548  0.2130 -0.1515
  325loPI   C2B 5198  14.488  11.438  10.313  0.0800 -0.0326 -0.0892
  325loPI   C3B 5199  14.575  11.536   9.859  0.0925  0.0018  0.0471
  325loPI   C4B 5200  14.567  11.625   9.423  0.1671  0.0725 -0.2230
  326loPI    C1 5201   5.077  15.083  11.197 -0.2999  0.3142  0.0193
  326loPI    C2 5202   5.417  15.104  11.406 -0.2678 -0.3343  0.0514
  326loPI    C3 5203   5.125  15.368  11.474  0.0679 -0.0185  0.3094
  326loPI   PO4 5204   5.169  15.043  10.979  0.2903 -0.0854  0.0956
  326loPI   GL1 5205   5.014  14.967  10.540 -0.0744  0.2482  0.0801
  326loPI   GL2 5206   4.905  15.255  10.585 -0.2762 -0.3689 -0.2245
  326loPI   C1A 5207   4.865  14.935  10.126 -0.1673  0.2108  0.4826
  326loPI   C2A 5208   4.872  14.965   9.785 -0.1778 -0.3029  0.1566
  326loPI   C3A 5209   5.028  15.085   9.426  0.1020  0.1068 -0.1478
  326loPI   C4A 5210   5.084  15.004   9.057  0.1947 -0.2783 -0.1437
  326loPI   C5A 5211   5.260  15.183   8.694  0.0462  0.2287 -0.0483
  326loPI   C6A 5212   5.216  14.872   8.367 -0.2766 -0.0269  0.1362
  326loPI   C1B 5213   4.783  15.422  10.233 -0.1833 -0.2066  0.1326
  326loPI   C2B 5214   4.671  15.591   9.974 -0.1553 -0.2315  0.0361
  326loPI   C3B 5215   4.710  15.508   9.523 -0.3280  0.0465  0.0928
  326loPI   C4B 5216   4.774  15.371   9.067  0.0577  0.2979  0.0107
  327loPI    C1 5217   7.575   2.683  11.319 -0.0537 -0.0092 -0.0673
  327loPI    C2 5218   7.547   2.294  11.229 -0.1049  0.0114 -0.1410
  327loPI    C3 5219   7.217   2.504  11.316 -0.0931  0.0698 -0.2351
  327loPI   PO4 5220   7.754   2.762  11.118  0.1087  0.3377  0.0625
  327loPI   GL1 5221   7.850   2.832  10.633  0.0273  0.0311  0.2312
  327loPI   GL2 5222   7.650   2.990  10.632  0.0315  0.2108 -0.0335
  327loPI   C1A 5223   7.747   2.684  10.241 -0.2399 -0.0244 -0.1100
  327loPI   C2A 5224   7.602   2.708   9.765  0.0402  0.0766 -0.1614
  327loPI   C3A 5225   7.708   2.760   9.373 -0.2017 -0.4993  0.2499
  327loPI   C4A 5226   7.772   2.957   8.886 -0.2410 -0.0402  0.0953
  327loPI   C5A 5227   7.826   2.940   8.441  0.0552 -0.0552 -0.2037
  327loPI   C6A 5228   7.538   2.980   8.018 -0.0515  0.0306  0.1944
  327loPI   C1B 5229   7.653   3.157  10.215 -0.0640  0.3022 -0.1300
  327loPI   C2B 5230   7.718   3.342   9.788 -0.1506  0.0054  0.5628
  327loPI   C3B 5231   7.798   3.328   9.350  0.1563 -0.0494  0.3183
  327loPI   C4B 5232   7.811   3.478   8.956 -0.4180  0.0589 -0.0521
  328loPI    C1 5233   7.194   3.950  11.293  0.0544 -0.1349  0.1613
  328loPI    C2 5234   7.316   4.324  11.366 -0.1016 -0.0917  0.2035
  328loPI    C3 5235   7.248   4.073  11.670 -0.2406 -0.0758  0.1867
  328loPI   PO4 5236   6.997   4.013  11.102 -0.4975  0.2942  0.0608
  328loPI   GL1 5237   7.093   4.177  10.704 -0.2812  0.1660  0.2815
  328loPI   GL2 5238   7.066   3.880  10.484  0.0410 -0.0116  0.2570
  328loPI   C1A 5239   7.003   4.370  10.320 -0.2030 -0.0124  0.2067
  328loPI   C2A 5240   6.966   4.486   9.905  0.1549  0.2229  0.0987
  328loPI   C3A 5241   7.008   4.481   9.442  0.1952  0.0161 -0.2234
  328loPI   C4A 5242   7.041   4.584   9.007 -0.0012  0.2083 -0.0297
  328loPI   C5A 5243   7.151   4.701   8.606 -0.1263  0.0972  0.1673
  328loPI   C6A 5244   7.446   4.666   8.194 -0.1192 -0.0730 -0.1110
  328loPI   C1B 5245   6.858   3.878  10.044 -0.1291 -0.1803 -0.0093
  328loPI   C2B 5246   6.977   3.963   9.593 -0.2805  0.1603  0.0317
  328loPI   C3B 5247   6.923   4.011   9.125 -0.3620 -0.1274  0.0030
  328loPI   C4B 5248   7.018   4.018   8.719 -0.0905 -0.2659  0.0868
  329loPI    C1 5249  13.968  17.653  10.966  0.1565  0.0985 -0.1625
  329loPI    C2 5250  14.325  17.763  11.109  0.1145  0.0551 -0.0236
  329loPI    C3 5251  14.011  17.734  11.355  0.0386 -0.0071 -0.1270
  329loPI   PO4 5252  13.922  17.683  10.657  0.2589 -0.1059  0.0309
  329loPI   GL1 5253  13.737  17.524  10.248  0.2699  0.3744  0.2226
  329loPI   GL2 5254  13.407  17.343  10.338 -0.2744  0.0825  0.2070
  329loPI   C1A 5255  13.837  17.552   9.789  0.0481  0.1033 -0.2701
  329loPI   C2A 5256  13.732  17.511   9.285  0.2368 -0.1524 -0.0283
  329loPI   C3A 5257  13.633  17.741   8.883  0.0342 -0.1727 -0.3115
  329loPI   C4A 5258  13.601  18.059   8.539 -0.0264 -0.0654  0.3026
  329loPI   C5A 5259  13.496  18.310   8.120  0.1926 -0.0139  0.0393
  329loPI   C6A 5260  13.560  18.654   7.726  0.0287  0.1163 -0.2603
  329loPI   C1B 5261  13.429  17.242   9.893 -0.1231 -0.3613 -0.2210
  329loPI   C2B 5262  13.405  17.268   9.499  0.0097 -0.1240 -0.1758
  329loPI   C3B 5263  13.270  17.170   9.179  0.2414  0.4223  0.0571
  329loPI   C4B 5264  13.390  17.172   8.769 -0.1856 -0.4060 -0.2072
  330loPI    C1 5265  12.126  10.045  11.475 -0.2156  0.3733 -0.0521
  330loPI    C2 5266  12.445  10.091  11.712 -0.2038  0.0803 -0.0078
  330loPI    C3 5267  12.083  10.034  11.873 -0.2012 -0.0844 -0.0576
  330loPI   PO4 5268  12.173  10.175  11.225 -0.1169  0.2076 -0.1314
  330loPI   GL1 5269  12.356  10.412  10.871 -0.0149 -0.2349 -0.2662
  330loPI   GL2 5270  12.297  10.765  10.806 -0.2851 -0.0645  0.0034
  330loPI   C1A 5271  12.351  10.333  10.462 -0.0451  0.1185  0.0684
  330loPI   C2A 5272  12.468  10.326  10.039  0.1375 -0.1506  0.1656
  330loPI   C3A 5273  12.473  10.393   9.635 -0.2770 -0.1968  0.0153
  330loPI   C4A 5274  12.444  10.557   9.177  0.1541 -0.0383 -0.2799
  330loPI   C5A 5275  12.408  10.564   8.743 -0.1453  0.2609  0.0238
  330loPI   C6A 5276  12.550  10.085   8.543 -0.0247  0.0716 -0.0950
  330loPI   C1B 5277  12.392  10.797  10.330  0.3027 -0.2238  0.2188
  330loPI   C2B 5278  12.364  10.919   9.987  0.0414  0.0483  0.1271
  330loPI   C3B 5279  12.378  10.947   9.553 -0.0591 -0.2258  0.1026
  330loPI   C4B 5280  12.400  11.013   9.053 -0.1550 -0.1732  0.0295
  331loPI    C1 5281  17.218  10.821  11.482  0.0622  0.0833 -0.1786
  331loPI    C2 5282  17.381  10.891  11.124  0.5076  0.0389  0.0088
  331loPI    C3 5283  17.609  10.758  11.425  0.1168 -0.0357  0.2797
  331loPI   PO4 5284  16.984  10.747  11.428 -0.0757 -0.0183  0.5135
  331loPI   GL1 5285  16.932  10.674  10.928 -0.2707 -0.2263 -0.1104
  331loPI   GL2 5286  16.810  10.958  10.945 -0.1605 -0.1150 -0.0182
  331loPI   C1A 5287  17.168  10.696  10.654  0.0165  0.0931  0.0025
  331loPI   C2A 5288  17.086  10.749  10.215 -0.1371 -0.0666  0.0219
  331loPI   C3A 5289  17.059  10.859   9.846 -0.3930  0.3057  0.1783
  331loPI   C4A 5290  17.103  10.771   9.472  0.0301 -0.1425  0.3046
  331loPI   C5A 5291  16.954  10.754   8.996  0.3171 -0.0252  0.1644
  331loPI   C6A 5292  17.125  10.885   8.673  0.0358 -0.1160 -0.1342
  331loPI   C1B 5293  16.707  10.899  10.549 -0.0464  0.1634  0.1016
  331loPI   C2B 5294  16.622  10.982  10.174 -0.0181 -0.1761  0.1126
  331loPI   C3B 5295  16.618  10.961   9.682  0.1345 -0.0969 -0.1173
  331loPI   C4B 5296  16.557  10.851   9.274  0.1117 -0.0054 -0.1650
  332loPI    C1 5297   2.563   9.820  10.985 -0.1660  0.0398 -0.1598
  332loPI    C2 5298   2.804   9.633  11.243 -0.1297  0.0279 -0.2021
  332loPI    C3 5299   2.417   9.682  11.330 -0.0875  0.1524 -0.0807
  332loPI   PO4 5300   2.617   9.760  10.743  0.2345  0.1092  0.0225
  332loPI   GL1 5301   2.456   9.805  10.346 -0.0568  0.2751  0.3210
  332loPI   GL2 5302   2.640   9.607  10.226 -0.3048 -0.0593  0.4526
  332loPI   C1A 5303   2.743  10.041   9.854 -0.0310  0.0310 -0.1714
  332loPI   C2A 5304   2.772   9.993   9.463 -0.0550 -0.0589  0.1936
  332loPI   C3A 5305   2.830   9.998   9.031 -0.0297  0.0557  0.4054
  332loPI   C4A 5306   2.885   9.898   8.633 -0.2503 -0.1336 -0.1532
  332loPI   C5A 5307   3.204   9.592   8.418  0.1659 -0.2720  0.4482
  332loPI   C6A 5308   3.484   9.605   8.083  0.2006  0.2233  0.1894
  332loPI   C1B 5309   2.680   9.540   9.880  0.0754 -0.1234  0.0326
  332loPI   C2B 5310   2.689   9.446   9.413  0.1084 -0.0278 -0.3469
  332loPI   C3B 5311   2.687   9.536   8.946 -0.3619 -0.2369  0.1522
  332loPI   C4B 5312   2.393   9.585   8.638  0.0346  0.2650  0.2448
  333loPI    C1 5313  13.952  16.930  11.314  0.0852 -0.0771 -0.0133
  333loPI    C2 5314  14.183  17.253  11.270  0.0839 -0.0643  0.0709
  333loPI    C3 5315  14.274  16.979  11.547  0.1081 -0.1569 -0.0278
  333loPI   PO4 5316  13.916  16.814  10.970 -0.1102  0.1289 -0.1005
  333loPI   GL1 5317  14.131  16.864  10.569 -0.2468  0.1418  0.0769
  333loPI   GL2 5318  14.378  16.907  10.554  0.2956  0.1652  0.2240
  333loPI   C1A 5319  13.925  17.035  10.198  0.4335 -0.1167 -0.1141
  333loPI   C2A 5320  13.874  17.024   9.730  0.0617 -0.2197  0.0957
  333loPI   C3A 5321  13.909  17.030   9.229 -0.3047 -0.0150 -0.0795
  333loPI   C4A 5322  13.839  17.241   8.890 -0.0812  0.1634  0.2309
  333loPI   C5A 5323  13.747  17.361   8.468  0.0156 -0.1606  0.0875
  333loPI   C6A 5324  13.553  17.649   8.217 -0.0526  0.1157 -0.1280
  333loPI   C1B 5325  14.398  16.978  10.155  0.1399  0.1929 -0.1172
  333loPI   C2B 5326  14.384  16.923   9.689  0.0968  0.0256  0.0048
  333loPI   C3B 5327  14.427  16.863   9.286  0.2763 -0.1000 -0.0043
  333loPI   C4B 5328  14.487  16.774   8.849  0.1896 -0.0534 -0.4729
  334loPI    C1 5329  11.753   6.250  10.962  0.0145 -0.1243  0.0458
  334loPI    C2 5330  12.029   6.207  11.248  0.2089 -0.1034 -0.1368
  334loPI    C3 5331  11.919   5.893  11.026  0.0405 -0.1250 -0.0245
  334loPI   PO4 5332  11.831   6.484  10.753 -0.2072  0.0853 -0.1449
  334loPI   GL1 5333  12.008   6.614  10.418 -0.1016 -0.1979  0.1330
  334loPI   GL2 5334  12.337   6.456  10.232 -0.0241 -0.3716 -0.1292
  334loPI   C1A 5335  11.878   6.713  10.071  0.1764  0.1325  0.0174
  334loPI   C2A 5336  11.882   6.779   9.616 -0.2074 -0.0757  0.0001
  334loPI   C3A 5337  11.721   6.767   9.257  0.2656 -0.2060  0.2712
  334loPI   C4A 5338  11.337   6.817   9.024 -0.0226  0.3678  0.2931
  334loPI   C5A 5339  10.935   6.640   8.805 -0.1348 -0.0596 -0.1047
  334loPI   C6A 5340  10.636   6.895   8.586  0.2458 -0.0920  0.1642
  334loPI   C1B 5341  12.367   6.614   9.753 -0.1421 -0.0445 -0.0439
  334loPI   C2B 5342  12.289   6.626   9.282  0.3296 -0.0997 -0.2285
  334loPI   C3B 5343  12.192   6.603   8.928 -0.3169 -0.0610 -0.0959
  334loPI   C4B 5344  12.440   6.628   8.553  0.0814 -0.1049 -0.1198
  335loPI    C1 5345   9.766  16.984  11.346 -0.2341 -0.3498  0.1022
  335loPI    C2 5346   9.828  17.328  11.540 -0.1293 -0.2200 -0.1563
  335loPI    C3 5347   9.487  17.126  11.595 -0.0522 -0.2485  0.2504
  335loPI   PO4 5348   9.892  17.073  11.106 -0.0869 -0.2763  0.0945
  335loPI   GL1 5349   9.901  16.883  10.704  0.0191  0.3553 -0.0555
  335loPI   GL2 5350   9.558  17.031  10.708  0.0779  0.0058  0.0361
  335loPI   C1A 5351  10.026  16.900  10.371  0.0356 -0.0086 -0.0366
  335loPI   C2A 5352   9.846  16.991   9.932  0.2368  0.0438 -0.2997
  335loPI   C3A 5353   9.872  16.916   9.551 -0.1822 -0.2540 -0.2810
  335loPI   C4A 5354   9.840  16.979   9.095  0.2128 -0.0748 -0.0409
  335loPI   C5A 5355   9.778  16.933   8.713  0.3173  0.0787  0.1399
  335loPI   C6A 5356  10.160  16.979   8.246  0.0651  0.0878  0.0823
  335loPI   C1B 5357   9.511  17.137  10.301  0.2591 -0.2362  0.1645
  335loPI   C2B 5358   9.386  17.168   9.842  0.1729  0.1621 -0.1875
  335loPI   C3B 5359   9.353  17.165   9.362  0.0082 -0.2154 -0.0870
  335loPI   C4B 5360   9.333  17.116   8.955  0.1613 -0.0814  0.1480
  336loPI    C1 5361  11.835  13.135  11.254  0.0100  0.0390  0.0440
  336loPI    C2 5362  11.713  13.380  11.546  0.0888  0.0942  0.0306
  336loPI    C3 5363  12.083  13.229  11.553  0.1073  0.1342 -0.0659
  336loPI   PO4 5364  11.930  13.263  11.001 -0.4025  0.0078 -0.2602
  336loPI   GL1 5365  12.250  13.416  10.805  0.1415  0.1801  0.4685
  336loPI   GL2 5366  12.194  13.692  10.594 -0.0044 -0.2373  0.1937
  336loPI   C1A 5367  12.340  13.177  10.375 -0.3053  0.3430  0.0020
  336loPI   C2A 5368  12.400  13.207   9.980 -0.1730  0.0965  0.1089
  336loPI   C3A 5369  12.399  13.223   9.618  0.1549 -0.2174 -0.0040
  336loPI   C4A 5370  12.434  13.225   9.138 -0.1439  0.2751  0.1206
  336loPI   C5A 5371  12.424  13.220   8.685  0.0451 -0.3070  0.0114
  336loPI   C6A 5372  12.354  13.105   8.304  0.2822  0.3077  0.1079
  336loPI   C1B 5373  12.313  13.664  10.127  0.1179 -0.0212  0.1852
  336loPI   C2B 5374  12.210  13.710   9.695 -0.2305  0.0674 -0.1140
  336loPI   C3B 5375  12.277  13.678   9.280 -0.5127 -0.0102  0.1697
  336loPI   C4B 5376  12.568  13.713   8.886 -0.0636  0.2230 -0.0399
  337loPI    C1 5377   9.546   9.605  11.279 -0.0570 -0.1343 -0.1539
  337loPI    C2 5378   9.361   9.295  11.450 -0.0410 -0.1138 -0.0989
  337loPI    C3 5379   9.756   9.341  11.493 -0.0647 -0.0084  0.0115
  337loPI   PO4 5380   9.490   9.689  10.959  0.0658 -0.1714 -0.0766
  337loPI   GL1 5381   9.634   9.902  10.620 -0.1744 -0.1651  0.0218
  337loPI   GL2 5382   9.371   9.940  10.396 -0.1485 -0.0949 -0.2862
  337loPI   C1A 5383   9.923   9.849  10.251  0.1237  0.1956 -0.0537
  337loPI   C2A 5384  10.161  10.002   9.877  0.2086 -0.1538  0.3243
  337loPI   C3A 5385  10.240  10.239   9.559 -0.0783  0.1935 -0.1858
  337loPI   C4A 5386  10.385  10.162   9.149  0.1485  0.0721 -0.0030
  337loPI   C5A 5387  10.672  10.075   8.795  0.1595  0.0925  0.1463
  337loPI   C6A 5388  10.777  10.054   8.323 -0.0628  0.4402 -0.1546
  337loPI   C1B 5389   9.460  10.027   9.923 -0.1136  0.1753  0.0605
  337loPI   C2B 5390   9.774   9.895   9.625 -0.2980 -0.3248  0.3184
  337loPI   C3B 5391  10.066   9.758   9.355  0.1279 -0.0450  0.1201
  337loPI   C4B 5392  10.007   9.484   9.043  0.1681 -0.1183 -0.0278
  338loPI    C1 5393  15.412  13.545  11.470  0.1383  0.0564  0.0576
  338loPI    C2 5394  15.265  13.889  11.610 -0.1418 -0.0416  0.0118
  338loPI    C3 5395  15.408  13.615  11.864  0.1454  0.1334  0.0440
  338loPI   PO4 5396  15.207  13.436  11.293  0.0917 -0.2027  0.1760
  338loPI   GL1 5397  14.930  13.602  11.003  0.0885 -0.0822  0.2991
  338loPI   GL2 5398  14.847  13.853  10.855  0.3217  0.0486 -0.0562
  338loPI   C1A 5399  15.048  13.348  10.628 -0.2500 -0.0048  0.0951
  338loPI   C2A 5400  15.096  13.307  10.233 -0.0317 -0.0303 -0.1822
  338loPI   C3A 5401  15.058  13.237   9.808 -0.1767  0.1245  0.1582
  338loPI   C4A 5402  15.089  13.296   9.324  0.0259 -0.0602 -0.0760
  338loPI   C5A 5403  15.172  13.170   8.992 -0.0429  0.0612 -0.2997
  338loPI   C6A 5404  15.400  13.107   8.653 -0.1229  0.0472  0.0711
  338loPI   C1B 5405  14.853  13.807  10.438 -0.0335 -0.3494  0.0692
  338loPI   C2B 5406  14.921  13.827  10.047  0.0887  0.1492 -0.0057
  338loPI   C3B 5407  14.977  13.769   9.555 -0.1766 -0.0816 -0.2581
  338loPI   C4B 5408  15.035  13.773   9.155  0.2843  0.1250 -0.1792
  339loPI    C1 5409  10.772  10.979  11.598  0.0157  0.0271 -0.1373
  339loPI    C2 5410  10.498  10.689  11.565 -0.0481  0.0773 -0.0523
  339loPI    C3 5411  10.862  10.605  11.707  0.0171 -0.0112 -0.2681
  339loPI   PO4 5412  10.779  11.110  11.409 -0.2880 -0.1375  0.2465
  339loPI   GL1 5413  10.749  11.166  10.929  0.0583 -0.1973 -0.1193
  339loPI   GL2 5414  10.427  11.261  10.725  0.0279 -0.0806  0.0921
  339loPI   C1A 5415  10.801  11.184  10.455 -0.1654 -0.3449 -0.0504
  339loPI   C2A 5416  10.854  11.284  10.055  0.0141 -0.0943  0.0797
  339loPI   C3A 5417  10.870  11.380   9.659 -0.0526  0.0460 -0.1024
  339loPI   C4A 5418  10.924  11.366   9.172  0.0227  0.1844 -0.0756
  339loPI   C5A 5419  11.073  11.623   8.752  0.1109  0.0566 -0.0763
  339loPI   C6A 5420  11.416  11.869   8.577  0.0623 -0.0747  0.1559
  339loPI   C1B 5421  10.427  11.473  10.320  0.2636 -0.1712  0.2728
  339loPI   C2B 5422  10.394  11.480   9.871 -0.0248 -0.0498  0.1339
  339loPI   C3B 5423  10.425  11.535   9.458 -0.0796  0.0242 -0.1768
  339loPI   C4B 5424  10.413  11.559   8.977  0.2461  0.0432 -0.1575
  340loPI    C1 5425   3.550  10.497  11.322  0.4326 -0.2812 -0.1181
  340loPI    C2 5426   3.360  10.337  11.635  0.0800 -0.2178 -0.2944
  340loPI    C3 5427   3.747  10.436  11.665  0.0290 -0.1287  0.1474
  340loPI   PO4 5428   3.462  10.297  11.067  0.1240  0.1624  0.4232
  340loPI   GL1 5429   3.251  10.388  10.548 -0.0722 -0.0168 -0.3231
  340loPI   GL2 5430   3.393  10.168  10.476 -0.3139 -0.1076 -0.0660
  340loPI   C1A 5431   3.200  10.287  10.031 -0.1408  0.0792  0.0785
  340loPI   C2A 5432   3.201  10.228   9.611 -0.1176 -0.1696  0.0859
  340loPI   C3A 5433   3.275  10.227   9.164 -0.3503 -0.0920  0.1098
  340loPI   C4A 5434   3.429  10.188   8.724 -0.1253  0.1643 -0.1161
  340loPI   C5A 5435   3.574   9.842   8.520  0.1527 -0.0788  0.0639
  340loPI   C6A 5436   3.913   9.875   8.253 -0.0787  0.0630 -0.0997
  340loPI   C1B 5437   3.661  10.086  10.104 -0.0303 -0.2079 -0.1867
  340loPI   C2B 5438   3.622   9.907   9.772  0.2104 -0.0828 -0.0448
  340loPI   C3B 5439   3.589   9.857   9.321 -0.1311 -0.0900  0.0258
  340loPI   C4B 5440   3.712   9.871   8.987 -0.2407 -0.3034 -0.1078
  341loPI    C1 5441   3.053   4.933  10.893  0.0337  0.0490 -0.1075
  341loPI    C2 5442   2.853   4.946  11.240 -0.1465 -0.1132 -0.2032
  341loPI    C3 5443   3.231   4.817  11.232 -0.1331 -0.0842 -0.0639
  341loPI   PO4 5444   3.024   4.839  10.685 -0.1225  0.2958  0.0396
  341loPI   GL1 5445   2.926   4.725  10.301 -0.1673  0.2642 -0.2870
  341loPI   GL2 5446   3.323   4.885  10.257 -0.1261 -0.0407  0.0522
  341loPI   C1A 5447   2.908   4.746   9.901 -0.5762 -0.2721  0.2181
  341loPI   C2A 5448   3.029   4.703   9.513  0.0628  0.3488  0.0033
  341loPI   C3A 5449   3.026   4.789   9.153 -0.2836  0.0203 -0.1464
  341loPI   C4A 5450   2.998   4.845   8.699  0.1008 -0.1140  0.3676
  341loPI   C5A 5451   2.981   4.957   8.233 -0.0369  0.3126 -0.1827
  341loPI   C6A 5452   3.313   5.232   7.990  0.1997 -0.2707  0.2406
  341loPI   C1B 5453   3.410   4.787   9.835  0.1552  0.0264  0.0544
  341loPI   C2B 5454   3.479   4.926   9.366 -0.2251  0.2017  0.1429
  341loPI   C3B 5455   3.513   5.027   8.875 -0.0848  0.0928  0.0259
  341loPI   C4B 5456   3.451   5.100   8.462 -0.0963  0.1942 -0.1432
  342loPI    C1 5457  11.561  11.644  11.369  0.0444 -0.1694 -0.0861
  342loPI    C2 5458  11.340  11.907  11.573  0.2577 -0.1739  0.1563
  342loPI    C3 5459  11.704  12.009  11.444  0.1327 -0.1778 -0.2112
  342loPI   PO4 5460  11.437  11.517  11.257 -0.1239 -0.0598  0.1958
  342loPI   GL1 5461  11.191  11.465  10.977 -0.0832 -0.3399 -0.1031
  342loPI   GL2 5462  10.849  11.628  10.864  0.1154 -0.0093 -0.2708
  342loPI   C1A 5463  11.250  11.206  10.647 -0.0795 -0.1207 -0.3044
  342loPI   C2A 5464  11.299  11.132  10.285  0.0651  0.0872 -0.1655
  342loPI   C3A 5465  11.384  11.274   9.841  0.1691 -0.2215  0.0188
  342loPI   C4A 5466  11.447  11.288   9.451  0.0759 -0.0087  0.1977
  342loPI   C5A 5467  11.374  11.347   9.033  0.0394  0.3590 -0.5498
  342loPI   C6A 5468  11.491  11.365   8.589  0.1882 -0.2774 -0.0856
  342loPI   C1B 5469  11.052  11.730  10.567 -0.0462 -0.1530  0.2806
  342loPI   C2B 5470  11.263  11.725  10.202 -0.0470  0.0375  0.1553
  342loPI   C3B 5471  11.359  11.763   9.754 -0.2756 -0.2667 -0.1730
  342loPI   C4B 5472  11.252  11.768   9.297 -0.2224  0.4499 -0.0947
  343loPI    C1 5473  17.402   5.031  10.771 -0.0240  0.0872 -0.0070
  343loPI    C2 5474  17.309   5.155  11.140 -0.0014 -0.0654  0.0509
  343loPI    C3 5475  17.506   4.810  11.088  0.2076  0.0728 -0.0909
  343loPI   PO4 5476  17.193   5.026  10.633 -0.0777  0.5315  0.0316
  343loPI   GL1 5477  17.184   5.042  10.189  0.2082 -0.1426  0.4444
  343loPI   GL2 5478  16.904   5.211  10.311 -0.1335  0.0510 -0.2062
  343loPI   C1A 5479  17.312   5.044   9.797  0.1121  0.2664 -0.0555
  343loPI   C2A 5480  17.114   5.004   9.453 -0.0779  0.5582  0.2383
  343loPI   C3A 5481  16.992   5.017   9.126 -0.0227  0.0339 -0.4805
  343loPI   C4A 5482  16.819   4.763   8.743 -0.1158  0.2294  0.0108
  343loPI   C5A 5483  16.606   4.504   8.309 -0.0819  0.1500 -0.0464
  343loPI   C6A 5484  16.587   4.593   7.915 -0.2507  0.0977  0.0832
  343loPI   C1B 5485  16.828   5.212   9.857  0.0280  0.0863  0.2238
  343loPI   C2B 5486  16.697   5.298   9.391  0.2170 -0.0757 -0.1392
  343loPI   C3B 5487  16.571   5.228   9.013 -0.0899 -0.0123 -0.2040
  343loPI   C4B 5488  16.600   5.167   8.527 -0.3956 -0.2178  0.0861
  344loPI    C1 5489   2.539   8.834  10.647 -0.0263  0.0395 -0.0200
  344loPI    C2 5490   2.401   8.567  10.911 -0.0749 -0.1079 -0.1924
  344loPI    C3 5491   2.225   8.605  10.553 -0.0049  0.0850 -0.2077
  344loPI   PO4 5492   2.722   8.780  10.556  0.1876  0.0366 -0.2977
  344loPI   GL1 5493   2.897   8.769  10.205 -0.3084  0.1689  0.1692
  344loPI   GL2 5494   2.590   9.014  10.159 -0.1997  0.0651 -0.4460
  344loPI   C1A 5495   3.032   8.667   9.864  0.1422 -0.1209 -0.1618
  344loPI   C2A 5496   3.021   8.636   9.455  0.3421 -0.3083 -0.0613
  344loPI   C3A 5497   3.006   8.601   9.021 -0.2764 -0.0696  0.1332
  344loPI   C4A 5498   2.958   8.675   8.621  0.0587  0.1736  0.0839
  344loPI   C5A 5499   2.928   8.584   8.206 -0.5252  0.1949  0.1180
  344loPI   C6A 5500   2.686   8.474   7.862 -0.0665 -0.0741  0.1151
  344loPI   C1B 5501   2.597   9.003   9.749  0.0959 -0.0367 -0.0297
  344loPI   C2B 5502   2.614   8.969   9.245 -0.0152 -0.1317  0.0368
  344loPI   C3B 5503   2.575   9.020   8.774  0.2583 -0.0448  0.0223
  344loPI   C4B 5504   2.539   8.845   8.324  0.0694  0.1116 -0.2192
  345loPI    C1 5505   1.072   4.751  10.712 -0.0705  0.1546 -0.0254
  345loPI    C2 5506   0.982   4.555  11.049 -0.1243  0.1809 -0.0245
  345loPI    C3 5507   1.132   4.926  11.067  0.0312  0.1185 -0.0243
  345loPI   PO4 5508   0.863   4.736  10.513  0.2807  0.2736 -0.1353
  345loPI   GL1 5509   1.155   4.651  10.140  0.0211  0.2182  0.0401
  345loPI   GL2 5510   1.400   4.721   9.974 -0.0284 -0.3531  0.0759
  345loPI   C1A 5511   0.981   4.526   9.787  0.1750 -0.0553  0.2280
  345loPI   C2A 5512   0.909   4.581   9.394 -0.2464 -0.0297  0.2360
  345loPI   C3A 5513   0.821   4.683   8.990 -0.1893 -0.2240 -0.0141
  345loPI   C4A 5514   0.757   4.811   8.623  0.4083  0.3350  0.1915
  345loPI   C5A 5515   0.692   4.900   8.245 -0.2105 -0.0058  0.2369
  345loPI   C6A 5516   0.369   4.919   7.897 -0.0048 -0.4212  0.0225
  345loPI   C1B 5517   1.564   4.697   9.577 -0.1247  0.3701  0.0078
  345loPI   C2B 5518   1.563   4.663   9.126  0.3106  0.2648 -0.0428
  345loPI   C3B 5519   1.701   4.610   8.687 -0.0179  0.2010  0.1855
  345loPI   C4B 5520   1.874   4.468   8.320  0.1280 -0.2714 -0.0529
  346loPI    C1 5521  17.080  11.649  11.521  0.0849  0.1881  0.0927
  346loPI    C2 5522  17.466  11.757  11.523  0.1172  0.0731  0.2815
  346loPI    C3 5523  17.253  11.769  11.861  0.0736 -0.2820  0.2706
  346loPI   PO4 5524  16.997  11.776  11.292  0.1025 -0.3300  0.1642
  346loPI   GL1 5525  16.763  11.787  10.920 -0.0940  0.1295  0.0468
  346loPI   GL2 5526  16.707  11.414  10.920 -0.0803  0.1623 -0.0262
  346loPI   C1A 5527  16.860  12.160  10.712  0.3146 -0.0659  0.2153
  346loPI   C2A 5528  17.023  12.453  10.515 -0.0759  0.0203  0.2363
  346loPI   C3A 5529  17.138  12.593  10.094  0.0654 -0.0746  0.0438
  346loPI   C4A 5530  17.172  12.568   9.683  0.0956  0.2478  0.0437
  346loPI   C5A 5531  17.161  12.646   9.220  0.0281 -0.4127  0.1873
  346loPI   C6A 5532  17.214  12.630   8.813 -0.0726 -0.0129 -0.5180
  346loPI   C1B 5533  16.570  11.353  10.487  0.2531  0.1299  0.0738
  346loPI   C2B 5534  16.578  11.493  10.142 -0.0692 -0.0785  0.0290
  346loPI   C3B 5535  16.438  11.426   9.755 -0.0822 -0.1394  0.1583
  346loPI   C4B 5536  16.467  11.364   9.385  0.3108  0.0961  0.0336
  347loPI    C1 5537   3.430   7.133  10.741 -0.0163  0.1080 -0.0230
  347loPI    C2 5538   3.790   7.080  10.906 -0.0931 -0.0615  0.0936
  347loPI    C3 5539   3.489   7.228  11.125 -0.1362 -0.0723  0.0417
  347loPI   PO4 5540   3.525   7.332  10.543 -0.3075  0.1278 -0.2365
  347loPI   GL1 5541   3.573   7.319  10.202 -0.0022  0.2837  0.2357
  347loPI   GL2 5542   3.229   7.261  10.021  0.0946  0.3873  0.0645
  347loPI   C1A 5543   3.728   7.369   9.808 -0.1483  0.3542 -0.0569
  347loPI   C2A 5544   3.772   7.423   9.387  0.0211  0.1748 -0.0244
  347loPI   C3A 5545   3.640   7.504   8.998  0.0132  0.0537 -0.1384
  347loPI   C4A 5546   3.679   7.457   8.560 -0.2096  0.0694 -0.2011
  347loPI   C5A 5547   3.551   7.262   8.237 -0.1370  0.0812  0.0304
  347loPI   C6A 5548   3.497   6.983   7.956  0.0975 -0.0361  0.0979
  347loPI   C1B 5549   3.276   7.298   9.591  0.4434 -0.0860  0.3208
  347loPI   C2B 5550   3.233   7.240   9.183 -0.1807 -0.0485 -0.0132
  347loPI   C3B 5551   3.179   7.281   8.730  0.2696  0.1791 -0.3510
  347loPI   C4B 5552   3.121   7.030   8.363 -0.0002 -0.1357 -0.1302
  348loPI    C1 5553  16.568  17.407  11.124 -0.2131  0.1815 -0.1899
  348loPI    C2 5554  16.772  17.749  11.087  0.3057 -0.0841  0.1037
  348loPI    C3 5555  16.695  17.600  11.451 -0.4541  0.0228  0.0018
  348loPI   PO4 5556  16.546  17.400  10.852 -0.0771  0.4000  0.2551
  348loPI   GL1 5557  16.521  17.474  10.470  0.1591 -0.3736  0.0338
  348loPI   GL2 5558  16.575  17.691  10.413 -0.2224 -0.1306  0.0214
  348loPI   C1A 5559  16.682  17.176  10.216  0.3082 -0.0091 -0.0436
  348loPI   C2A 5560  16.688  17.072   9.764 -0.0555 -0.2397  0.3966
  348loPI   C3A 5561  16.685  16.992   9.316  0.0603  0.4231  0.1672
  348loPI   C4A 5562  16.691  16.924   8.825 -0.0284  0.0937  0.0976
  348loPI   C5A 5563  16.859  16.742   8.472 -0.4546  0.2342 -0.2606
  348loPI   C6A 5564  16.941  16.865   7.997 -0.2263 -0.1064  0.0131
  348loPI   C1B 5565  16.572  17.615   9.982  0.0969  0.1421  0.1716
  348loPI   C2B 5566  16.595  17.519   9.436  0.2192 -0.1492  0.0453
  348loPI   C3B 5567  16.660  17.449   8.925  0.2080 -0.1591 -0.1279
  348loPI   C4B 5568  16.790  17.261   8.443 -0.1523 -0.0447  0.3119
  349loPI    C1 5569  15.183  16.505  11.353 -0.1322  0.0410 -0.1685
  349loPI    C2 5570  15.220  16.138  11.506  0.3165  0.1728  0.0551
  349loPI    C3 5571  15.013  16.417  11.704  0.1295  0.0936 -0.0263
  349loPI   PO4 5572  15.053  16.392  11.142 -0.0831  0.0857  0.3190
  349loPI   GL1 5573  15.029  16.208  10.755  0.0426 -0.4036 -0.0536
  349loPI   GL2 5574  15.263  16.171  10.620  0.3313  0.0557  0.0904
  349loPI   C1A 5575  14.956  16.237  10.227 -0.2901  0.0519 -0.0849
  349loPI   C2A 5576  14.975  16.255   9.804  0.0467  0.0632 -0.1831
  349loPI   C3A 5577  15.065  16.159   9.416  0.4281 -0.1178 -0.1593
  349loPI   C4A 5578  15.034  16.100   9.008  0.0023  0.2384  0.2118
  349loPI   C5A 5579  15.135  16.087   8.544 -0.0871  0.1848 -0.1311
  349loPI   C6A 5580  15.345  16.194   8.178  0.2676 -0.0616 -0.0334
  349loPI   C1B 5581  15.403  16.092  10.206 -0.0581  0.1032  0.1177
  349loPI   C2B 5582  15.526  15.973   9.741  0.1159  0.1364 -0.0770
  349loPI   C3B 5583  15.487  16.005   9.285  0.0705  0.1381  0.3189
  349loPI   C4B 5584  15.535  15.964   8.864  0.1649 -0.1694 -0.0784
  350loPI    C1 5585  14.650   1.639  10.832  0.2067 -0.1931  0.0103
  350loPI    C2 5586  14.381   1.479  11.081 -0.0201 -0.2648 -0.2762
  350loPI    C3 5587  14.377   1.872  11.008  0.1057 -0.2293 -0.0975
  350loPI   PO4 5588  14.644   1.454  10.591 -0.1705 -0.1547 -0.0954
  350loPI   GL1 5589  14.432   1.505  10.246 -0.0945  0.0832 -0.4812
  350loPI   GL2 5590  14.078   1.441  10.169  0.1466  0.5676 -0.1018
  350loPI   C1A 5591  14.493   1.329   9.885 -0.0175  0.1453 -0.0941
  350loPI   C2A 5592  14.512   1.508   9.456 -0.0400 -0.0783 -0.0569
  350loPI   C3A 5593  14.577   1.498   9.059 -0.0656 -0.0059 -0.0595
  350loPI   C4A 5594  14.681   1.537   8.623 -0.0493 -0.1095 -0.2091
  350loPI   C5A 5595  14.581   1.491   8.203  0.2134 -0.0395  0.1188
  350loPI   C6A 5596  14.440   1.740   7.845 -0.0506  0.0681  0.1516
  350loPI   C1B 5597  14.046   1.599   9.696  0.0718  0.0344  0.1423
  350loPI   C2B 5598  14.016   1.505   9.296 -0.0562  0.1130  0.2749
  350loPI   C3B 5599  14.211   1.176   9.109  0.3738  0.1859 -0.2200
  350loPI   C4B 5600  14.302   0.626   9.044 -0.0901 -0.1077 -0.0272
  351loPI    C1 5601   8.300   3.469  11.178  0.0501 -0.1660  0.5128
  351loPI    C2 5602   8.398   3.821  11.340  0.0257  0.0824  0.0078
  351loPI    C3 5603   8.098   3.606  11.495  0.0234  0.2931  0.3045
  351loPI   PO4 5604   8.301   3.576  10.881  0.1654 -0.1045  0.0506
  351loPI   GL1 5605   8.162   3.277  10.523 -0.2366 -0.1954  0.0689
  351loPI   GL2 5606   8.485   3.395  10.407 -0.0756  0.0736 -0.0990
  351loPI   C1A 5607   8.232   2.864  10.263  0.2920  0.1595  0.0001
  351loPI   C2A 5608   8.036   2.929   9.834  0.0951 -0.3189  0.0473
  351loPI   C3A 5609   8.154   2.964   9.453  0.1766  0.0370 -0.0005
  351loPI   C4A 5610   8.246   3.090   9.091  0.3188  0.0214  0.2353
  351loPI   C5A 5611   8.277   3.121   8.576 -0.1210  0.3387  0.0532
  351loPI   C6A 5612   8.400   3.385   8.336 -0.1177  0.1553 -0.1601
  351loPI   C1B 5613   8.234   3.500  10.019  0.0590 -0.1148 -0.4363
  351loPI   C2B 5614   8.232   3.544   9.610  0.0911 -0.1490  0.0140
  351loPI   C3B 5615   8.285   3.559   9.216 -0.0166 -0.0477 -0.1420
  351loPI   C4B 5616   8.276   3.532   8.794 -0.0009 -0.6138 -0.1636
  352loPI    C1 5617   9.092   6.995  11.525  0.0564 -0.0666  0.1015
  352loPI    C2 5618   9.417   7.222  11.469 -0.1610  0.2532  0.1124
  352loPI    C3 5619   9.265   7.177  11.837 -0.1058  0.0693  0.1136
  352loPI   PO4 5620   8.869   6.991  11.400 -0.2623 -0.2111 -0.0441
  352loPI   GL1 5621   8.767   7.064  10.965 -0.0545 -0.0452  0.1768
  352loPI   GL2 5622   8.769   6.821  10.768 -0.2668  0.0550  0.2223
  352loPI   C1A 5623   8.827   7.333  10.627  0.0869 -0.1728  0.0074
  352loPI   C2A 5624   8.812   7.544  10.236  0.2087  0.1557  0.3219
  352loPI   C3A 5625   8.852   7.682   9.853  0.3108 -0.2239  0.1013
  352loPI   C4A 5626   8.821   7.963   9.440 -0.2011  0.2860  0.1761
  352loPI   C5A 5627   8.816   8.043   8.936 -0.0458 -0.0536  0.1911
  352loPI   C6A 5628   9.026   8.076   8.513  0.1622 -0.0966 -0.1504
  352loPI   C1B 5629   8.740   6.584  10.407 -0.0632  0.1214  0.0169
  352loPI   C2B 5630   8.740   6.645   9.919 -0.0087 -0.0686  0.0744
  352loPI   C3B 5631   8.620   6.766   9.527 -0.2621  0.1150  0.0377
  352loPI   C4B 5632   8.700   6.937   9.136  0.1491  0.0575  0.1679
  353loPI    C1 5633  16.056  10.711  11.361  0.0674  0.0799  0.1518
  353loPI    C2 5634  15.898  10.608  11.714 -0.0592  0.1231  0.1084
  353loPI    C3 5635  16.146  10.357  11.525 -0.2369 -0.0335  0.0808
  353loPI   PO4 5636  15.789  10.768  11.209  0.0885  0.1245 -0.4775
  353loPI   GL1 5637  15.566  10.663  10.796  0.2186 -0.0211  0.0913
  353loPI   GL2 5638  15.627  10.966  10.720  0.1259  0.1515 -0.3097
  353loPI   C1A 5639  15.618  10.697  10.306  0.0504 -0.1250 -0.2118
  353loPI   C2A 5640  15.619  10.854   9.871  0.0953  0.1344  0.0405
  353loPI   C3A 5641  15.675  10.765   9.403  0.0182 -0.1461  0.2465
  353loPI   C4A 5642  15.946  10.550   8.980  0.0520  0.1917  0.1010
  353loPI   C5A 5643  16.284  10.696   8.856 -0.2466 -0.2264  0.2737
  353loPI   C6A 5644  16.332  11.140   8.844 -0.2070  0.3322 -0.2667
  353loPI   C1B 5645  15.518  11.222  10.473 -0.3455  0.4091 -0.3872
  353loPI   C2B 5646  15.464  11.339  10.105 -0.2521 -0.0492 -0.4289
  353loPI   C3B 5647  15.519  11.313   9.626 -0.1280 -0.1090 -0.0688
  353loPI   C4B 5648  15.566  11.344   9.197  0.2786  0.0662 -0.0075
  354loPI    C1 5649   2.591   8.006  10.693 -0.0927 -0.1497  0.1243
  354loPI    C2 5650   2.761   7.996  11.055  0.2586  0.1360 -0.0270
  354loPI    C3 5651   2.739   7.663  10.835 -0.2472 -0.1133  0.3799
  354loPI   PO4 5652   2.668   8.240  10.633 -0.0230  0.2131  0.1085
  354loPI   GL1 5653   2.626   8.409  10.233  0.0358 -0.2334 -0.0881
  354loPI   GL2 5654   2.718   8.098  10.161 -0.1166  0.1704  0.0643
  354loPI   C1A 5655   2.556   8.415   9.793  0.0621  0.0804 -0.1838
  354loPI   C2A 5656   2.502   8.489   9.321  0.0635  0.1478  0.2153
  354loPI   C3A 5657   2.566   8.515   8.886  0.2053  0.0637  0.2681
  354loPI   C4A 5658   2.502   8.356   8.480 -0.0265  0.1032 -0.0590
  354loPI   C5A 5659   2.225   8.467   8.074  0.3211  0.2549 -0.0295
  354loPI   C6A 5660   2.318   8.684   7.647  0.0888  0.2668 -0.0708
  354loPI   C1B 5661   2.866   8.055   9.671  0.0642 -0.0738 -0.3297
  354loPI   C2B 5662   2.976   8.075   9.316  0.2695  0.0391 -0.0948
  354loPI   C3B 5663   2.961   8.104   8.913  0.1490 -0.2595  0.0323
  354loPI   C4B 5664   2.985   8.128   8.551 -0.1461  0.0293  0.0458
  355loPI    C1 5665  16.600   3.961  10.880  0.2261 -0.0019 -0.1936
  355loPI    C2 5666  16.399   4.111  11.191  0.1025  0.0797 -0.3114
  355loPI    C3 5667  16.685   3.838  11.251  0.0039  0.0130 -0.1362
  355loPI   PO4 5668  16.440   3.864  10.586  0.0796 -0.2109  0.1349
  355loPI   GL1 5669  16.240   3.764  10.168 -0.1787  0.0865  0.2614
  355loPI   GL2 5670  16.627   3.696  10.111  0.1094 -0.1359  0.0353
  355loPI   C1A 5671  16.240   3.826   9.658  0.0881  0.0898  0.2472
  355loPI   C2A 5672  16.350   3.823   9.240 -0.3059  0.2121  0.0498
  355loPI   C3A 5673  16.144   3.914   8.852 -0.0709 -0.1044  0.0051
  355loPI   C4A 5674  15.836   3.704   8.715  0.3240 -0.1512  0.2113
  355loPI   C5A 5675  15.407   3.510   8.700 -0.2048 -0.1266  0.1881
  355loPI   C6A 5676  15.394   3.303   8.396 -0.0816 -0.0905 -0.2368
  355loPI   C1B 5677  16.751   3.598   9.782 -0.0255  0.0744 -0.2021
  355loPI   C2B 5678  16.758   3.471   9.365  0.4471  0.1921  0.0805
  355loPI   C3B 5679  16.557   3.435   8.967 -0.2053  0.0084  0.1363
  355loPI   C4B 5680  16.367   3.527   8.582 -0.1105  0.0857  0.0034
  356loPI    C1 5681   6.884   1.879  11.052 -0.0206 -0.0855  0.0454
  356loPI    C2 5682   7.188   2.128  10.974 -0.0225 -0.0760  0.0679
  356loPI    C3 5683   7.130   1.994  11.346 -0.0156 -0.1180  0.0540
  356loPI   PO4 5684   6.861   1.780  10.793 -0.0448  0.0191 -0.1496
  356loPI   GL1 5685   7.132   1.950  10.478 -0.1173  0.3990  0.1492
  356loPI   GL2 5686   7.361   2.213  10.408 -0.2349 -0.0744 -0.0467
  356loPI   C1A 5687   7.029   1.975  10.046 -0.1006  0.2711 -0.1136
  356loPI   C2A 5688   7.098   2.035   9.683  0.1883 -0.0358 -0.1871
  356loPI   C3A 5689   7.176   2.108   9.245 -0.1366  0.0084  0.2983
  356loPI   C4A 5690   7.159   2.156   8.826  0.1272 -0.0832 -0.3478
  356loPI   C5A 5691   7.123   2.086   8.310  0.0435  0.2331  0.1318
  356loPI   C6A 5692   7.264   1.913   7.958  0.2681 -0.1505 -0.2511
  356loPI   C1B 5693   7.623   2.185  10.000 -0.0266  0.0225 -0.1427
  356loPI   C2B 5694   7.612   2.256   9.524  0.1384  0.1723 -0.1743
  356loPI   C3B 5695   7.694   2.322   9.076 -0.5561  0.1069  0.1328
  356loPI   C4B 5696   7.709   2.443   8.595  0.1186  0.0206 -0.0027
  357loPI    C1 5697   2.447  11.653  11.064 -0.1388 -0.1421 -0.1697
  357loPI    C2 5698   2.088  11.749  11.213 -0.0566 -0.0657 -0.0191
  357loPI    C3 5699   2.385  11.642  11.459  0.0431 -0.0648 -0.1383
  357loPI   PO4 5700   2.476  11.802  10.908  0.1625  0.2440  0.4348
  357loPI   GL1 5701   2.562  12.204  10.640 -0.1719  0.0060 -0.1384
  357loPI   GL2 5702   2.257  12.100  10.577  0.1942  0.3387  0.1618
  357loPI   C1A 5703   2.619  12.416  10.222 -0.0294  0.1846 -0.0707
  357loPI   C2A 5704   2.625  12.403   9.901 -0.4708  0.0918  0.0945
  357loPI   C3A 5705   2.614  12.468   9.464  0.0987 -0.1843 -0.0456
  357loPI   C4A 5706   2.624  12.484   9.016  0.0871 -0.0583  0.0032
  357loPI   C5A 5707   2.448  12.377   8.561  0.0422 -0.3550 -0.1389
  357loPI   C6A 5708   2.205  12.182   8.318 -0.0807  0.0024 -0.0698
  357loPI   C1B 5709   2.224  12.102  10.184 -0.0280  0.0174  0.1188
  357loPI   C2B 5710   2.233  12.118   9.719  0.0373 -0.3081 -0.0448
  357loPI   C3B 5711   2.245  12.126   9.178  0.2009 -0.1498 -0.3898
  357loPI   C4B 5712   2.067  12.056   8.743  0.0249  0.2054  0.1197
  358loPI    C1 5713   1.279  14.804  10.822  0.1311 -0.0675  0.0924
  358loPI    C2 5714   1.234  14.849  11.217 -0.0961 -0.1386  0.0759
  358loPI    C3 5715   0.948  14.670  11.002 -0.0296  0.0108 -0.1404
  358loPI   PO4 5716   1.210  15.065  10.662  0.3127 -0.3214 -0.0581
  358loPI   GL1 5717   1.042  15.212  10.301 -0.0263  0.0851  0.0933
  358loPI   GL2 5718   1.171  15.514  10.343  0.0087  0.2464  0.2050
  358loPI   C1A 5719   1.235  14.850  10.063  0.1000 -0.0735 -0.2418
  358loPI   C2A 5720   1.205  14.716   9.643 -0.1356 -0.0744  0.3811
  358loPI   C3A 5721   1.095  14.759   9.180 -0.0167 -0.0917  0.2190
  358loPI   C4A 5722   1.109  14.765   8.741 -0.0038  0.0755  0.0535
  358loPI   C5A 5723   1.086  14.426   8.422 -0.0944 -0.1755 -0.1809
  358loPI   C6A 5724   1.279  14.035   8.344  0.4057  0.1059  0.1815
  358loPI   C1B 5725   1.356  15.389   9.968  0.0796 -0.1153 -0.1073
  358loPI   C2B 5726   1.147  15.353   9.510  0.2240  0.2414  0.2185
  358loPI   C3B 5727   1.017  15.348   9.070  0.2236  0.1977  0.0692
  358loPI   C4B 5728   0.950  15.277   8.613 -0.1023  0.2339 -0.0293
  359loPI    C1 5729  11.343   7.258  11.122 -0.0896  0.2681  0.3364
  359loPI    C2 5730  10.962   7.367  11.061 -0.1097  0.1058  0.1645
  359loPI    C3 5731  11.053   7.110  11.354 -0.1411  0.0903  0.1608
  359loPI   PO4 5732  11.445   7.174  10.814  0.0939 -0.0485 -0.0040
  359loPI   GL1 5733  11.471   6.947  10.437 -0.1441 -0.1350  0.1057
  359loPI   GL2 5734  11.236   7.224  10.387 -0.1301 -0.0934  0.0928
  359loPI   C1A 5735  11.183   6.873  10.029  0.1929 -0.3442 -0.2250
  359loPI   C2A 5736  10.892   6.731   9.758  0.1466 -0.0482  0.0281
  359loPI   C3A 5737  10.576   6.948   9.507  0.0286  0.1125 -0.0851
  359loPI   C4A 5738  10.631   7.382   9.237 -0.5782  0.0481 -0.1724
  359loPI   C5A 5739  10.503   7.442   8.801 -0.0893  0.2085  0.0605
  359loPI   C6A 5740  10.463   7.393   8.315  0.0589 -0.2542 -0.3048
  359loPI   C1B 5741  11.142   7.461  10.041  0.0515 -0.2501  0.2097
  359loPI   C2B 5742  11.110   7.763   9.812 -0.1594 -0.1260 -0.0069
  359loPI   C3B 5743  11.115   8.107   9.533 -0.0276  0.0000  0.1427
  359loPI   C4B 5744  11.052   8.246   9.160 -0.1231 -0.2274 -0.0405
  360loPI    C1 5745   6.156   3.778  11.104  0.0668  0.1104 -0.0497
  360loPI    C2 5746   6.063   4.145  11.234  0.0963  0.1554 -0.1541
  360loPI    C3 5747   6.203   3.871  11.490  0.1488  0.2412 -0.0904
  360loPI   PO4 5748   6.308   3.820  10.927 -0.0913  0.0188 -0.2057
  360loPI   GL1 5749   6.373   3.556  10.537  0.1960 -0.2145 -0.0174
  360loPI   GL2 5750   6.380   3.179  10.525 -0.0059  0.2230 -0.4047
  360loPI   C1A 5751   6.413   3.638  10.123 -0.0140 -0.0490  0.1632
  360loPI   C2A 5752   6.549   3.737   9.703 -0.0074  0.0576  0.0781
  360loPI   C3A 5753   6.505   3.873   9.304 -0.1930 -0.2169 -0.1274
  360loPI   C4A 5754   6.529   3.880   8.856 -0.1561  0.1069 -0.1805
  360loPI   C5A 5755   6.513   3.793   8.418 -0.0758  0.1256 -0.0289
  360loPI   C6A 5756   6.392   4.017   8.025  0.1276  0.1942  0.0996
  360loPI   C1B 5757   6.209   3.093  10.200  0.0533  0.1437  0.0425
  360loPI   C2B 5758   6.423   3.199   9.787 -0.1726 -0.0144 -0.0761
  360loPI   C3B 5759   6.397   3.355   9.284  0.0388 -0.1598 -0.1945
  360loPI   C4B 5760   6.453   3.353   8.815 -0.2125 -0.0432  0.0026
  361loPI    C1 5761  15.528   0.916  10.648  0.1623  0.2557  0.0063
  361loPI    C2 5762  15.748   0.866  10.979 -0.0079 -0.0377  0.0786
  361loPI    C3 5763  15.375   1.008  11.007  0.0199  0.0520 -0.0005
  361loPI   PO4 5764  15.616   0.605  10.529  0.1068  0.0364  0.1487
  361loPI   GL1 5765  15.419   0.257  10.217 -0.0939  0.0690 -0.2647
  361loPI   GL2 5766  15.755   0.344  10.114  0.0796  0.0556 -0.1606
  361loPI   C1A 5767  15.540   0.153   9.734 -0.0201 -0.4329  0.3498
  361loPI   C2A 5768  15.548   0.080   9.304 -0.0453  0.2298  0.1843
  361loPI   C3A 5769  15.550   0.141   8.815  0.0729 -0.0336 -0.1211
  361loPI   C4A 5770  15.448   0.237   8.450 -0.0521  0.3723  0.1758
  361loPI   C5A 5771  14.988   0.124   8.239 -0.0178 -0.2644  0.1090
  361loPI   C6A 5772  14.633   0.338   8.098 -0.1287 -0.1770  0.2427
  361loPI   C1B 5773  15.885   0.513   9.793  0.1279 -0.1843 -0.0354
  361loPI   C2B 5774  15.907   0.385   9.484  0.3240 -0.0759 -0.1341
  361loPI   C3B 5775  15.916   0.473   9.056 -0.4206 -0.2774 -0.1668
  361loPI   C4B 5776  15.705   0.579   8.712  0.2931  0.2967  0.2035
  362loPI    C1 5777   9.076  13.130  11.251 -0.0210 -0.2038  0.1538
  362loPI    C2 5778   8.947  12.977  11.597  0.1162  0.0643  0.3272
  362loPI    C3 5779   9.293  13.176  11.584  0.1674 -0.0401  0.0107
  362loPI   PO4 5780   9.044  12.995  11.057  0.2287  0.1062 -0.0260
  362loPI   GL1 5781   9.235  12.904  10.758 -0.1990 -0.2150  0.0493
  362loPI   GL2 5782   9.601  12.816  10.762 -0.0181 -0.0959 -0.1018
  362loPI   C1A 5783   9.164  12.880  10.240 -0.2212 -0.0074  0.1618
  362loPI   C2A 5784   9.105  12.978   9.745 -0.0901 -0.2110 -0.2677
  362loPI   C3A 5785   9.092  12.774   9.314 -0.0287  0.0728  0.3285
  362loPI   C4A 5786   9.208  12.764   9.019  0.3281 -0.2066  0.2868
  362loPI   C5A 5787   9.476  13.048   8.717 -0.2603 -0.1372 -0.2344
  362loPI   C6A 5788   9.659  13.374   8.533 -0.1983  0.3379 -0.1836
  362loPI   C1B 5789   9.623  12.767  10.341 -0.2908 -0.2979 -0.0817
  362loPI   C2B 5790   9.556  12.802   9.891  0.2813  0.1827 -0.0188
  362loPI   C3B 5791   9.621  12.708   9.443  0.1565 -0.0486 -0.0065
  362loPI   C4B 5792   9.688  12.685   9.036  0.1966  0.0513  0.0775
  363loPI    C1 5793   5.756   1.096  10.938  0.1305 -0.1011  0.1630
  363loPI    C2 5794   5.771   0.765  11.163  0.2106 -0.1046  0.1530
  363loPI    C3 5795   5.709   1.121  11.334  0.0315 -0.1352  0.1538
  363loPI   PO4 5796   5.947   1.140  10.777  0.2545 -0.3035  0.1218
  363loPI   GL1 5797   6.006   1.353  10.361 -0.1947 -0.0158  0.0111
  363loPI   GL2 5798   6.311   1.285  10.257  0.2711  0.0039 -0.0190
  363loPI   C1A 5799   5.771   1.391   9.993  0.1140 -0.0309  0.4209
  363loPI   C2A 5800   5.687   1.543   9.653 -0.0791 -0.2024  0.1407
  363loPI   C3A 5801   5.786   1.534   9.231  0.2529 -0.4286 -0.1239
  363loPI   C4A 5802   5.743   1.542   8.831  0.3919 -0.0870 -0.1068
  363loPI   C5A 5803   5.808   1.485   8.378  0.1500  0.2826 -0.0010
  363loPI   C6A 5804   5.716   1.291   8.049  0.1778  0.0580  0.1205
  363loPI   C1B 5805   6.179   1.160   9.849  0.3162 -0.0372 -0.1071
  363loPI   C2B 5806   6.235   1.228   9.346  0.0793  0.2090  0.1670
  363loPI   C3B 5807   6.226   1.183   8.923 -0.0164 -0.0185 -0.0107
  363loPI   C4B 5808   6.265   1.190   8.551 -0.0036 -0.2358 -0.1505
  364loPI    C1 5809   1.370  17.015  10.889 -0.1194  0.0945  0.0773
  364loPI    C2 5810   1.571  17.136  11.213 -0.1650  0.0844  0.1095
  364loPI    C3 5811   1.435  17.405  10.951 -0.0303  0.0860  0.0400
  364loPI   PO4 5812   1.534  16.788  10.819  0.1808 -0.1628 -0.0256
  364loPI   GL1 5813   1.549  16.566  10.455  0.0650  0.0493 -0.1089
  364loPI   GL2 5814   1.790  16.860  10.390 -0.2883  0.0118 -0.4235
  364loPI   C1A 5815   1.501  16.419  10.037 -0.1150  0.1564 -0.0892
  364loPI   C2A 5816   1.354  16.321   9.677  0.1661  0.0715 -0.0581
  364loPI   C3A 5817   1.184  16.179   9.272  0.2195  0.5259 -0.2132
  364loPI   C4A 5818   1.007  16.001   8.925  0.0814 -0.1269 -0.1114
  364loPI   C5A 5819   0.795  15.729   8.811 -0.0324  0.0681 -0.1614
  364loPI   C6A 5820   0.538  15.446   9.013 -0.1473  0.0347  0.2164
  364loPI   C1B 5821   1.732  17.153  10.030  0.6695  0.1422  0.0367
  364loPI   C2B 5822   1.869  17.263   9.688 -0.1629  0.0711  0.1010
  364loPI   C3B 5823   1.510  17.445   9.565  0.2407  0.2938 -0.1079
  364loPI   C4B 5824   1.392  17.859   9.364 -0.1745  0.1739 -0.1827
  365loPI    C1 5825   0.815  13.232  11.254  0.0408  0.0093  0.0851
  365loPI    C2 5826   0.564  13.429  11.495  0.0050  0.0467  0.0176
  365loPI    C3 5827   0.938  13.355  11.614 -0.1010 -0.1996  0.2068
  365loPI   PO4 5828   0.814  13.407  11.061 -0.0643 -0.1426 -0.1414
  365loPI   GL1 5829   0.713  13.459  10.698 -0.0758  0.1574 -0.1578
  365loPI   GL2 5830   1.086  13.656  10.706  0.1239  0.0616  0.0455
  365loPI   C1A 5831   0.503  13.524  10.373  0.0496  0.2483 -0.4705
  365loPI   C2A 5832   0.495  13.672  10.017 -0.2104 -0.2046  0.0965
  365loPI   C3A 5833   0.579  13.684   9.614 -0.2683 -0.3458  0.2372
  365loPI   C4A 5834   0.507  13.735   9.133  0.2266 -0.0665 -0.0314
  365loPI   C5A 5835   0.423  13.513   8.824  0.1680  0.1514 -0.0714
  365loPI   C6A 5836   0.050  13.346   8.733 -0.0234  0.2421  0.1130
  365loPI   C1B 5837   1.030  13.456  10.286 -0.1536  0.0463 -0.2245
  365loPI   C2B 5838   1.027  13.471   9.860  0.3323  0.1349 -0.0041
  365loPI   C3B 5839   1.106  13.483   9.407  0.4169 -0.0619  0.1379
  365loPI   C4B 5840   0.924  13.489   9.021 -0.0076  0.2554 -0.1013
  366loPI    C1 5841  16.050  17.456  10.960  0.2332  0.0241  0.0650
  366loPI    C2 5842  16.203  17.100  11.058 -0.0413 -0.0738  0.1467
  366loPI    C3 5843  15.832  17.196  11.171 -0.0984  0.0998 -0.1770
  366loPI   PO4 5844  16.052  17.463  10.640  0.0706  0.1225  0.1282
  366loPI   GL1 5845  16.083  17.194  10.388  0.1290 -0.0896 -0.0719
  366loPI   GL2 5846  16.294  17.010  10.510  0.0771  0.1589 -0.2956
  366loPI   C1A 5847  15.798  17.067  10.025  0.0218 -0.0403  0.0838
  366loPI   C2A 5848  15.769  16.865   9.716 -0.1027 -0.2402  0.2541
  366loPI   C3A 5849  15.845  16.781   9.206 -0.0238 -0.3232  0.2243
  366loPI   C4A 5850  15.888  16.918   8.861  0.2316  0.0523 -0.2883
  366loPI   C5A 5851  15.706  16.986   8.537  0.0772  0.1181  0.0975
  366loPI   C6A 5852  15.270  17.101   8.397 -0.0654  0.2648 -0.3322
  366loPI   C1B 5853  16.296  16.890  10.109 -0.2121  0.3351 -0.2034
  366loPI   C2B 5854  16.297  16.704   9.676 -0.1027 -0.1434 -0.2335
  366loPI   C3B 5855  16.336  16.655   9.250  0.4036  0.1275  0.0639
  366loPI   C4B 5856  16.376  16.550   8.862  0.1335 -0.0065  0.2674
  367loPI    C1 5857  13.481   2.538  10.680  0.2250 -0.0647 -0.1334
  367loPI    C2 5858  13.274   2.298  10.924  0.1022  0.1693 -0.0029
  367loPI    C3 5859  13.628   2.443  11.040  0.1497  0.0985 -0.0582
  367loPI   PO4 5860  13.328   2.504  10.426  0.0782 -0.1749  0.1335
  367loPI   GL1 5861  13.323   2.433  10.015 -0.1630 -0.0858  0.1175
  367loPI   GL2 5862  13.245   2.233   9.917 -0.1398  0.0149 -0.0155
  367loPI   C1A 5863  13.619   2.426   9.640  0.1596  0.1183  0.0264
  367loPI   C2A 5864  13.766   2.627   9.267  0.0989 -0.0869 -0.1388
  367loPI   C3A 5865  14.005   2.615   8.952 -0.1951  0.1039 -0.1260
  367loPI   C4A 5866  14.453   2.293   8.845  0.0933  0.1491  0.1179
  367loPI   C5A 5867  14.667   2.063   8.481  0.0417 -0.2946 -0.1486
  367loPI   C6A 5868  14.973   1.860   8.223  0.0787 -0.0630  0.0617
  367loPI   C1B 5869  13.193   2.102   9.551 -0.2481  0.0261 -0.0719
  367loPI   C2B 5870  13.019   1.835   9.106  0.2612  0.0434  0.0369
  367loPI   C3B 5871  12.952   1.857   8.623 -0.0795 -0.1122  0.0409
  367loPI   C4B 5872  13.036   2.206   8.264  0.0330 -0.1579 -0.2573
  368loPI    C1 5873   6.231  14.970  11.064  0.1355 -0.0669  0.0734
  368loPI    C2 5874   6.320  15.131  11.419  0.0137 -0.0217  0.0839
  368loPI    C3 5875   6.146  14.771  11.400 -0.1192  0.0423  0.0763
  368loPI   PO4 5876   6.204  15.118  10.910  0.1950  0.0791 -0.0148
  368loPI   GL1 5877   6.335  15.320  10.620 -0.0328 -0.2442  0.1887
  368loPI   GL2 5878   6.352  15.605  10.540 -0.2103  0.6049 -0.1256
  368loPI   C1A 5879   6.299  15.189  10.193  0.0559 -0.0883  0.0260
  368loPI   C2A 5880   6.539  15.328   9.880 -0.0652 -0.0523  0.1585
  368loPI   C3A 5881   6.531  15.427   9.495  0.0366  0.1491 -0.0033
  368loPI   C4A 5882   6.542  15.413   9.105 -0.0909 -0.3431 -0.1965
  368loPI   C5A 5883   6.608  15.184   8.745  0.4650 -0.0439 -0.1120
  368loPI   C6A 5884   6.276  14.936   8.487 -0.0169 -0.3026  0.0483
  368loPI   C1B 5885   6.197  15.680  10.070  0.1036  0.2889 -0.0621
  368loPI   C2B 5886   6.067  15.535   9.741  0.0989 -0.4645  0.0894
  368loPI   C3B 5887   5.676  15.357   9.628 -0.1945  0.0192  0.1196
  368loPI   C4B 5888   5.463  15.207   9.276 -0.0333 -0.0782  0.0074
  369loPI    C1 5889   5.328   9.404  10.951  0.0837  0.0833 -0.1728
  369loPI    C2 5890   5.715   9.305  10.944  0.0051 -0.2390 -0.1501
  369loPI    C3 5891   5.447   9.051  11.097 -0.2036  0.0287 -0.0636
  369loPI   PO4 5892   5.345   9.556  10.704 -0.1740 -0.1390  0.1329
  369loPI   GL1 5893   5.323   9.574  10.263 -0.1641  0.2428  0.1063
  369loPI   GL2 5894   5.254   9.912  10.259 -0.2167  0.3100  0.2504
  369loPI   C1A 5895   5.449   9.588   9.857  0.1494 -0.1199 -0.1021
  369loPI   C2A 5896   5.550   9.612   9.460  0.1293 -0.1823  0.1216
  369loPI   C3A 5897   5.408   9.745   9.127 -0.0952  0.0107 -0.1709
  369loPI   C4A 5898   5.327   9.606   8.753 -0.1712 -0.0537 -0.2253
  369loPI   C5A 5899   5.466   9.409   8.376 -0.1290  0.2915  0.2396
  369loPI   C6A 5900   5.171   9.166   8.091  0.2721 -0.2410  0.2125
  369loPI   C1B 5901   5.035   9.847   9.907  0.1509 -0.0742 -0.1189
  369loPI   C2B 5902   5.027   9.914   9.437 -0.0363 -0.1422 -0.4177
  369loPI   C3B 5903   4.986   9.978   8.920 -0.0809  0.3319  0.1423
  369loPI   C4B 5904   4.837  10.397   8.636  0.4285 -0.0609 -0.1429
  370loPI    C1 5905   3.850   6.143  10.928  0.0105  0.1943  0.1582
  370loPI    C2 5906   3.726   5.941  11.250 -0.0883  0.3613  0.2263
  370loPI    C3 5907   4.067   6.150  11.265  0.0593  0.1318  0.1283
  370loPI   PO4 5908   3.696   6.191  10.814 -0.1722 -0.3520 -0.2703
  370loPI   GL1 5909   3.531   6.010  10.481  0.1067  0.0098 -0.2557
  370loPI   GL2 5910   3.534   5.771  10.423 -0.0001  0.0561  0.0588
  370loPI   C1A 5911   3.648   6.306  10.180 -0.0612 -0.0472 -0.2420
  370loPI   C2A 5912   3.640   6.407   9.770 -0.2672 -0.1705 -0.1285
  370loPI   C3A 5913   3.664   6.530   9.384  0.0538 -0.0941 -0.4225
  370loPI   C4A 5914   3.634   6.535   8.948 -0.2173 -0.1978  0.1880
  370loPI   C5A 5915   3.778   6.494   8.460 -0.2137 -0.0890  0.2062
  370loPI   C6A 5916   3.650   6.502   7.986 -0.1296 -0.3546  0.1594
  370loPI   C1B 5917   3.542   5.894   9.960  0.2122 -0.0478 -0.0936
  370loPI   C2B 5918   3.659   5.848   9.555  0.0380 -0.3129  0.0123
  370loPI   C3B 5919   3.528   6.004   9.123 -0.4194  0.1392  0.2023
  370loPI   C4B 5920   3.597   6.051   8.741 -0.0298 -0.0489 -0.1063
  371loPI    C1 5921  11.470  15.257  11.025 -0.0366  0.1178  0.0494
  371loPI    C2 5922  11.630  15.527  11.274  0.0851  0.0317  0.0653
  371loPI    C3 5923  11.472  15.190  11.420 -0.0685  0.0942  0.0455
  371loPI   PO4 5924  11.525  15.174  10.877  0.1708  0.2895  0.1140
  371loPI   GL1 5925  11.248  15.064  10.476  0.3799 -0.0127 -0.2567
  371loPI   GL2 5926  11.464  14.889  10.431  0.2419  0.0980  0.0685
  371loPI   C1A 5927  11.090  15.014  10.030 -0.0607  0.1681  0.1894
  371loPI   C2A 5928  11.061  15.074   9.603 -0.0010 -0.1363 -0.3447
  371loPI   C3A 5929  11.024  15.110   9.144  0.4420 -0.3128 -0.1234
  371loPI   C4A 5930  11.001  15.084   8.649  0.1283  0.1795  0.0510
  371loPI   C5A 5931  10.973  14.731   8.286 -0.2502  0.2082  0.0633
  371loPI   C6A 5932  11.265  14.337   8.405  0.1360  0.0108 -0.1951
  371loPI   C1B 5933  11.534  14.847   9.983  0.0667 -0.1248 -0.0950
  371loPI   C2B 5934  11.500  14.868   9.525  0.1905  0.3418  0.0071
  371loPI   C3B 5935  11.552  14.859   9.136 -0.2623  0.0559  0.1827
  371loPI   C4B 5936  11.572  14.941   8.662  0.0331  0.0313 -0.1562
  372loPI    C1 5937   4.429  13.107  11.189 -0.1690  0.0392  0.2262
  372loPI    C2 5938   4.809  13.086  11.311 -0.0698 -0.2878 -0.1207
  372loPI    C3 5939   4.512  13.059  11.578  0.1452  0.0334  0.1609
  372loPI   PO4 5940   4.435  12.933  10.952  0.0867 -0.0999  0.0851
  372loPI   GL1 5941   4.760  12.820  10.692  0.2334 -0.0811  0.1748
  372loPI   GL2 5942   5.075  12.663  10.707 -0.2893 -0.1123 -0.2716
  372loPI   C1A 5943   4.533  12.752  10.286 -0.1061  0.0302  0.0838
  372loPI   C2A 5944   4.313  12.610   9.996  0.0411 -0.1745 -0.1536
  372loPI   C3A 5945   4.183  12.701   9.574 -0.1550  0.0579  0.1738
  372loPI   C4A 5946   4.446  12.621   9.197 -0.0163 -0.0395 -0.1724
  372loPI   C5A 5947   4.573  12.845   8.734  0.1021 -0.1534  0.1205
  372loPI   C6A 5948   4.626  13.240   8.771 -0.1895 -0.0395 -0.0352
  372loPI   C1B 5949   5.046  12.653  10.249 -0.1497  0.1251  0.2369
  372loPI   C2B 5950   5.097  12.596   9.842 -0.0036 -0.1657 -0.0834
  372loPI   C3B 5951   5.129  12.974   9.492 -0.1146 -0.1997 -0.1208
  372loPI   C4B 5952   5.390  13.059   9.111 -0.2381  0.2070 -0.1553
  373loPI    C1 5953   9.339  14.167  11.328  0.0167  0.1736 -0.0725
  373loPI    C2 5954   8.996  14.005  11.456  0.1927 -0.0972  0.0662
  373loPI    C3 5955   9.127  14.349  11.614 -0.1852  0.1933 -0.2320
  373loPI   PO4 5956   9.332  14.123  11.085  0.0209  0.1838 -0.3034
  373loPI   GL1 5957   9.232  13.971  10.797  0.1973  0.0413 -0.1620
  373loPI   GL2 5958   9.436  13.787  10.623 -0.0186  0.2478 -0.0147
  373loPI   C1A 5959   8.875  13.972  10.533  0.1941 -0.0685  0.0814
  373loPI   C2A 5960   9.011  13.957  10.098 -0.1794  0.0854 -0.0881
  373loPI   C3A 5961   9.111  13.904   9.659 -0.1214  0.0677 -0.0803
  373loPI   C4A 5962   9.028  13.862   9.221  0.1025 -0.1857  0.0003
  373loPI   C5A 5963   8.829  13.901   8.719 -0.0544  0.0339  0.0989
  373loPI   C6A 5964   8.948  13.818   8.324 -0.1439  0.1604 -0.0019
  373loPI   C1B 5965   9.440  13.757  10.198 -0.2206  0.3020 -0.1810
  373loPI   C2B 5966   9.552  13.701   9.791  0.0931 -0.2563  0.4853
  373loPI   C3B 5967   9.497  13.689   9.277  0.0062 -0.0834  0.0559
  373loPI   C4B 5968   9.402  13.702   8.837  0.0319  0.1875  0.1300
  374loPI    C1 5969  16.393  12.319  11.587  0.0657 -0.3060  0.0969
  374loPI    C2 5970  16.092  12.443  11.820  0.3726  0.2038  0.2399
  374loPI    C3 5971  16.169  12.052  11.783 -0.3525  0.0575  0.1298
  374loPI   PO4 5972  16.391  12.520  11.395 -0.2140  0.0383 -0.3196
  374loPI   GL1 5973  16.607  12.497  11.046  0.0222  0.0707  0.0494
  374loPI   GL2 5974  16.363  12.206  11.019  0.2758 -0.1907  0.1224
  374loPI   C1A 5975  16.568  12.568  10.639  0.3234 -0.2577  0.1469
  374loPI   C2A 5976  16.647  12.446  10.198 -0.0192 -0.0349 -0.1582
  374loPI   C3A 5977  16.806  12.220   9.876  0.2047 -0.1224  0.4020
  374loPI   C4A 5978  16.740  12.222   9.412  0.0200 -0.0169  0.2493
  374loPI   C5A 5979  16.608  12.084   8.982 -0.0816 -0.1499 -0.0882
  374loPI   C6A 5980  16.172  11.972   8.877 -0.0324  0.3679  0.2254
  374loPI   C1B 5981  16.127  12.375  10.619  0.3077  0.0709  0.0364
  374loPI   C2B 5982  16.080  12.505  10.182  0.2500 -0.3745  0.0940
  374loPI   C3B 5983  16.259  12.397   9.750 -0.0753  0.2157 -0.2966
  374loPI   C4B 5984  16.306  12.364   9.283 -0.0071 -0.0540  0.0045
  375loPI    C1 5985   5.082  14.129  11.172 -0.1057  0.2424  0.1269
  375loPI    C2 5986   4.750  14.247  11.361 -0.2273  0.0534  0.0349
  375loPI    C3 5987   4.954  13.930  11.494 -0.2664 -0.0293 -0.1000
  375loPI   PO4 5988   5.089  14.072  10.907  0.0915 -0.0572  0.0888
  375loPI   GL1 5989   5.052  14.127  10.628  0.0390 -0.2201 -0.1787
  375loPI   GL2 5990   5.209  14.429  10.530 -0.1702  0.1470  0.0301
  375loPI   C1A 5991   5.128  13.923  10.214 -0.1170  0.1255 -0.2379
  375loPI   C2A 5992   5.214  13.947   9.761  0.0880  0.2332  0.0488
  375loPI   C3A 5993   5.366  13.979   9.261 -0.0671 -0.0634  0.1110
  375loPI   C4A 5994   5.517  14.186   8.940 -0.1543 -0.0300 -0.1213
  375loPI   C5A 5995   5.472  14.314   8.503  0.1123  0.1537  0.0282
  375loPI   C6A 5996   5.650  14.671   8.267  0.3150 -0.0437 -0.0672
  375loPI   C1B 5997   5.061  14.453  10.159 -0.1781 -0.0720 -0.0637
  375loPI   C2B 5998   5.105  14.504   9.732 -0.0079 -0.0785 -0.1480
  375loPI   C3B 5999   5.321  14.600   9.320  0.2928  0.0783  0.1564
  375loPI   C4B 6000   5.445  14.696   8.896  0.0203 -0.1215  0.0684
  376loPI    C1 6001  14.643   9.080  11.370 -0.1282  0.0957 -0.2843
  376loPI    C2 6002  14.309   9.031  11.585  0.0180 -0.0384 -0.0837
  376loPI    C3 6003  14.519   9.371  11.615  0.0262 -0.0482 -0.0306
  376loPI   PO4 6004  14.564   9.075  11.122  0.1129 -0.2464 -0.1144
  376loPI   GL1 6005  14.621   9.021  10.786 -0.0742 -0.0159  0.2092
  376loPI   GL2 6006  14.252   9.025  10.668 -0.1365  0.2680 -0.0338
  376loPI   C1A 6007  14.984   9.023  10.496  0.0456 -0.3488 -0.0610
  376loPI   C2A 6008  15.054   9.142  10.031  0.1410 -0.1671 -0.0775
  376loPI   C3A 6009  15.232   9.060   9.674  0.3456  0.3028 -0.1196
  376loPI   C4A 6010  15.253   8.989   9.199  0.1975 -0.2346 -0.0234
  376loPI   C5A 6011  15.290   8.998   8.759 -0.0616  0.2025  0.1880
  376loPI   C6A 6012  15.382   8.916   8.349 -0.6427 -0.0219 -0.0171
  376loPI   C1B 6013  14.219   8.783  10.378 -0.1595 -0.2704 -0.0893
  376loPI   C2B 6014  14.184   8.861   9.967 -0.0615 -0.0499 -0.0223
  376loPI   C3B 6015  14.051   8.907   9.634  0.0094 -0.2284 -0.0388
  376loPI   C4B 6016  14.180   8.863   9.235  0.1543 -0.1795 -0.0599
  377loPI    C1 6017   8.145   7.907  11.476  0.0413 -0.0284  0.0536
  377loPI    C2 6018   8.074   7.531  11.593 -0.0943  0.0420  0.2014
  377loPI    C3 6019   8.093   7.824  11.864  0.1942  0.1148  0.1061
  377loPI   PO4 6020   7.943   7.923  11.220  0.0791 -0.0731  0.1337
  377loPI   GL1 6021   7.949   7.673  10.773  0.2124 -0.0089 -0.3473
  377loPI   GL2 6022   8.247   7.656  10.936  0.0617 -0.2224 -0.0453
  377loPI   C1A 6023   7.943   7.670  10.340 -0.0029 -0.0440  0.1213
  377loPI   C2A 6024   7.950   7.719   9.900  0.2859  0.2554 -0.0227
  377loPI   C3A 6025   8.002   7.683   9.523  0.1262  0.0007  0.2783
  377loPI   C4A 6026   7.970   7.805   9.058 -0.1058 -0.1536 -0.1041
  377loPI   C5A 6027   7.663   7.833   8.698 -0.0338  0.1388  0.1461
  377loPI   C6A 6028   7.421   7.492   8.547 -0.2918  0.0129 -0.3073
  377loPI   C1B 6029   8.367   7.434  10.642 -0.2204 -0.1277  0.0890
  377loPI   C2B 6030   8.373   7.217  10.297 -0.2189  0.0663  0.2187
  377loPI   C3B 6031   8.335   7.431   9.825  0.1463  0.1855  0.0518
  377loPI   C4B 6032   8.503   7.632   9.491 -0.1961  0.0815 -0.1668
  378loPI    C1 6033  14.195  12.169  11.698  0.1364  0.1220  0.0807
  378loPI    C2 6034  14.069  11.825  11.858  0.2136 -0.0003 -0.1177
  378loPI    C3 6035  14.372  12.025  12.026 -0.0396  0.1379  0.1840
  378loPI   PO4 6036  14.272  12.072  11.319 -0.1408  0.0099 -0.1659
  378loPI   GL1 6037  14.738  11.974  11.044  0.1002 -0.0817  0.1126
  378loPI   GL2 6038  14.611  12.303  10.922 -0.0177  0.0487 -0.0974
  378loPI   C1A 6039  14.980  11.918  10.688  0.0099  0.1603  0.0863
  378loPI   C2A 6040  14.826  11.831  10.245  0.1100 -0.3378  0.0611
  378loPI   C3A 6041  14.882  11.976   9.781 -0.2090  0.0326 -0.1554
  378loPI   C4A 6042  14.942  12.005   9.404 -0.1866 -0.0248  0.0554
  378loPI   C5A 6043  14.808  11.847   9.024 -0.0487  0.2218  0.3919
  378loPI   C6A 6044  14.800  11.737   8.641  0.0441  0.1081  0.3797
  378loPI   C1B 6045  14.510  12.026  10.568 -0.3492  0.2127 -0.0496
  378loPI   C2B 6046  14.399  12.038  10.096 -0.1193  0.2591 -0.0625
  378loPI   C3B 6047  14.446  12.155   9.685  0.0289 -0.1781  0.0850
  378loPI   C4B 6048  14.427  12.085   9.265  0.0234 -0.0655  0.1128
  379loPI    C1 6049   4.987  14.615  10.900 -0.0759  0.1391 -0.0956
  379loPI    C2 6050   5.086  14.624  11.288 -0.1336  0.0538 -0.0785
  379loPI    C3 6051   5.370  14.585  11.009 -0.0957  0.0749 -0.0428
  379loPI   PO4 6052   4.809  14.460  10.897  0.2834  0.0502 -0.2375
  379loPI   GL1 6053   4.621  14.383  10.486  0.0560 -0.3941 -0.1807
  379loPI   GL2 6054   4.636  14.716  10.444  0.1915 -0.1210 -0.2862
  379loPI   C1A 6055   4.632  14.071  10.135  0.1692 -0.1051  0.0234
  379loPI   C2A 6056   4.696  14.035   9.717  0.0415 -0.1799  0.0893
  379loPI   C3A 6057   4.847  13.978   9.300 -0.0795  0.2485  0.4028
  379loPI   C4A 6058   5.019  14.356   8.979  0.0882  0.1053  0.2186
  379loPI   C5A 6059   5.008  14.448   8.567 -0.0986  0.1283 -0.4367
  379loPI   C6A 6060   5.145  14.353   8.118  0.1489 -0.0448  0.0056
  379loPI   C1B 6061   4.496  14.632  10.031 -0.1000  0.1239  0.2799
  379loPI   C2B 6062   4.604  14.515   9.603  0.0904  0.3893  0.1132
  379loPI   C3B 6063   4.808  14.685   9.304  0.1476 -0.2998  0.1974
  379loPI   C4B 6064   4.639  14.769   8.934  0.1539  0.1196  0.0021
  380loPI    C1 6065  16.162   5.682  10.834  0.0741 -0.1446  0.2429
  380loPI    C2 6066  16.354   6.012  10.954 -0.0565  0.1431 -0.3043
  380loPI    C3 6067  16.057   5.862  11.175 -0.0371  0.4279 -0.0789
  380loPI   PO4 6068  16.217   5.742  10.522  0.0446 -0.1950 -0.1070
  380loPI   GL1 6069  16.106   5.884  10.129 -0.1670 -0.0349 -0.0635
  380loPI   GL2 6070  16.292   6.099  10.082 -0.2181  0.1523  0.0849
  380loPI   C1A 6071  16.060   5.777   9.760  0.0493 -0.0285  0.3799
  380loPI   C2A 6072  15.992   5.965   9.278  0.0817 -0.0461 -0.1024
  380loPI   C3A 6073  15.930   6.095   8.858  0.2904 -0.0877  0.0233
  380loPI   C4A 6074  15.873   5.949   8.401 -0.1776  0.1424  0.0006
  380loPI   C5A 6075  15.752   5.970   7.971 -0.0915 -0.1052 -0.3212
  380loPI   C6A 6076  15.880   6.019   7.487 -0.1770 -0.0869 -0.1113
  380loPI   C1B 6077  16.132   6.252   9.709  0.3885 -0.2104 -0.3525
  380loPI   C2B 6078  16.385   6.254   9.349 -0.0688  0.1927 -0.1156
  380loPI   C3B 6079  16.542   6.119   8.918 -0.2429  0.4073  0.3289
  380loPI   C4B 6080  16.718   5.819   8.561  0.1478 -0.0980  0.2832
  381loPI    C1 6081  15.293   6.169  10.870  0.0427 -0.0251 -0.0501
  381loPI    C2 6082  15.236   6.427  11.171  0.1686 -0.1374  0.0711
  381loPI    C3 6083  15.529   6.155  11.193  0.0510 -0.2770 -0.0653
  381loPI   PO4 6084  14.959   6.263  10.681  0.1086  0.3009  0.3961
  381loPI   GL1 6085  14.669   6.293  10.375 -0.0592 -0.0998  0.0874
  381loPI   GL2 6086  14.432   6.108  10.422 -0.0561 -0.0772 -0.2533
  381loPI   C1A 6087  14.761   6.469   9.994  0.2564 -0.1928  0.1214
  381loPI   C2A 6088  14.945   6.648   9.706  0.2009 -0.3141 -0.0597
  381loPI   C3A 6089  15.240   6.586   9.411  0.0791  0.0858  0.1446
  381loPI   C4A 6090  15.197   6.376   9.025  0.0889  0.2404  0.2423
  381loPI   C5A 6091  14.959   6.040   8.961  0.0260  0.1052  0.1209
  381loPI   C6A 6092  14.808   5.761   9.248 -0.2928 -0.1110  0.0436
  381loPI   C1B 6093  14.402   6.019   9.988 -0.1332  0.1568  0.1055
  381loPI   C2B 6094  14.362   5.968   9.594  0.2629 -0.1156  0.0844
  381loPI   C3B 6095  14.306   6.008   9.282 -0.2087 -0.0689 -0.0236
  381loPI   C4B 6096  14.448   5.901   8.851  0.0810 -0.2585 -0.0495
  382loPI    C1 6097   5.472   2.513  10.906 -0.2711  0.1718 -0.0035
  382loPI    C2 6098   5.614   2.822  11.116 -0.0153  0.0952 -0.0599
  382loPI    C3 6099   5.476   2.498  11.306 -0.2465  0.2250 -0.0019
  382loPI   PO4 6100   5.602   2.583  10.664  0.1833 -0.3360 -0.1430
  382loPI   GL1 6101   5.446   2.798  10.330  0.3135  0.1601  0.1015
  382loPI   GL2 6102   5.665   3.010  10.272  0.2109 -0.1653 -0.0637
  382loPI   C1A 6103   5.302   2.774   9.905  0.0438  0.0581  0.0489
  382loPI   C2A 6104   5.323   2.838   9.518  0.2736  0.0869  0.0976
  382loPI   C3A 6105   5.539   2.817   9.144 -0.0569 -0.0895  0.1328
  382loPI   C4A 6106   5.549   2.901   8.758  0.0805  0.1203  0.0427
  382loPI   C5A 6107   5.482   2.798   8.260  0.3688  0.2543  0.1030
  382loPI   C6A 6108   5.173   2.634   7.988  0.0512  0.0730  0.1761
  382loPI   C1B 6109   5.807   2.974   9.886  0.1688  0.1760  0.0854
  382loPI   C2B 6110   5.912   3.013   9.413  0.1804  0.0923 -0.2490
  382loPI   C3B 6111   6.030   3.045   9.005 -0.0187  0.0264  0.1490
  382loPI   C4B 6112   6.041   3.038   8.575 -0.0041  0.1443  0.1634
  383loPI    C1 6113   4.994  11.325  11.055 -0.0341 -0.0308 -0.1527
  383loPI    C2 6114   4.810  10.982  11.144 -0.4675  0.2571  0.0976
  383loPI    C3 6115   5.125  11.101  11.359 -0.1876 -0.0739 -0.1177
  383loPI   PO4 6116   4.954  11.354  10.764 -0.1601  0.1307 -0.1587
  383loPI   GL1 6117   5.103  11.286  10.401  0.1100  0.0727 -0.0754
  383loPI   GL2 6118   5.390  11.346  10.564  0.2718 -0.4905  0.0207
  383loPI   C1A 6119   4.951  11.407   9.957  0.1432 -0.2677 -0.1697
  383loPI   C2A 6120   4.941  11.519   9.470 -0.2436  0.1154 -0.0912
  383loPI   C3A 6121   4.914  11.686   9.002  0.1992 -0.0157  0.0767
  383loPI   C4A 6122   4.973  11.899   8.698  0.1810  0.0386  0.2055
  383loPI   C5A 6123   4.770  12.194   8.660 -0.1734  0.2574 -0.0685
  383loPI   C6A 6124   4.476  12.339   8.764 -0.0137  0.0043 -0.0140
  383loPI   C1B 6125   5.424  11.616  10.181 -0.2794 -0.1427 -0.3309
  383loPI   C2B 6126   5.378  11.697   9.694 -0.0084  0.0513  0.0571
  383loPI   C3B 6127   5.413  11.803   9.274  0.0254  0.3383 -0.1445
  383loPI   C4B 6128   5.375  11.660   8.819  0.0154 -0.0779  0.1938
  384loPI    C1 6129   7.254   0.899  11.006  0.0657  0.0333 -0.0362
  384loPI    C2 6130   7.290   1.132  11.329  0.1422  0.1736 -0.1444
  384loPI    C3 6131   7.559   0.844  11.259  0.0807  0.0904 -0.0416
  384loPI   PO4 6132   7.323   0.968  10.733  0.1250  0.0507 -0.0923
  384loPI   GL1 6133   7.218   1.069  10.316  0.1360  0.1331 -0.0769
  384loPI   GL2 6134   7.093   0.734  10.285  0.2013 -0.1152  0.0557
  384loPI   C1A 6135   7.447   1.156  10.014 -0.3933 -0.0425  0.1518
  384loPI   C2A 6136   7.550   1.154   9.630  0.3450 -0.0832 -0.0807
  384loPI   C3A 6137   7.485   1.305   9.251 -0.1128  0.1432  0.0312
  384loPI   C4A 6138   7.491   1.332   8.778 -0.1870  0.2314 -0.1452
  384loPI   C5A 6139   7.637   1.223   8.437 -0.0283 -0.2183 -0.1682
  384loPI   C6A 6140   7.560   0.952   8.060  0.1490  0.2156 -0.1721
  384loPI   C1B 6141   7.081   0.863   9.837 -0.2922  0.1059 -0.2213
  384loPI   C2B 6142   7.085   1.086   9.467 -0.1738 -0.1498 -0.1476
  384loPI   C3B 6143   7.082   1.101   9.001 -0.1940 -0.3584  0.0173
  384loPI   C4B 6144   7.090   1.040   8.567  0.1126 -0.0396  0.0499
  385loPI    C1 6145  16.499  13.735  11.548 -0.0291  0.1674 -0.1267
  385loPI    C2 6146  16.642  14.064  11.370  0.0449  0.2293  0.0456
  385loPI    C3 6147  16.513  14.081  11.748 -0.0346  0.0797  0.0260
  385loPI   PO4 6148  16.405  13.535  11.242 -0.2638 -0.0846 -0.0047
  385loPI   GL1 6149  16.249  13.497  10.883  0.0407 -0.3260 -0.0876
  385loPI   GL2 6150  16.052  13.601  10.677  0.1723  0.0680  0.1676
  385loPI   C1A 6151  16.379  13.439  10.396 -0.1769 -0.2903 -0.0432
  385loPI   C2A 6152  16.324  13.305   9.966 -0.2260 -0.1114  0.0785
  385loPI   C3A 6153  16.421  13.222   9.554  0.1418  0.0940  0.1662
  385loPI   C4A 6154  16.502  13.117   9.070 -0.0790 -0.2013 -0.0533
  385loPI   C5A 6155  16.320  12.982   8.734  0.0572 -0.1984  0.2149
  385loPI   C6A 6156  16.356  12.864   8.334 -0.0444  0.1019  0.1266
  385loPI   C1B 6157  15.931  13.532  10.251 -0.1258 -0.4308  0.2206
  385loPI   C2B 6158  15.863  13.444   9.874 -0.1282 -0.2373  0.0478
  385loPI   C3B 6159  15.925  13.372   9.417 -0.0195 -0.3527  0.2242
  385loPI   C4B 6160  16.064  13.379   8.973  0.0285  0.0553 -0.1471
  386loPI    C1 6161  16.753  15.331  11.513  0.0379 -0.1482  0.1123
  386loPI    C2 6162  16.541  15.588  11.733  0.0305 -0.1919  0.1565
  386loPI    C3 6163  16.821  15.362  11.906  0.1775 -0.0679  0.0824
  386loPI   PO4 6164  16.755  15.418  11.305 -0.2850 -0.0398  0.1149
  386loPI   GL1 6165  16.775  15.281  10.902  0.2430 -0.1020 -0.1463
  386loPI   GL2 6166  16.448  15.354  10.822  0.0352  0.0868  0.2039
  386loPI   C1A 6167  16.710  15.553  10.428  0.3232  0.3239 -0.2004
  386loPI   C2A 6168  16.926  15.462  10.071  0.0271  0.1360  0.1967
  386loPI   C3A 6169  17.002  15.431   9.598 -0.0037 -0.2134  0.0744
  386loPI   C4A 6170  16.903  15.375   9.196  0.2597  0.0849  0.1883
  386loPI   C5A 6171  16.863  15.264   8.812  0.0314  0.0589  0.1039
  386loPI   C6A 6172  16.774  15.171   8.346  0.2334 -0.0875  0.1173
  386loPI   C1B 6173  16.499  15.109  10.376 -0.0151 -0.2768 -0.1481
  386loPI   C2B 6174  16.491  15.075   9.974  0.0997 -0.3340 -0.2072
  386loPI   C3B 6175  16.594  15.177   9.619 -0.0242 -0.0691  0.1823
  386loPI   C4B 6176  16.515  15.074   9.184 -0.1908 -0.0156 -0.0846
  387loPI    C1 6177   9.037   1.439  10.925 -0.0019 -0.0325  0.1268
  387loPI    C2 6178   9.035   1.802  11.093  0.1401  0.0563 -0.0596
  387loPI    C3 6179   9.279   1.518  11.234  0.1973  0.1046 -0.0604
  387loPI   PO4 6180   9.080   1.519  10.692 -0.0635  0.2622 -0.2047
  387loPI   GL1 6181   9.199   1.525  10.248 -0.0184  0.1786  0.2715
  387loPI   GL2 6182   9.342   1.841  10.271  0.0084  0.0629 -0.0429
  387loPI   C1A 6183   9.021   1.678   9.859  0.1791 -0.0373 -0.0973
  387loPI   C2A 6184   9.144   1.976   9.512 -0.1089  0.0205  0.0589
  387loPI   C3A 6185   9.290   2.143   9.123 -0.1591 -0.0893  0.1571
  387loPI   C4A 6186   9.540   2.144   8.809  0.0136 -0.0147 -0.0311
  387loPI   C5A 6187   9.557   1.932   8.408  0.1227 -0.1314  0.0460
  387loPI   C6A 6188   9.530   1.504   8.218  0.0555  0.1364 -0.1785
  387loPI   C1B 6189   9.516   1.995   9.863 -0.1189 -0.0379 -0.1189
  387loPI   C2B 6190   9.682   2.067   9.427  0.0524 -0.2873  0.1424
  387loPI   C3B 6191   9.801   2.202   9.201 -0.3734 -0.1116  0.1218
  387loPI   C4B 6192  10.075   2.344   9.105 -0.0477  0.3902  0.0260
  388loPI    C1 6193   9.067  16.448  11.151  0.0598 -0.1940  0.0656
  388loPI    C2 6194   8.752  16.216  11.235  0.0125 -0.1096  0.1229
  388loPI    C3 6195   8.933  16.420  11.527 -0.1500  0.1834  0.0241
  388loPI   PO4 6196   8.965  16.563  10.965 -0.2512  0.1678  0.3490
  388loPI   GL1 6197   8.749  16.352  10.640 -0.0531  0.0681 -0.0700
  388loPI   GL2 6198   8.608  16.594  10.545 -0.3357 -0.0030 -0.1720
  388loPI   C1A 6199   9.103  16.299  10.296 -0.1459 -0.0187 -0.1483
  388loPI   C2A 6200   9.061  16.327   9.894 -0.1298  0.0391 -0.1284
  388loPI   C3A 6201   9.109  16.233   9.455  0.1124  0.2477  0.1292
  388loPI   C4A 6202   9.051  16.315   8.969  0.0720 -0.0745  0.1701
  388loPI   C5A 6203   8.845  16.264   8.592 -0.2001 -0.0687 -0.3432
  388loPI   C6A 6204   8.696  16.280   8.216 -0.4036  0.1660  0.0049
  388loPI   C1B 6205   8.712  16.572  10.218  0.0527  0.2677 -0.2421
  388loPI   C2B 6206   8.602  16.553   9.682  0.1381  0.0711 -0.0040
  388loPI   C3B 6207   8.587  16.453   9.255  0.0236  0.1416  0.3012
  388loPI   C4B 6208   8.506  16.533   8.896 -0.0253  0.0665 -0.1009
  389loPI    C1 6209   6.388  15.621  11.259 -0.1047 -0.0117  0.0565
  389loPI    C2 6210   6.640  15.643  11.570 -0.0659  0.0461  0.0211
  389loPI    C3 6211   6.347  15.913  11.530 -0.0814  0.0287  0.0166
  389loPI   PO4 6212   6.526  15.571  11.067 -0.0022 -0.0336  0.2976
  389loPI   GL1 6213   6.813  15.550  10.712 -0.0077  0.1291  0.0410
  389loPI   GL2 6214   7.093  15.663  10.634  0.2362 -0.2836  0.0129
  389loPI   C1A 6215   6.786  15.669  10.212 -0.2182 -0.0862 -0.2646
  389loPI   C2A 6216   6.889  15.698   9.831 -0.2904  0.0022 -0.2284
  389loPI   C3A 6217   6.961  15.806   9.458 -0.0466  0.0777  0.1370
  389loPI   C4A 6218   6.782  15.847   9.068  0.3229  0.0234  0.0869
  389loPI   C5A 6219   6.873  15.622   8.653 -0.3346  0.2503  0.0158
  389loPI   C6A 6220   7.012  15.684   8.271  0.1247  0.1780 -0.1459
  389loPI   C1B 6221   7.371  15.491  10.325 -0.1341 -0.3705 -0.1790
  389loPI   C2B 6222   7.434  15.560   9.819  0.1801 -0.2771  0.4760
  389loPI   C3B 6223   7.376  15.579   9.337  0.1441  0.1388  0.4150
  389loPI   C4B 6224   7.425  15.559   8.899 -0.1258  0.1203  0.2926
  390loPI    C1 6225   3.981  11.367  11.084 -0.0304  0.0529 -0.0052
  390loPI    C2 6226   3.777  11.680  10.942  0.0674 -0.0073 -0.2855
  390loPI    C3 6227   4.088  11.739  11.187 -0.2904  0.0841  0.1605
  390loPI   PO4 6228   3.976  11.240  10.865  0.1096 -0.3226  0.2427
  390loPI   GL1 6229   3.789  11.383  10.478 -0.1067 -0.3329 -0.0551
  390loPI   GL2 6230   3.796  11.081  10.322 -0.1101  0.0850 -0.1614
  390loPI   C1A 6231   3.686  11.592  10.135 -0.0726 -0.0958 -0.0263
  390loPI   C2A 6232   3.625  11.491   9.670  0.2437 -0.0209  0.1543
  390loPI   C3A 6233   3.236  11.199   9.490  0.1583  0.0502 -0.2602
  390loPI   C4A 6234   3.128  11.164   9.086 -0.3941 -0.0726  0.0366
  390loPI   C5A 6235   3.285  11.283   8.662 -0.2724  0.4239  0.4164
  390loPI   C6A 6236   3.685  11.556   8.450  0.1736  0.6389  0.0559
  390loPI   C1B 6237   3.694  11.019   9.899 -0.1000 -0.2497 -0.1534
  390loPI   C2B 6238   3.723  11.047   9.441 -0.1235  0.2193  0.0851
  390loPI   C3B 6239   3.640  11.053   9.006 -0.2083  0.0964 -0.6464
  390loPI   C4B 6240   3.765  11.072   8.539  0.1338  0.1523 -0.0821
  391loPI    C1 6241   3.056   7.911  10.488  0.3095  0.3176 -0.1469
  391loPI    C2 6242   3.228   7.654  10.742 -0.1117  0.1137 -0.0599
  391loPI    C3 6243   3.232   8.046  10.822 -0.0427  0.0723  0.1457
  391loPI   PO4 6244   3.138   7.812  10.283 -0.3197 -0.1325 -0.1297
  391loPI   GL1 6245   3.094   7.747   9.975 -0.0206  0.2449  0.1635
  391loPI   GL2 6246   2.862   7.582   9.898  0.4092  0.0657  0.2852
  391loPI   C1A 6247   3.264   7.812   9.577 -0.2563 -0.1391 -0.5443
  391loPI   C2A 6248   3.305   7.778   9.142 -0.0052  0.2975 -0.0686
  391loPI   C3A 6249   3.290   7.766   8.684 -0.4433 -0.4826  0.2668
  391loPI   C4A 6250   3.514   7.893   8.329 -0.0562 -0.2163  0.2532
  391loPI   C5A 6251   3.794   8.034   7.961 -0.0427 -0.3388  0.2141
  391loPI   C6A 6252   4.041   7.972   7.634 -0.0792 -0.1447  0.0215
  391loPI   C1B 6253   2.772   7.614   9.436 -0.0704 -0.1727  0.1373
  391loPI   C2B 6254   2.841   7.633   9.019  0.1835 -0.0583  0.0197
  391loPI   C3B 6255   2.827   7.634   8.591  0.2292  0.3448  0.0538
  391loPI   C4B 6256   2.994   7.866   8.163  0.1528 -0.0697 -0.0741
  392loPI    C1 6257   7.442  10.864  11.441 -0.2458 -0.1679 -0.0789
  392loPI    C2 6258   7.506  10.469  11.447 -0.0283 -0.1321  0.1856
  392loPI    C3 6259   7.342  10.650  11.763 -0.3435 -0.0415 -0.0248
  392loPI   PO4 6260   7.520  10.951  11.185  0.0267  0.0394  0.0842
  392loPI   GL1 6261   7.231  10.871  10.835 -0.0692  0.1336 -0.2447
  392loPI   GL2 6262   7.029  10.791  10.582  0.0961  0.2765  0.1715
  392loPI   C1A 6263   7.496  10.716  10.441 -0.1646  0.1495  0.0090
  392loPI   C2A 6264   7.547  10.805  10.029 -0.1167 -0.1403  0.0383
  392loPI   C3A 6265   7.553  10.802   9.591  0.0847 -0.0680 -0.2943
  392loPI   C4A 6266   7.568  11.110   9.262  0.0836  0.1376 -0.1143
  392loPI   C5A 6267   7.572  11.271   8.789 -0.2526  0.1900  0.0205
  392loPI   C6A 6268   7.638  11.410   8.271  0.2181 -0.0165 -0.0346
  392loPI   C1B 6269   6.920  10.668  10.175 -0.1832  0.4081  0.0472
  392loPI   C2B 6270   6.971  10.760   9.769  0.0095 -0.1622 -0.1103
  392loPI   C3B 6271   7.071  10.898   9.452  0.1063  0.1312 -0.2936
  392loPI   C4B 6272   6.999  10.863   9.024  0.1845 -0.2026 -0.0688
  393loPI    C1 6273   7.828  13.330  11.113  0.1507 -0.0852 -0.0274
  393loPI    C2 6274   8.038  13.453  11.431 -0.0420 -0.0372  0.0831
  393loPI    C3 6275   7.775  13.700  11.257  0.0988 -0.0460 -0.1461
  393loPI   PO4 6276   8.055  13.277  10.958  0.0439  0.3237 -0.0598
  393loPI   GL1 6277   8.344  13.438  10.640 -0.1499  0.1465 -0.2141
  393loPI   GL2 6278   8.113  13.306  10.454  0.2829  0.1425 -0.1675
  393loPI   C1A 6279   8.565  13.618  10.332  0.0361 -0.2283 -0.3721
  393loPI   C2A 6280   8.661  13.700   9.858  0.1414  0.2767 -0.0922
  393loPI   C3A 6281   8.560  13.590   9.560 -0.2813  0.1195  0.1869
  393loPI   C4A 6282   8.584  13.606   9.161 -0.1016  0.1820 -0.1862
  393loPI   C5A 6283   8.235  13.665   8.786  0.0885 -0.0668  0.0436
  393loPI   C6A 6284   8.407  14.059   8.510 -0.1735  0.3563  0.1836
  393loPI   C1B 6285   8.258  13.314  10.082  0.0055  0.1534  0.4285
  393loPI   C2B 6286   8.090  13.291   9.767 -0.1973 -0.1476 -0.0106
  393loPI   C3B 6287   8.171  13.273   9.387 -0.1908  0.0777  0.0561
  393loPI   C4B 6288   8.331  13.230   8.994 -0.2259 -0.0239  0.0336
  394loPI    C1 6289  11.602  17.736  10.969 -0.0780 -0.3376  0.1472
  394loPI    C2 6290  11.871  17.694  11.262  0.1630 -0.0949 -0.0342
  394loPI    C3 6291  11.489  17.773  11.351  0.2395  0.0069  0.2137
  394loPI   PO4 6292  11.710  17.888  10.737 -0.0315 -0.0419 -0.1046
  394loPI   GL1 6293  11.596  18.020  10.263 -0.0154 -0.0410 -0.2057
  394loPI   GL2 6294  11.488  17.773  10.284  0.3105  0.0558  0.1773
  394loPI   C1A 6295  11.791  18.171   9.923 -0.0250 -0.1415 -0.2026
  394loPI   C2A 6296  11.690  18.163   9.522 -0.1352 -0.0041  0.0380
  394loPI   C3A 6297  11.394  18.212   9.387 -0.1324 -0.2915 -0.4291
  394loPI   C4A 6298  10.994  18.320   9.533  0.0927  0.2845 -0.0575
  394loPI   C5A 6299  10.601  18.590   9.346 -0.1220  0.2404  0.0199
  394loPI   C6A 6300  10.228  18.694   8.971 -0.0723 -0.0684  0.0100
  394loPI   C1B 6301  11.393  17.746   9.877  0.0236  0.3978 -0.0028
  394loPI   C2B 6302  11.095  17.791   9.634 -0.2982 -0.0507 -0.0445
  394loPI   C3B 6303  11.029  17.812   9.197  0.1042  0.1498 -0.0326
  394loPI   C4B 6304  11.127  18.152   8.880 -0.1466  0.2742 -0.1774
  395loPI    C1 6305   1.262   6.186  10.650  0.0412 -0.0077 -0.1059
  395loPI    C2 6306   1.125   5.888  10.878  0.2124  0.0111  0.0228
  395loPI    C3 6307   1.003   6.263  10.946  0.1755  0.0014  0.0101
  395loPI   PO4 6308   1.369   6.071  10.460  0.1368 -0.1305 -0.2267
  395loPI   GL1 6309   1.255   6.034  10.063 -0.1086 -0.0753  0.1540
  395loPI   GL2 6310   1.330   5.959   9.854 -0.0344 -0.2231  0.1406
  395loPI   C1A 6311   1.366   6.429   9.687  0.1829  0.1584 -0.0922
  395loPI   C2A 6312   1.380   6.413   9.234 -0.0194  0.0102 -0.0400
  395loPI   C3A 6313   1.402   6.419   8.746  0.1709 -0.0132 -0.1398
  395loPI   C4A 6314   1.381   6.370   8.351  0.1860  0.0747  0.0097
  395loPI   C5A 6315   1.497   6.265   7.959 -0.1105  0.1459 -0.5476
  395loPI   C6A 6316   1.110   6.045   7.736 -0.2338 -0.0457 -0.2355
  395loPI   C1B 6317   1.349   5.984   9.436  0.1164 -0.4097 -0.1094
  395loPI   C2B 6318   1.390   5.938   9.013 -0.0925  0.1880 -0.0206
  395loPI   C3B 6319   1.351   5.939   8.570 -0.4549 -0.0182  0.2367
  395loPI   C4B 6320   1.041   5.910   8.251 -0.0149 -0.0431  0.0855
  396loPI    C1 6321   2.142  16.234  11.113  0.0450  0.1409  0.1898
  396loPI    C2 6322   2.486  16.139  11.294  0.0175  0.0112  0.1749
  396loPI    C3 6323   2.345  16.513  11.315  0.3041  0.1359 -0.0575
  396loPI   PO4 6324   2.195  16.195  10.847  0.1552  0.2499  0.1080
  396loPI   GL1 6325   2.361  16.321  10.483  0.2667  0.0136 -0.0282
  396loPI   GL2 6326   2.071  16.446  10.447  0.1943 -0.3440 -0.2386
  396loPI   C1A 6327   2.503  16.411  10.093  0.1105  0.2098  0.2142
  396loPI   C2A 6328   2.484  16.558   9.667  0.0326  0.2951 -0.0807
  396loPI   C3A 6329   2.636  16.607   9.256  0.3105  0.0645  0.2590
  396loPI   C4A 6330   2.371  16.819   8.904 -0.0321  0.1454  0.0141
  396loPI   C5A 6331   2.451  17.114   8.471 -0.1111 -0.2936 -0.1513
  396loPI   C6A 6332   2.528  17.015   8.064  0.2302  0.3679  0.1998
  396loPI   C1B 6333   2.038  16.316  10.033  0.2294  0.3039  0.0331
  396loPI   C2B 6334   1.834  16.223   9.601 -0.3785  0.1099  0.1867
  396loPI   C3B 6335   1.640  16.495   9.240  0.1036  0.1558  0.0267
  396loPI   C4B 6336   1.237  16.474   8.855 -0.0737 -0.2659  0.0910
  397loPI    C1 6337   0.260  17.784  10.684 -0.0078 -0.1818 -0.0666
  397loPI    C2 6338  -0.022  18.067  10.710 -0.0591 -0.2541  0.1907
  397loPI    C3 6339   0.321  18.107  10.913  0.1591 -0.1213 -0.1949
  397loPI   PO4 6340   0.235  17.719  10.435  0.3190  0.0579 -0.0336
  397loPI   GL1 6341   0.062  17.575  10.093 -0.1082  0.0028  0.0454
  397loPI   GL2 6342   0.092  17.875  10.041 -0.2685 -0.2085  0.2718
  397loPI   C1A 6343   0.163  17.345   9.792 -0.0408 -0.1747  0.1693
  397loPI   C2A 6344   0.243  17.132   9.454 -0.0859  0.1054 -0.0718
  397loPI   C3A 6345   0.251  17.378   9.069 -0.2476  0.0252 -0.2742
  397loPI   C4A 6346   0.127  17.589   8.701 -0.1209  0.0297 -0.3758
  397loPI   C5A 6347   0.379  17.426   8.318  0.1363  0.1241  0.1621
  397loPI   C6A 6348   0.497  17.032   8.160 -0.4457 -0.0562 -0.1056
  397loPI   C1B 6349  -0.049  17.872   9.625  0.2068  0.1751  0.1427
  397loPI   C2B 6350  -0.107  17.901   9.148 -0.0085 -0.2041  0.2539
  397loPI   C3B 6351  -0.274  17.647   8.937  0.4536 -0.1931 -0.1013
  397loPI   C4B 6352  -0.520  17.585   8.563 -0.0279 -0.3387  0.0764
  398loPI    C1 6353  12.189  15.922  10.902  0.1722  0.1861 -0.0714
  398loPI    C2 6354  12.501  15.766  11.097  0.1148  0.1231 -0.0295
  398loPI    C3 6355  12.131  15.722  11.243  0.0850  0.1888 -0.0843
  398loPI   PO4 6356  12.231  15.894  10.684  0.4476 -0.1522  0.3860
  398loPI   GL1 6357  12.130  15.632  10.426  0.0469 -0.1862 -0.0761
  398loPI   GL2 6358  11.850  15.725  10.280  0.0450  0.2340 -0.2719
  398loPI   C1A 6359  12.266  15.652  10.040 -0.1325 -0.0987  0.0462
  398loPI   C2A 6360  12.284  15.599   9.614 -0.3259  0.0674 -0.0082
  398loPI   C3A 6361  12.347  15.618   9.160  0.2183  0.1057  0.1796
  398loPI   C4A 6362  12.436  15.608   8.718  0.2386  0.1828 -0.0437
  398loPI   C5A 6363  12.938  15.654   8.581 -0.1482 -0.2443  0.0649
  398loPI   C6A 6364  13.265  15.504   8.290 -0.0642  0.3562  0.0886
  398loPI   C1B 6365  11.740  15.680   9.839 -0.0294 -0.0285  0.0363
  398loPI   C2B 6366  11.814  15.701   9.422  0.0361  0.0584 -0.0615
  398loPI   C3B 6367  11.860  15.703   9.056  0.4275  0.2070 -0.2571
  398loPI   C4B 6368  11.918  15.781   8.647 -0.0761 -0.1308  0.1206
  399loPI    C1 6369   7.060   3.469  11.273  0.0216 -0.0025  0.1192
  399loPI    C2 6370   7.273   3.529  11.607  0.0726 -0.0455  0.0946
  399loPI    C3 6371   6.920   3.340  11.625 -0.1459  0.3591  0.1897
  399loPI   PO4 6372   7.179   3.425  11.086  0.2012 -0.1426 -0.3370
  399loPI   GL1 6373   7.109   3.386  10.643  0.0370  0.1036 -0.0471
  399loPI   GL2 6374   7.378   3.415  10.557 -0.1047  0.0308  0.0171
  399loPI   C1A 6375   6.864   3.478  10.290  0.1414 -0.0326  0.1952
  399loPI   C2A 6376   6.870   3.346   9.899  0.0502 -0.1995 -0.1467
  399loPI   C3A 6377   6.917   3.442   9.499  0.3096 -0.2505  0.2105
  399loPI   C4A 6378   6.900   3.506   9.036 -0.2802  0.1745  0.1917
  399loPI   C5A 6379   6.960   3.551   8.582 -0.0702  0.1292  0.0922
  399loPI   C6A 6380   7.292   3.695   8.385  0.1259 -0.0144 -0.2536
  399loPI   C1B 6381   7.346   3.586  10.188  0.0919 -0.0428 -0.3074
  399loPI   C2B 6382   7.374   3.630   9.752 -0.0729  0.1406  0.1695
  399loPI   C3B 6383   7.361   3.640   9.318  0.1491 -0.2517 -0.1177
  399loPI   C4B 6384   7.347   3.693   8.883 -0.1357 -0.0545 -0.1461
  400loPI    C1 6385  17.383   9.938  11.081 -0.0254 -0.0843 -0.1666
  400loPI    C2 6386  17.190   9.651  11.282 -0.0736 -0.0255 -0.1284
  400loPI    C3 6387  17.483   9.858  11.460  0.0890 -0.1779 -0.2163
  400loPI   PO4 6388  17.158   9.899  10.826  0.0346 -0.0919  0.2989
  400loPI   GL1 6389  17.085  10.103  10.570  0.1991 -0.0792  0.3655
  400loPI   GL2 6390  16.805   9.856  10.434 -0.0393  0.1003 -0.2174
  400loPI   C1A 6391  17.302  10.325  10.155  0.1849 -0.3210  0.1095
  400loPI   C2A 6392  17.069  10.343   9.812  0.0188 -0.0953 -0.2518
  400loPI   C3A 6393  17.133  10.259   9.423  0.0333  0.3884 -0.2238
  400loPI   C4A 6394  17.146  10.238   8.970  0.0428  0.0726  0.0189
  400loPI   C5A 6395  17.141  10.011   8.588  0.0892 -0.1487 -0.0882
  400loPI   C6A 6396  17.447   9.733   8.427  0.1985 -0.0652 -0.2665
  400loPI   C1B 6397  16.718  10.073  10.045  0.0643  0.3351 -0.3116
  400loPI   C2B 6398  16.725  10.008   9.624  0.0482 -0.1437 -0.1110
  400loPI   C3B 6399  16.843   9.899   9.260  0.2620  0.1596  0.3525
  400loPI   C4B 6400  16.774   9.885   8.856  0.1121  0.0174 -0.3818
  401loPI    C1 6401  15.666   5.024  10.373 -0.0247 -0.1238 -0.0712
  401loPI    C2 6402  15.705   4.700  10.141 -0.0549 -0.2169  0.0526
  401loPI    C3 6403  15.867   4.705  10.507  0.3277  0.0750 -0.1131
  401loPI   PO4 6404  15.430   5.151  10.196 -0.1354 -0.0909 -0.5207
  401loPI   GL1 6405  15.170   5.130   9.861  0.1107  0.3320  0.0088
  401loPI   GL2 6406  14.869   5.169   9.849 -0.3757 -0.1533  0.3140
  401loPI   C1A 6407  15.188   5.474   9.528 -0.2405  0.1087 -0.0134
  401loPI   C2A 6408  15.217   5.511   9.059  0.0310 -0.1068 -0.1406
  401loPI   C3A 6409  15.129   5.590   8.665  0.1262 -0.1539  0.0331
  401loPI   C4A 6410  14.855   5.663   8.255 -0.2945 -0.0445  0.1222
  401loPI   C5A 6411  14.518   5.868   8.330  0.0704  0.2774  0.2538
  401loPI   C6A 6412  14.332   6.254   8.373  0.0910 -0.1211  0.0342
  401loPI   C1B 6413  14.872   5.185   9.336 -0.0219 -0.3199 -0.3948
  401loPI   C2B 6414  14.827   5.221   8.872  0.0674  0.1219  0.3161
  401loPI   C3B 6415  14.716   5.213   8.464  0.0840 -0.2001 -0.1174
  401loPI   C4B 6416  14.563   5.312   8.012  0.1139 -0.2972  0.1233
  402loPI    C1 6417   0.131  11.922  11.314 -0.1946  0.0553  0.0615
  402loPI    C2 6418   0.074  11.565  11.486 -0.0463  0.0085  0.0159
  402loPI    C3 6419   0.088  11.896  11.711  0.0283 -0.0387  0.0808
  402loPI   PO4 6420  -0.108  11.876  11.045 -0.0372  0.1587 -0.2015
  402loPI   GL1 6421  -0.096  11.656  10.611 -0.1385  0.2473 -0.1160
  402loPI   GL2 6422   0.257  11.724  10.613  0.0004 -0.1006  0.4263
  402loPI   C1A 6423  -0.369  11.618  10.354 -0.1077  0.4167 -0.2633
  402loPI   C2A 6424  -0.411  11.639   9.935 -0.1571  0.2300 -0.1976
  402loPI   C3A 6425  -0.572  11.617   9.609 -0.2104 -0.0300 -0.0308
  402loPI   C4A 6426  -0.463  11.694   9.202 -0.2156 -0.2888  0.0736
  402loPI   C5A 6427  -0.262  11.940   8.782 -0.3035 -0.2756  0.1000
  402loPI   C6A 6428   0.093  12.125   8.670  0.5345  0.1755 -0.1837
  402loPI   C1B 6429   0.345  11.892  10.232 -0.1377  0.1926  0.1613
  402loPI   C2B 6430   0.476  11.706   9.810  0.0147  0.0238  0.1655
  402loPI   C3B 6431   0.409  11.814   9.431  0.2634 -0.1353 -0.5180
  402loPI   C4B 6432   0.411  11.899   8.970  0.1082 -0.0124 -0.0964
  403loPI    C1 6433   8.221   5.061  11.478 -0.1417  0.0792 -0.0509
  403loPI    C2 6434   8.614   5.057  11.403 -0.1315 -0.0799  0.0057
  403loPI    C3 6435   8.481   5.133  11.773 -0.1507 -0.1160  0.0063
  403loPI   PO4 6436   8.110   5.152  11.256  0.2726 -0.2199  0.4098
  403loPI   GL1 6437   8.052   4.987  10.710  0.0134  0.1624 -0.1101
  403loPI   GL2 6438   7.716   4.889  10.572  0.1037  0.0699 -0.1061
  403loPI   C1A 6439   8.032   5.222  10.320 -0.0150 -0.0699 -0.0544
  403loPI   C2A 6440   8.075   5.306   9.973  0.0790 -0.2273 -0.0782
  403loPI   C3A 6441   8.060   5.378   9.463  0.1133 -0.1054 -0.4194
  403loPI   C4A 6442   8.043   5.612   9.124 -0.0005  0.1699  0.1386
  403loPI   C5A 6443   8.142   5.905   8.852 -0.1691 -0.0175 -0.0569
  403loPI   C6A 6444   8.433   6.299   8.752 -0.0486 -0.0550 -0.0698
  403loPI   C1B 6445   7.638   5.047  10.122  0.0193 -0.2115  0.1571
  403loPI   C2B 6446   7.630   5.146   9.719 -0.1101  0.2287 -0.0429
  403loPI   C3B 6447   7.512   5.200   9.450 -0.0892 -0.1417 -0.3560
  403loPI   C4B 6448   7.534   5.386   9.015 -0.1452  0.0757 -0.0253
  404loPI    C1 6449   5.962  10.447  11.061  0.0715  0.0115 -0.0328
  404loPI    C2 6450   6.210  10.761  11.056  0.1042 -0.0114  0.1029
  404loPI    C3 6451   6.142  10.565  11.398 -0.0283 -0.0636  0.0476
  404loPI   PO4 6452   6.050  10.276  10.926 -0.1165  0.0981 -0.2281
  404loPI   GL1 6453   6.147  10.151  10.592 -0.1647 -0.0805  0.1143
  404loPI   GL2 6454   6.385   9.986  10.415 -0.0696 -0.1766  0.1243
  404loPI   C1A 6455   5.964  10.317  10.261  0.2548  0.2702  0.1632
  404loPI   C2A 6456   5.990  10.380   9.753  0.1619  0.1562  0.0533
  404loPI   C3A 6457   5.940  10.497   9.378  0.0287 -0.0845 -0.3796
  404loPI   C4A 6458   5.935  10.308   9.063 -0.1259  0.1122  0.1783
  404loPI   C5A 6459   6.058  10.235   8.601 -0.2406  0.1752 -0.0198
  404loPI   C6A 6460   6.181  10.082   8.156  0.0503  0.1607 -0.1085
  404loPI   C1B 6461   6.286   9.937  10.010 -0.2238 -0.0724  0.0989
  404loPI   C2B 6462   6.386   9.991   9.575  0.0708 -0.2754  0.2482
  404loPI   C3B 6463   6.502  10.215   9.259 -0.0367  0.4342 -0.2034
  404loPI   C4B 6464   6.641  10.453   8.883  0.2299  0.1311  0.0019
  405loPI    C1 6465  12.520   6.717  10.949  0.1541 -0.0181  0.0035
  405loPI    C2 6466  12.421   6.408  10.713 -0.0384  0.0686 -0.0316
  405loPI    C3 6467  12.454   6.356  11.108  0.1786 -0.0527 -0.0645
  405loPI   PO4 6468  12.346   6.937  10.770 -0.0577  0.1569 -0.0613
  405loPI   GL1 6469  12.528   6.897  10.395 -0.1382  0.1122 -0.1212
  405loPI   GL2 6470  12.369   7.071  10.259 -0.1129 -0.0233 -0.1269
  405loPI   C1A 6471  12.746   6.952   9.965  0.1113  0.3573 -0.3301
  405loPI   C2A 6472  12.747   6.915   9.531 -0.0293  0.1535 -0.2171
  405loPI   C3A 6473  12.572   6.960   9.009 -0.2098  0.1030 -0.1762
  405loPI   C4A 6474  12.337   7.170   8.606  0.0053 -0.0002 -0.0459
  405loPI   C5A 6475  12.054   7.354   8.301 -0.1696 -0.0700 -0.1145
  405loPI   C6A 6476  11.735   7.716   8.312 -0.3244  0.0160 -0.0629
  405loPI   C1B 6477  12.265   7.123   9.873 -0.1803 -0.0122  0.0377
  405loPI   C2B 6478  12.227   7.199   9.349  0.0298  0.0194  0.0362
  405loPI   C3B 6479  12.006   7.063   8.949 -0.1315 -0.5309 -0.2305
  405loPI   C4B 6480  11.913   6.980   8.558  0.2996 -0.2142 -0.4262
  406loPI    C1 6481   9.926  12.809  11.217  0.0911  0.0084 -0.0753
  406loPI    C2 6482   9.866  12.529  11.497  0.0146  0.2916  0.1975
  406loPI    C3 6483   9.766  12.910  11.570 -0.0872  0.3564 -0.2504
  406loPI   PO4 6484  10.087  12.647  11.064 -0.0641 -0.0266 -0.0146
  406loPI   GL1 6485  10.038  12.684  10.591 -0.0159  0.0105 -0.0983
  406loPI   GL2 6486  10.329  12.774  10.665 -0.1539  0.0595 -0.0242
  406loPI   C1A 6487  10.109  12.594  10.185  0.2215  0.0094  0.3205
  406loPI   C2A 6488  10.179  12.630   9.796 -0.0500 -0.1671 -0.1507
  406loPI   C3A 6489  10.231  12.582   9.359 -0.1174 -0.1568  0.0338
  406loPI   C4A 6490  10.178  12.512   8.908  0.1705 -0.1059  0.2812
  406loPI   C5A 6491  10.044  12.223   8.501 -0.0505 -0.1575  0.1398
  406loPI   C6A 6492   9.755  12.079   8.313 -0.2335 -0.0363 -0.1315
  406loPI   C1B 6493  10.543  12.891  10.250  0.1582 -0.1384 -0.2224
  406loPI   C2B 6494  10.634  12.952   9.845 -0.0615 -0.1303  0.1133
  406loPI   C3B 6495  10.542  12.933   9.445  0.0949 -0.4126 -0.0314
  406loPI   C4B 6496  10.559  12.904   8.940  0.0875  0.1309  0.3225
  407loPI    C1 6497  17.711   0.656  10.723 -0.0259  0.0458  0.0301
  407loPI    C2 6498  17.878   0.595  11.081  0.0568  0.2056  0.0198
  407loPI    C3 6499  17.482   0.561  11.037  0.0420  0.2224  0.1349
  407loPI   PO4 6500  17.824   0.827  10.655 -0.2869 -0.0933  0.0044
  407loPI   GL1 6501  17.821   1.019  10.315  0.2352 -0.1404  0.1181
  407loPI   GL2 6502  17.540   1.236  10.179 -0.0756 -0.1395  0.2399
  407loPI   C1A 6503  17.941   0.930   9.938  0.0338  0.0669 -0.1725
  407loPI   C2A 6504  17.903   1.161   9.453  0.0906  0.0926  0.1162
  407loPI   C3A 6505  18.148   0.957   9.231  0.0357  0.1642 -0.3856
  407loPI   C4A 6506  18.299   1.085   8.783  0.2250 -0.0661 -0.0410
  407loPI   C5A 6507  18.651   1.070   8.553 -0.0762 -0.6097  0.0797
  407loPI   C6A 6508  19.099   1.064   8.575  0.2202 -0.1403  0.2112
  407loPI   C1B 6509  17.435   0.970   9.775  0.0798  0.0688  0.0606
  407loPI   C2B 6510  17.328   0.852   9.384 -0.1342  0.0079  0.4283
  407loPI   C3B 6511  17.654   0.773   9.188  0.3907  0.0545  0.0909
  407loPI   C4B 6512  17.955   0.426   8.935 -0.1239  0.0946 -0.0928
  408loPI    C1 6513   2.120   1.205  10.502 -0.2401 -0.1000  0.0890
  408loPI    C2 6514   2.291   1.386  10.816 -0.1489 -0.0152 -0.0087
  408loPI    C3 6515   2.108   1.033  10.863 -0.2521  0.0606  0.1661
  408loPI   PO4 6516   2.318   1.125  10.288 -0.0261 -0.1132  0.2411
  408loPI   GL1 6517   2.588   0.844  10.146 -0.1084  0.0228  0.0513
  408loPI   GL2 6518   2.810   1.118   9.964 -0.0054  0.1032 -0.3804
  408loPI   C1A 6519   2.747   0.591   9.798  0.3632 -0.0021 -0.2138
  408loPI   C2A 6520   2.903   0.658   9.436 -0.2943 -0.1096  0.1881
  408loPI   C3A 6521   2.865   0.474   9.048  0.1435  0.1668 -0.2233
  408loPI   C4A 6522   2.795   0.277   8.731  0.0739  0.3020 -0.1715
  408loPI   C5A 6523   2.785  -0.175   8.549  0.2348  0.1225  0.0731
  408loPI   C6A 6524   2.923  -0.580   8.488 -0.0430 -0.1658  0.0402
  408loPI   C1B 6525   2.864   1.264   9.542  0.0863 -0.2101  0.0208
  408loPI   C2B 6526   3.005   1.146   9.181  0.1570 -0.1093 -0.4076
  408loPI   C3B 6527   3.102   1.210   8.751  0.1493  0.1911  0.1753
  408loPI   C4B 6528   3.427   1.205   8.367  0.1568  0.0337  0.2987
  409loPI    C1 6529   3.001  14.482  11.075 -0.0994 -0.1366 -0.0898
  409loPI    C2 6530   3.337  14.329  11.227  0.0292  0.0992 -0.1330
  409loPI    C3 6531   2.986  14.155  11.306  0.1287  0.0221  0.1554
  409loPI   PO4 6532   3.027  14.531  10.739 -0.0372  0.1416 -0.2661
  409loPI   GL1 6533   3.170  14.276  10.334 -0.1053 -0.1251 -0.3035
  409loPI   GL2 6534   3.133  14.666  10.258  0.0834 -0.2207  0.0296
  409loPI   C1A 6535   3.203  14.194   9.861  0.2871 -0.1104 -0.0118
  409loPI   C2A 6536   3.226  14.450   9.377 -0.0906 -0.0195  0.0183
  409loPI   C3A 6537   3.063  14.415   8.883 -0.1151 -0.1027  0.2050
  409loPI   C4A 6538   2.896  14.780   8.633 -0.0671  0.0343 -0.1622
  409loPI   C5A 6539   2.912  14.906   8.310  0.0210  0.0779 -0.0524
  409loPI   C6A 6540   3.168  15.225   8.042  0.3461  0.1990 -0.1013
  409loPI   C1B 6541   3.110  14.733   9.855 -0.0891  0.0277 -0.0772
  409loPI   C2B 6542   2.973  14.884   9.606  0.2241  0.0136  0.2203
  409loPI   C3B 6543   3.025  15.293   9.339 -0.3342 -0.0757 -0.1568
  409loPI   C4B 6544   3.434  15.344   9.082 -0.0600 -0.0539  0.1043
  410loPI    C1 6545   4.290   9.467  10.892  0.2051 -0.0922 -0.1869
  410loPI    C2 6546   4.410   9.295  11.232  0.1788 -0.2032 -0.2334
  410loPI    C3 6547   4.091   9.152  11.037 -0.1310  0.1866 -0.0278
  410loPI   PO4 6548   4.513   9.538  10.734  0.2434 -0.0206 -0.4158
  410loPI   GL1 6549   4.563   9.403  10.289 -0.0939 -0.1254 -0.2131
  410loPI   GL2 6550   4.816   9.248  10.143 -0.1611 -0.1817  0.2472
  410loPI   C1A 6551   4.467   9.696   9.952  0.0156 -0.0081  0.0431
  410loPI   C2A 6552   4.400   9.715   9.625 -0.3475  0.1957 -0.1941
  410loPI   C3A 6553   4.444   9.764   9.117  0.1711  0.2022  0.0567
  410loPI   C4A 6554   4.504   9.924   8.739 -0.2385 -0.0846  0.0651
  410loPI   C5A 6555   4.425  10.108   8.289  0.1148 -0.0784 -0.0758
  410loPI   C6A 6556   4.713   9.962   7.905  0.0490  0.3463  0.2263
  410loPI   C1B 6557   4.824   9.434   9.616 -0.0512  0.1814  0.1181
  410loPI   C2B 6558   4.983   9.439   9.238 -0.0414  0.0169  0.1723
  410loPI   C3B 6559   4.813   9.531   8.885  0.1970 -0.0788 -0.2863
  410loPI   C4B 6560   4.874   9.505   8.491  0.1232  0.2685  0.4421
  411loPI    C1 6561   6.407  11.219  11.158 -0.0368 -0.1799 -0.0721
  411loPI    C2 6562   6.589  11.360  11.486  0.0734  0.1411 -0.2656
  411loPI    C3 6563   6.484  10.974  11.464  0.2151  0.0798  0.0777
  411loPI   PO4 6564   6.500  11.395  10.925  0.0835  0.3737  0.0892
  411loPI   GL1 6565   6.397  11.607  10.510  0.2749  0.1699 -0.0797
  411loPI   GL2 6566   6.677  11.456  10.442  0.0275  0.0247 -0.1480
  411loPI   C1A 6567   6.361  11.400  10.112  0.0997  0.0183  0.0507
  411loPI   C2A 6568   6.314  11.510   9.695  0.3201 -0.3589  0.0182
  411loPI   C3A 6569   6.297  11.605   9.297  0.0852 -0.2580 -0.2028
  411loPI   C4A 6570   6.358  11.931   9.013  0.1064 -0.0129  0.0919
  411loPI   C5A 6571   6.596  12.272   8.982  0.1016 -0.1415  0.0843
  411loPI   C6A 6572   6.664  12.557   9.281  0.3065  0.0506  0.4085
  411loPI   C1B 6573   6.914  11.711  10.258 -0.0609  0.2736 -0.1995
  411loPI   C2B 6574   7.165  12.121  10.193  0.1747 -0.0004 -0.1201
  411loPI   C3B 6575   6.907  12.615  10.122 -0.0263 -0.0430  0.0038
  411loPI   C4B 6576   6.597  12.700   9.801  0.1891 -0.1151  0.4011
  412loPI    C1 6577   7.197   0.041  11.063  0.0095 -0.0594 -0.0757
  412loPI    C2 6578   7.359   0.363  11.237 -0.0515 -0.0991  0.0561
  412loPI    C3 6579   6.982   0.376  11.103 -0.1458 -0.1990  0.3060
  412loPI   PO4 6580   7.473   0.003  10.837  0.3432  0.1927 -0.1695
  412loPI   GL1 6581   7.492   0.019  10.382 -0.0856 -0.0923 -0.1725
  412loPI   GL2 6582   7.234   0.099  10.407  0.0440 -0.2087  0.2612
  412loPI   C1A 6583   7.592   0.094   9.976  0.0358 -0.2433 -0.0541
  412loPI   C2A 6584   7.550   0.087   9.518  0.0870 -0.0754  0.0768
  412loPI   C3A 6585   7.420   0.286   9.205  0.1510 -0.1606 -0.1523
  412loPI   C4A 6586   7.438   0.284   8.710  0.2277  0.1982  0.1920
  412loPI   C5A 6587   7.225   0.421   8.253 -0.0510  0.0799 -0.0093
  412loPI   C6A 6588   7.112   0.776   8.100 -0.0216 -0.0594 -0.0426
  412loPI   C1B 6589   7.122   0.266  10.077 -0.0562 -0.2007 -0.3643
  412loPI   C2B 6590   7.031   0.394   9.716 -0.0420 -0.0701 -0.0008
  412loPI   C3B 6591   7.008   0.476   9.334  0.0865  0.0667 -0.1517
  412loPI   C4B 6592   7.003   0.604   8.914  0.0353  0.1390  0.3272
  413loPI    C1 6593   9.922   8.234  11.156  0.0096 -0.1039  0.0729
  413loPI    C2 6594   9.923   7.997  11.479  0.1167  0.1232  0.2424
  413loPI    C3 6595   9.793   8.374  11.508 -0.0457  0.0909 -0.0238
  413loPI   PO4 6596   9.783   8.173  11.032 -0.0218  0.1264  0.1187
  413loPI   GL1 6597   9.776   8.051  10.564 -0.0774  0.2929  0.1881
  413loPI   GL2 6598  10.065   8.256  10.345  0.0440 -0.0207 -0.0589
  413loPI   C1A 6599   9.526   8.381  10.293  0.2075  0.2646  0.1211
  413loPI   C2A 6600   9.370   8.456   9.934  0.2226  0.0357  0.1351
  413loPI   C3A 6601   9.306   8.749   9.648 -0.0365 -0.1253  0.2360
  413loPI   C4A 6602   9.273   8.766   9.279 -0.2674  0.2112  0.0421
  413loPI   C5A 6603   8.908   8.855   8.944 -0.2144 -0.1890  0.1237
  413loPI   C6A 6604   8.999   9.087   8.511 -0.1428  0.2263 -0.0583
  413loPI   C1B 6605   9.942   8.689  10.139  0.0357  0.3498  0.2828
  413loPI   C2B 6606   9.786   8.761   9.795  0.0140 -0.3567 -0.0343
  413loPI   C3B 6607   9.636   9.165   9.691 -0.1570  0.0562 -0.2552
  413loPI   C4B 6608   9.590   9.418   9.375 -0.1308  0.0761 -0.3796
  414loPI    C1 6609  12.595  12.536  11.515 -0.0044  0.1627  0.0014
  414loPI    C2 6610  12.468  12.899  11.626 -0.1561  0.1025  0.0276
  414loPI    C3 6611  12.504  12.607  11.898 -0.0982  0.0793 -0.0050
  414loPI   PO4 6612  12.465  12.454  11.276  0.0319  0.2067 -0.0525
  414loPI   GL1 6613  12.544  12.579  10.830 -0.1152  0.2897  0.1634
  414loPI   GL2 6614  12.890  12.505  10.987  0.0969  0.1104 -0.1512
  414loPI   C1A 6615  12.512  12.624  10.401 -0.2500  0.2154  0.0795
  414loPI   C2A 6616  12.455  12.657  10.026 -0.0316 -0.3012  0.1104
  414loPI   C3A 6617  12.448  12.745   9.698 -0.0477  0.1171 -0.0039
  414loPI   C4A 6618  12.546  12.801   9.315  0.1910  0.2894  0.1753
  414loPI   C5A 6619  12.676  12.713   8.916 -0.0979 -0.0203  0.1175
  414loPI   C6A 6620  12.667  12.335   8.633  0.0243 -0.0779 -0.0061
  414loPI   C1B 6621  12.944  12.393  10.552 -0.0888  0.1451  0.0388
  414loPI   C2B 6622  12.951  12.507  10.104 -0.1893  0.1301 -0.3798
  414loPI   C3B 6623  12.913  12.577   9.756 -0.0958  0.0447  0.1061
  414loPI   C4B 6624  13.023  12.608   9.332  0.0994 -0.0376 -0.4521
  415loPI    C1 6625  11.274  10.317  11.551  0.2874 -0.0706 -0.1946
  415loPI    C2 6626  11.593  10.508  11.699  0.2616 -0.2173  0.0581
  415loPI    C3 6627  11.284  10.421  11.937  0.1139 -0.2466 -0.1410
  415loPI   PO4 6628  11.210  10.511  11.349 -0.1029  0.1910  0.1715
  415loPI   GL1 6629  11.200  10.365  10.926  0.0138 -0.0748 -0.1336
  415loPI   GL2 6630  10.936  10.234  10.892  0.2092  0.0283 -0.1842
  415loPI   C1A 6631  11.305  10.628  10.564 -0.0776  0.1333  0.1486
  415loPI   C2A 6632  11.486  10.716  10.165  0.3640  0.1103  0.0579
  415loPI   C3A 6633  11.498  10.772   9.746 -0.1115  0.2717 -0.0689
  415loPI   C4A 6634  11.540  10.809   9.285 -0.1459 -0.0015  0.3217
  415loPI   C5A 6635  11.500  10.891   8.860 -0.0885  0.0562 -0.0257
  415loPI   C6A 6636  11.817  10.924   8.513 -0.1651 -0.0646  0.0892
  415loPI   C1B 6637  10.920  10.229  10.471  0.0820 -0.2949 -0.0747
  415loPI   C2B 6638  10.839  10.280   9.995 -0.0283 -0.1280  0.0538
  415loPI   C3B 6639  11.099  10.356   9.741  0.4191 -0.1041 -0.1143
  415loPI   C4B 6640  11.219  10.479   9.346 -0.1222 -0.1630  0.1016
  416loPI    C1 6641   9.188  12.424  11.146 -0.0273  0.2036 -0.0123
  416loPI    C2 6642   9.389  12.726  11.315  0.1661  0.1114 -0.0752
  416loPI    C3 6643   9.335  12.385  11.516 -0.3180  0.2919  0.1154
  416loPI   PO4 6644   9.181  12.422  10.887 -0.1252 -0.0350 -0.1791
  416loPI   GL1 6645   9.327  12.368  10.538 -0.1185 -0.1536 -0.0357
  416loPI   GL2 6646   9.683  12.309  10.476  0.2768 -0.1027 -0.2969
  416loPI   C1A 6647   9.238  12.332  10.144  0.0204 -0.2818  0.0142
  416loPI   C2A 6648   9.282  12.404   9.721  0.0668  0.4276  0.2093
  416loPI   C3A 6649   9.351  12.304   9.278 -0.1673  0.1420 -0.2704
  416loPI   C4A 6650   9.242  12.346   8.814 -0.1889  0.2178  0.3048
  416loPI   C5A 6651   9.345  12.441   8.428 -0.2969  0.0229 -0.3319
  416loPI   C6A 6652   9.379  12.200   8.037  0.0165 -0.1421  0.1799
  416loPI   C1B 6653   9.718  12.320  10.059  0.1940  0.1353  0.1254
  416loPI   C2B 6654   9.709  12.217   9.622 -0.0781 -0.1252 -0.1232
  416loPI   C3B 6655   9.920  12.231   9.291  0.0414  0.1772  0.1602
  416loPI   C4B 6656   9.700  12.158   8.885 -0.3260  0.4099 -0.1503
  417loPI    C1 6657  15.528   4.374  10.653  0.0269 -0.0416 -0.0541
  417loPI    C2 6658  15.324   4.642  10.436 -0.0514 -0.1173 -0.0744
  417loPI    C3 6659  15.258   4.611  10.829 -0.0660 -0.1291 -0.0778
  417loPI   PO4 6660  15.599   4.227  10.421  0.4593  0.0291 -0.0760
  417loPI   GL1 6661  15.435   4.253  10.105 -0.0696 -0.1512  0.1377
  417loPI   GL2 6662  15.134   3.982  10.033 -0.1251  0.0301 -0.2322
  417loPI   C1A 6663  15.413   4.361   9.739 -0.1030  0.3857 -0.0292
  417loPI   C2A 6664  15.595   4.463   9.379 -0.0770  0.1178 -0.0443
  417loPI   C3A 6665  15.471   4.556   8.949 -0.1129 -0.0083  0.1454
  417loPI   C4A 6666  15.490   4.566   8.533  0.2088  0.2485 -0.2177
  417loPI   C5A 6667  15.738   4.455   8.218 -0.0972  0.3590 -0.2286
  417loPI   C6A 6668  15.862   4.205   7.868  0.0296  0.1376 -0.0785
  417loPI   C1B 6669  15.215   3.948   9.616  0.1847 -0.2328 -0.2016
  417loPI   C2B 6670  15.212   4.209   9.216  0.0166 -0.1724 -0.1707
  417loPI   C3B 6671  15.171   4.188   8.740 -0.2918  0.0202  0.0901
  417loPI   C4B 6672  15.540   4.066   8.513  0.1568 -0.2895 -0.0126
  418loPI    C1 6673  11.346   2.377  10.835 -0.1091  0.0607  0.0593
  418loPI    C2 6674  11.292   2.013  10.993 -0.0610 -0.0030 -0.0701
  418loPI    C3 6675  11.273   2.337  11.227 -0.3420 -0.0710  0.0047
  418loPI   PO4 6676  11.325   2.383  10.565 -0.1688 -0.1651 -0.0086
  418loPI   GL1 6677  11.530   2.347  10.205 -0.1682  0.2970  0.1992
  418loPI   GL2 6678  11.313   2.562  10.139 -0.1393 -0.2475  0.1326
  418loPI   C1A 6679  11.517   2.214   9.882 -0.1298  0.2497 -0.3089
  418loPI   C2A 6680  11.396   2.314   9.488 -0.3217 -0.0143  0.0298
  418loPI   C3A 6681  11.435   2.219   9.079  0.0760  0.0494 -0.2983
  418loPI   C4A 6682  11.632   2.177   8.684 -0.0934  0.2097 -0.2423
  418loPI   C5A 6683  11.908   1.835   8.421  0.0562 -0.0218 -0.0794
  418loPI   C6A 6684  12.048   1.438   8.286  0.0603 -0.1881 -0.1015
  418loPI   C1B 6685  11.041   2.472   9.817 -0.0370 -0.0436 -0.0419
  418loPI   C2B 6686  10.981   2.492   9.425  0.0467  0.4141 -0.2077
  418loPI   C3B 6687  10.995   2.490   9.015  0.2480 -0.1576  0.0136
  418loPI   C4B 6688  11.118   2.297   8.589  0.3373  0.0945 -0.0582
  419loPI    C1 6689   7.444   6.010  11.756  0.1011 -0.1459 -0.2693
  419loPI    C2 6690   7.583   6.350  11.598 -0.2505  0.1205 -0.0209
  419loPI    C3 6691   7.716   6.226  11.954  0.0914 -0.1602 -0.2401
  419loPI   PO4 6692   7.467   5.872  11.499 -0.0899  0.0934 -0.0070
  419loPI   GL1 6693   7.625   6.068  11.102  0.2051 -0.2384  0.1512
  419loPI   GL2 6694   7.539   6.205  10.800 -0.1799 -0.0212 -0.1681
  419loPI   C1A 6695   7.636   5.714  10.803 -0.1305 -0.1859  0.2332
  419loPI   C2A 6696   7.715   5.578  10.385 -0.0897 -0.0857  0.0260
  419loPI   C3A 6697   7.624   5.648   9.937 -0.1284 -0.1260 -0.1749
  419loPI   C4A 6698   7.679   5.702   9.487  0.1780  0.1375 -0.3015
  419loPI   C5A 6699   7.578   5.896   9.078 -0.1064  0.1555  0.1411
  419loPI   C6A 6700   7.479   6.123   8.719 -0.0308 -0.2198  0.0193
  419loPI   C1B 6701   7.174   6.436  10.630 -0.1227  0.3294  0.1245
  419loPI   C2B 6702   7.300   6.446  10.149  0.0031 -0.0501 -0.0834
  419loPI   C3B 6703   7.415   6.496   9.637  0.2246  0.1492  0.2533
  419loPI   C4B 6704   7.458   6.483   9.221 -0.2029 -0.0874 -0.4095
  420loPI    C1 6705  13.411  11.576  11.475 -0.0911 -0.1257  0.0970
  420loPI    C2 6706  13.699  11.439  11.717  0.1258 -0.0871 -0.1345
  420loPI    C3 6707  13.323  11.471  11.851  0.2061 -0.2441  0.1365
  420loPI   PO4 6708  13.449  11.462  11.187  0.0367 -0.0910  0.3291
  420loPI   GL1 6709  13.686  11.509  10.843 -0.0112 -0.0710  0.0339
  420loPI   GL2 6710  13.651  11.829  10.834  0.0251 -0.3044 -0.2073
  420loPI   C1A 6711  13.653  11.325  10.480 -0.0850  0.3345 -0.0577
  420loPI   C2A 6712  13.665  11.277  10.060  0.1524  0.0429  0.1329
  420loPI   C3A 6713  13.648  11.397   9.663 -0.0253 -0.1195  0.0675
  420loPI   C4A 6714  13.669  11.349   9.228 -0.0765 -0.2829 -0.3184
  420loPI   C5A 6715  13.844  11.407   8.834 -0.0262 -0.2447  0.1381
  420loPI   C6A 6716  13.697  11.761   8.515  0.1590  0.1987  0.1458
  420loPI   C1B 6717  13.552  11.803  10.417  0.1277  0.0739 -0.0514
  420loPI   C2B 6718  13.547  11.890   9.930  0.3736 -0.1764 -0.1119
  420loPI   C3B 6719  13.586  11.831   9.416 -0.2879 -0.0583 -0.4071
  420loPI   C4B 6720  13.483  11.870   8.971  0.2841  0.0705 -0.0394
  421loPI    C1 6721   1.183   0.876  10.812 -0.0498  0.1919 -0.0284
  421loPI    C2 6722   0.852   1.065  10.933  0.0917  0.4245  0.0021
  421loPI    C3 6723   1.088   0.883  11.200 -0.2512 -0.1482 -0.0673
  421loPI   PO4 6724   1.104   0.692  10.554 -0.2665  0.2199  0.0046
  421loPI   GL1 6725   1.251   0.541  10.238  0.1518  0.0566 -0.2316
  421loPI   GL2 6726   0.998   0.235  10.184 -0.4558  0.0044 -0.0118
  421loPI   C1A 6727   1.674   0.488   9.931  0.1891 -0.1487 -0.1014
  421loPI   C2A 6728   1.806   0.419   9.541 -0.3354 -0.0015  0.0995
  421loPI   C3A 6729   1.575   0.466   9.227  0.0579  0.1393  0.2123
  421loPI   C4A 6730   1.204   0.521   9.037 -0.6567  0.2650  0.0662
  421loPI   C5A 6731   1.002   0.927   9.013 -0.0863 -0.0963  0.1609
  421loPI   C6A 6732   0.763   1.136   9.165 -0.1235 -0.1267 -0.1167
  421loPI   C1B 6733   0.850   0.355   9.852 -0.2821 -0.1036  0.3261
  421loPI   C2B 6734   0.898   0.142   9.449  0.2810  0.2430 -0.0351
  421loPI   C3B 6735   0.926   0.045   9.097 -0.0935 -0.1807  0.0880
  421loPI   C4B 6736   1.075   0.086   8.677 -0.0276 -0.0465 -0.2882
  422loPI    C1 6737   6.457   6.792  11.386 -0.1930 -0.0124  0.0649
  422loPI    C2 6738   6.327   6.416  11.342 -0.0270 -0.0722  0.0769
  422loPI    C3 6739   6.085   6.695  11.496 -0.1725 -0.1591  0.0076
  422loPI   PO4 6740   6.531   6.865  11.153  0.0194  0.0777 -0.0830
  422loPI   GL1 6741   6.571   7.047  10.742 -0.0263  0.0223  0.3105
  422loPI   GL2 6742   6.740   6.785  10.660 -0.1363 -0.3028  0.1407
  422loPI   C1A 6743   6.457   7.085  10.314  0.0364  0.1677 -0.2382
  422loPI   C2A 6744   6.536   7.180  10.000 -0.3200  0.1473 -0.1184
  422loPI   C3A 6745   6.504   7.260   9.609  0.3193 -0.1678  0.1227
  422loPI   C4A 6746   6.539   7.294   9.221 -0.0303  0.1517 -0.1488
  422loPI   C5A 6747   6.590   7.213   8.816 -0.3005  0.0134  0.1784
  422loPI   C6A 6748   6.685   6.781   8.638  0.1917  0.0626  0.1135
  422loPI   C1B 6749   6.966   6.746  10.308  0.0998  0.1954  0.3480
  422loPI   C2B 6750   6.891   6.864   9.843 -0.2024 -0.1513  0.1038
  422loPI   C3B 6751   7.009   6.817   9.484 -0.0880 -0.1037  0.1011
  422loPI   C4B 6752   6.968   6.934   9.156 -0.3633 -0.0096 -0.0381
  423loPI    C1 6753  11.263   4.767  10.897 -0.0558 -0.1343  0.0340
  423loPI    C2 6754  11.267   4.382  11.004 -0.0654 -0.1644 -0.0731
  423loPI    C3 6755  11.526   4.638  11.170 -0.2003 -0.1739  0.1561
  423loPI   PO4 6756  11.137   4.739  10.681  0.2094  0.1167 -0.3915
  423loPI   GL1 6757  11.008   4.446  10.415  0.0143 -0.1547 -0.0933
  423loPI   GL2 6758  11.180   4.211  10.538 -0.2740 -0.0864  0.3839
  423loPI   C1A 6759  10.740   4.422  10.166 -0.0248 -0.0933 -0.0772
  423loPI   C2A 6760  10.606   4.517   9.704 -0.0367  0.3895 -0.3518
  423loPI   C3A 6761  10.611   4.805   9.409  0.2817 -0.1380 -0.1682
  423loPI   C4A 6762  10.569   4.804   8.962 -0.0254  0.1971 -0.0245
  423loPI   C5A 6763  10.825   4.649   8.501 -0.1151  0.1393 -0.0291
  423loPI   C6A 6764  11.066   4.451   8.161 -0.2023 -0.1916 -0.1130
  423loPI   C1B 6765  11.190   3.938  10.083 -0.0628 -0.3162  0.2239
  423loPI   C2B 6766  11.096   3.922   9.641 -0.0745 -0.0435 -0.0295
  423loPI   C3B 6767  11.105   3.834   9.229 -0.2207 -0.1605 -0.1083
  423loPI   C4B 6768  11.311   3.772   8.793 -0.0889  0.3367  0.0424
  424loPI    C1 6769  11.568  14.258  11.247  0.0743 -0.0026  0.0307
  424loPI    C2 6770  11.281  14.444  11.455  0.1204  0.1598 -0.0495
  424loPI    C3 6771  11.572  14.248  11.647 -0.1367 -0.1525  0.0309
  424loPI   PO4 6772  11.442  14.039  11.013  0.0486  0.4509 -0.0194
  424loPI   GL1 6773  11.603  13.886  10.615  0.0613  0.0530  0.3502
  424loPI   GL2 6774  11.698  13.515  10.674 -0.0232 -0.2701  0.0577
  424loPI   C1A 6775  11.822  13.831  10.255 -0.1193 -0.1418 -0.0327
  424loPI   C2A 6776  11.756  13.825   9.822  0.0073 -0.1528  0.1170
  424loPI   C3A 6777  11.760  13.801   9.357 -0.2154  0.3561 -0.0982
  424loPI   C4A 6778  11.880  13.948   9.048 -0.0721  0.1744  0.0145
  424loPI   C5A 6779  12.085  13.698   8.692 -0.2277  0.0045 -0.3072
  424loPI   C6A 6780  11.907  13.335   8.521 -0.0441  0.0509  0.0777
  424loPI   C1B 6781  11.901  13.351  10.268  0.0833 -0.1160  0.2784
  424loPI   C2B 6782  11.924  13.328   9.936  0.1573  0.2280  0.1426
  424loPI   C3B 6783  11.820  13.342   9.503 -0.0391 -0.2520  0.1419
  424loPI   C4B 6784  11.912  13.402   9.071 -0.2687 -0.2310 -0.1645
  425loPI    C1 6785   8.202  12.815  11.011 -0.0993 -0.3313 -0.2524
  425loPI    C2 6786   7.806  12.856  11.046 -0.0549 -0.0121 -0.0776
  425loPI    C3 6787   8.044  12.947  11.354  0.1371 -0.5359 -0.0606
  425loPI   PO4 6788   8.218  12.796  10.747 -0.2337 -0.0242  0.1914
  425loPI   GL1 6789   8.359  12.870  10.316 -0.1234 -0.0655 -0.1197
  425loPI   GL2 6790   8.699  13.098  10.252  0.1310 -0.0985 -0.1065
  425loPI   C1A 6791   8.301  12.800   9.900 -0.0514  0.0206  0.1578
  425loPI   C2A 6792   8.277  12.742   9.490  0.4093 -0.2092  0.2532
  425loPI   C3A 6793   7.973  12.807   9.082  0.0235 -0.1632  0.2012
  425loPI   C4A 6794   7.975  12.940   8.720 -0.1301 -0.2847  0.1078
  425loPI   C5A 6795   7.660  12.817   8.431 -0.0277  0.0150  0.0561
  425loPI   C6A 6796   7.254  12.564   8.513  0.1208  0.4529  0.2165
  425loPI   C1B 6797   8.663  13.192   9.872 -0.1801 -0.1622  0.3603
  425loPI   C2B 6798   8.669  13.097   9.408  0.0979 -0.2853  0.0700
  425loPI   C3B 6799   8.621  12.829   9.121  0.0858  0.1580 -0.0857
  425loPI   C4B 6800   8.470  12.766   8.721 -0.1736 -0.1496 -0.2436
  426loPI    C1 6801   3.222   2.781  10.715 -0.0692  0.0278  0.2175
  426loPI    C2 6802   3.491   2.948  10.471 -0.2062  0.0059  0.0499
  426loPI    C3 6803   3.450   3.083  10.845  0.0641 -0.0162  0.0895
  426loPI   PO4 6804   3.070   2.660  10.508 -0.2184  0.3004 -0.1657
  426loPI   GL1 6805   2.972   2.489  10.162  0.2528 -0.1998  0.1346
  426loPI   GL2 6806   2.594   2.592  10.139  0.1787  0.0225 -0.2417
  426loPI   C1A 6807   3.130   2.705   9.776 -0.1172 -0.0290 -0.1120
  426loPI   C2A 6808   3.056   2.963   9.418 -0.1991  0.5437  0.4406
  426loPI   C3A 6809   3.045   2.741   9.050  0.1307 -0.1916 -0.1076
  426loPI   C4A 6810   2.968   2.802   8.612  0.1667 -0.2287  0.0561
  426loPI   C5A 6811   2.745   2.692   8.216 -0.1662 -0.1173  0.2179
  426loPI   C6A 6812   2.378   2.685   7.940 -0.0301 -0.2156 -0.3449
  426loPI   C1B 6813   2.637   2.641   9.710 -0.0676  0.2471  0.0602
  426loPI   C2B 6814   2.667   2.610   9.339 -0.1527  0.1794  0.0126
  426loPI   C3B 6815   2.582   2.458   8.970  0.2020  0.0998 -0.2054
  426loPI   C4B 6816   2.654   2.403   8.589  0.0994  0.4608  0.0543
  427loPI    C1 6817  10.635   6.840  11.307 -0.1517 -0.0162 -0.0152
  427loPI    C2 6818  10.922   6.689  11.072 -0.0758  0.0184  0.0546
  427loPI    C3 6819  10.757   6.463  11.358  0.0261  0.0620  0.1484
  427loPI   PO4 6820  10.515   6.995  11.070  0.3096 -0.3645  0.1518
  427loPI   GL1 6821  10.223   6.955  10.687 -0.0476 -0.1921  0.1114
  427loPI   GL2 6822  10.092   7.221  10.564 -0.1066  0.1725 -0.2785
  427loPI   C1A 6823  10.653   6.936  10.385 -0.1624 -0.1368  0.2826
  427loPI   C2A 6824  10.753   7.114  10.007  0.0413 -0.0188  0.1329
  427loPI   C3A 6825  10.918   7.292   9.611 -0.0318 -0.1163  0.1232
  427loPI   C4A 6826  11.173   7.522   9.295  0.0506 -0.1819  0.0290
  427loPI   C5A 6827  11.432   7.388   8.948  0.0846  0.3976 -0.0107
  427loPI   C6A 6828  11.830   7.551   8.810  0.0906  0.2380 -0.1421
  427loPI   C1B 6829  10.230   7.031  10.139 -0.1950  0.2489  0.2353
  427loPI   C2B 6830  10.415   6.592  10.008  0.0067 -0.0601  0.1891
  427loPI   C3B 6831  10.519   6.462   9.595  0.3322  0.2601  0.0587
  427loPI   C4B 6832  10.473   6.499   9.160 -0.0452 -0.3944  0.0098
  428loPI    C1 6833   2.301   7.368  10.867  0.1461  0.1675  0.1537
  428loPI    C2 6834   2.161   7.683  10.665 -0.0612  0.0347  0.0871
  428loPI    C3 6835   2.300   7.730  11.037  0.4004  0.2954 -0.1100
  428loPI   PO4 6836   2.581   7.173  10.678  0.1799 -0.2996  0.0099
  428loPI   GL1 6837   2.716   6.929  10.342  0.0117  0.0812  0.1637
  428loPI   GL2 6838   2.714   7.119  10.124 -0.0442  0.0734  0.0426
  428loPI   C1A 6839   2.690   6.683   9.880  0.0398 -0.1828  0.2184
  428loPI   C2A 6840   2.747   6.545   9.461 -0.0689 -0.0386  0.2465
  428loPI   C3A 6841   2.680   6.652   9.106  0.2367 -0.3053  0.1495
  428loPI   C4A 6842   2.656   6.643   8.640 -0.2871 -0.2584  0.3306
  428loPI   C5A 6843   2.724   6.654   8.177 -0.2994  0.1888  0.0174
  428loPI   C6A 6844   3.075   6.597   7.913  0.4542 -0.0048  0.0271
  428loPI   C1B 6845   2.763   7.156   9.726 -0.2438 -0.2358  0.2861
  428loPI   C2B 6846   2.765   7.127   9.277  0.2271  0.1088  0.4433
  428loPI   C3B 6847   2.684   7.116   8.800  0.2248  0.3714  0.0402
  428loPI   C4B 6848   2.668   7.135   8.381  0.1717  0.2043 -0.0399
  429loPI    C1 6849  12.814   5.572  10.584  0.0518 -0.1571  0.0703
  429loPI    C2 6850  12.770   5.276  10.850  0.1208 -0.2199  0.0124
  429loPI    C3 6851  12.854   5.647  10.975 -0.1187 -0.1915  0.0952
  429loPI   PO4 6852  12.855   5.430  10.374 -0.0515  0.2407  0.2950
  429loPI   GL1 6853  12.743   5.277  10.006  0.2218  0.0690  0.0219
  429loPI   GL2 6854  12.590   5.541   9.859  0.1502  0.0983 -0.0114
  429loPI   C1A 6855  12.757   5.125   9.636  0.2291 -0.2271  0.0106
  429loPI   C2A 6856  12.579   4.943   9.254  0.2093  0.1999 -0.2321
  429loPI   C3A 6857  12.486   4.695   9.005  0.0109 -0.1034 -0.2117
  429loPI   C4A 6858  12.558   4.297   8.857  0.1499  0.2915 -0.1766
  429loPI   C5A 6859  12.684   3.907   9.169 -0.0873  0.0316 -0.1714
  429loPI   C6A 6860  12.783   3.579   8.902  0.1923  0.0901  0.2617
  429loPI   C1B 6861  12.545   5.681   9.418 -0.1553  0.3172  0.0971
  429loPI   C2B 6862  12.384   5.481   9.120 -0.0855  0.1535  0.0954
  429loPI   C3B 6863  12.545   5.189   8.788 -0.1783 -0.0680 -0.0198
  429loPI   C4B 6864  12.580   5.162   8.373  0.0641 -0.1934  0.0619
  430loPI    C1 6865  13.929   9.858  11.167 -0.1552  0.0365 -0.1883
  430loPI    C2 6866  14.129  10.205  11.161 -0.0831 -0.0041 -0.1453
  430loPI    C3 6867  14.025  10.040  11.510 -0.1060 -0.0323 -0.1654
  430loPI   PO4 6868  13.767   9.902  10.949  0.1093  0.3032 -0.0838
  430loPI   GL1 6869  13.781   9.807  10.567 -0.2342  0.3297  0.0783
  430loPI   GL2 6870  13.929   9.847  10.348 -0.2422  0.0653 -0.0487
  430loPI   C1A 6871  13.579   9.605  10.191  0.4211  0.0788 -0.0064
  430loPI   C2A 6872  13.543   9.603   9.767  0.0893  0.2541  0.2244
  430loPI   C3A 6873  13.639   9.638   9.339  0.1415 -0.0778  0.1471
  430loPI   C4A 6874  13.602   9.542   8.849 -0.3347 -0.1977  0.0690
  430loPI   C5A 6875  13.535   9.213   8.446 -0.0435  0.1288 -0.0906
  430loPI   C6A 6876  13.453   9.282   8.110 -0.1110 -0.0978 -0.0041
  430loPI   C1B 6877  14.019   9.867   9.961 -0.1644  0.0840 -0.2681
  430loPI   C2B 6878  14.033   9.926   9.506 -0.1597 -0.1493 -0.3191
  430loPI   C3B 6879  13.964   9.946   9.054  0.0762 -0.2950  0.0091
  430loPI   C4B 6880  13.817  10.009   8.687 -0.0212 -0.2732 -0.0713
  431loPI    C1 6881   5.438   3.623  10.905  0.1638  0.1081  0.0858
  431loPI    C2 6882   5.227   3.683  11.239 -0.0942  0.0027 -0.0550
  431loPI    C3 6883   5.423   3.339  11.186 -0.0609  0.0157 -0.0172
  431loPI   PO4 6884   5.322   3.874  10.752  0.2734  0.3789  0.2386
  431loPI   GL1 6885   5.324   3.965  10.451  0.1288 -0.3101 -0.3107
  431loPI   GL2 6886   5.085   4.198  10.438  0.3474 -0.0104 -0.2371
  431loPI   C1A 6887   5.514   3.840  10.108  0.1318  0.1807 -0.0892
  431loPI   C2A 6888   5.589   3.837   9.764  0.0565 -0.0408  0.2339
  431loPI   C3A 6889   5.649   3.899   9.321 -0.2899  0.0269 -0.0777
  431loPI   C4A 6890   5.573   3.923   8.932  0.2006 -0.0443 -0.3570
  431loPI   C5A 6891   5.620   3.847   8.530  0.1289 -0.2024 -0.4127
  431loPI   C6A 6892   5.628   3.654   8.149  0.0600  0.2318 -0.3507
  431loPI   C1B 6893   5.131   4.161  10.063 -0.3083 -0.2234 -0.2198
  431loPI   C2B 6894   5.167   4.115   9.604  0.0652 -0.0204  0.1038
  431loPI   C3B 6895   5.167   4.214   9.173  0.1360  0.2085 -0.2114
  431loPI   C4B 6896   5.141   4.179   8.643  0.1115 -0.2570  0.1105
  432loPI    C1 6897  10.000  16.155  11.297  0.1420 -0.0057 -0.2204
  432loPI    C2 6898   9.768  16.431  11.470  0.2325  0.0025 -0.1116
  432loPI    C3 6899   9.844  16.087  11.659  0.2667 -0.0218 -0.1695
  432loPI   PO4 6900   9.913  16.116  11.036 -0.1242 -0.0595 -0.0778
  432loPI   GL1 6901   9.890  15.851  10.713 -0.1546 -0.0603  0.1749
  432loPI   GL2 6902   9.852  15.522  10.608 -0.4321  0.1553 -0.0981
  432loPI   C1A 6903  10.074  15.824  10.266  0.0599  0.1344  0.1030
  432loPI   C2A 6904  10.020  15.906   9.846  0.0144 -0.2255  0.0662
  432loPI   C3A 6905  10.039  15.885   9.441 -0.0193  0.0151  0.1436
  432loPI   C4A 6906  10.008  15.908   8.944  0.0797 -0.0134 -0.2267
  432loPI   C5A 6907  10.003  16.100   8.497  0.0836 -0.0154 -0.1143
  432loPI   C6A 6908  10.114  16.419   8.359 -0.2090 -0.2532  0.2560
  432loPI   C1B 6909   9.634  15.589  10.171  0.0928 -0.0613 -0.3769
  432loPI   C2B 6910   9.637  15.522   9.704 -0.0526  0.1060  0.0598
  432loPI   C3B 6911   9.619  15.531   9.284  0.2640  0.1447  0.1009
  432loPI   C4B 6912   9.607  15.616   8.868  0.1838 -0.1236 -0.2237
  433loPI    C1 6913   2.957  10.236  11.132 -0.1365 -0.0624  0.0254
  433loPI    C2 6914   2.636  10.119  11.341  0.0125 -0.2642  0.1448
  433loPI    C3 6915   3.004  10.028  11.471  0.1229  0.0508  0.0611
  433loPI   PO4 6916   2.881  10.252  10.852 -0.0925  0.5692  0.1574
  433loPI   GL1 6917   2.728  10.198  10.464 -0.2862 -0.0622  0.1670
  433loPI   GL2 6918   2.922  10.023  10.407  0.0457  0.2242 -0.2738
  433loPI   C1A 6919   2.652  10.461  10.169 -0.3449  0.1688 -0.0336
  433loPI   C2A 6920   2.819  10.516   9.635  0.2788  0.0702  0.1614
  433loPI   C3A 6921   2.852  10.450   9.153  0.2118  0.0115  0.1217
  433loPI   C4A 6922   2.935  10.444   8.709  0.1131  0.2895 -0.0021
  433loPI   C5A 6923   3.245  10.571   8.361 -0.0344  0.0307  0.1232
  433loPI   C6A 6924   3.413  10.962   8.218  0.0627 -0.0377  0.3859
  433loPI   C1B 6925   3.211   9.805  10.104  0.2314  0.0771 -0.0585
  433loPI   C2B 6926   3.118   9.650   9.704 -0.0142  0.0026  0.3974
  433loPI   C3B 6927   3.119   9.661   9.283  0.0496 -0.1258 -0.1065
  433loPI   C4B 6928   3.258   9.723   8.909  0.1285  0.0410  0.1513
  434loPI    C1 6929  14.120   6.885  11.112  0.1795 -0.0414 -0.0078
  434loPI    C2 6930  13.846   6.910  11.403 -0.1185 -0.0860 -0.2787
  434loPI    C3 6931  14.138   7.183  11.379 -0.1438 -0.0307  0.0062
  434loPI   PO4 6932  14.092   6.884  10.890 -0.1968  0.0942  0.1075
  434loPI   GL1 6933  13.956   7.009  10.492 -0.1933  0.0373 -0.0468
  434loPI   GL2 6934  13.820   7.201  10.509 -0.1419  0.1319  0.0647
  434loPI   C1A 6935  14.097   6.952  10.057  0.2040  0.2245 -0.1505
  434loPI   C2A 6936  14.087   6.993   9.563 -0.1978 -0.1259 -0.1834
  434loPI   C3A 6937  13.987   7.039   9.144  0.0339  0.1269 -0.1537
  434loPI   C4A 6938  14.100   6.903   8.740  0.3461 -0.0556  0.0978
  434loPI   C5A 6939  14.036   6.703   8.411  0.3880 -0.0881  0.1980
  434loPI   C6A 6940  13.958   7.056   8.196  0.0319 -0.0876 -0.0325
  434loPI   C1B 6941  13.977   7.420  10.119 -0.0716 -0.3028 -0.2053
  434loPI   C2B 6942  14.025   7.488   9.737 -0.0234  0.0867 -0.0203
  434loPI   C3B 6943  13.962   7.531   9.364 -0.4150  0.2842 -0.2420
  434loPI   C4B 6944  14.041   7.613   9.038 -0.2508  0.2873 -0.1155
  435loPI    C1 6945  14.871   3.760  10.475  0.1991  0.0898 -0.1449
  435loPI    C2 6946  15.046   3.570  10.781  0.0043 -0.0405 -0.1127
  435loPI    C3 6947  14.672   3.707  10.817 -0.0979 -0.2453 -0.3618
  435loPI   PO4 6948  14.839   3.607  10.239 -0.1122 -0.0113  0.0878
  435loPI   GL1 6949  15.042   3.403   9.945 -0.1343  0.0128 -0.0354
  435loPI   GL2 6950  15.291   3.456  10.071 -0.0608  0.3198 -0.0479
  435loPI   C1A 6951  14.943   3.381   9.572 -0.0026 -0.2411  0.0545
  435loPI   C2A 6952  15.048   3.469   9.259  0.3907 -0.0089 -0.0105
  435loPI   C3A 6953  15.359   3.753   9.123  0.1107 -0.2137 -0.0752
  435loPI   C4A 6954  15.652   4.027   9.104 -0.2806 -0.0882  0.2929
  435loPI   C5A 6955  16.034   4.177   9.315  0.1705  0.1052  0.1324
  435loPI   C6A 6956  16.013   4.283   9.654 -0.1762 -0.1248  0.1335
  435loPI   C1B 6957  15.432   3.487   9.585 -0.0861 -0.1347 -0.0106
  435loPI   C2B 6958  15.618   3.219   9.177  0.2903  0.2410  0.2596
  435loPI   C3B 6959  15.713   3.103   8.730  0.0710 -0.0221  0.1737
  435loPI   C4B 6960  15.894   3.355   8.399  0.0863  0.0942  0.3663
  436loPI    C1 6961  17.237   1.584  10.770 -0.1065 -0.1188 -0.0011
  436loPI    C2 6962  16.870   1.699  10.879 -0.1476 -0.1552 -0.1007
  436loPI    C3 6963  17.186   1.799  11.103 -0.1811  0.1615 -0.1904
  436loPI   PO4 6964  17.193   1.608  10.477 -0.1333 -0.3736 -0.0618
  436loPI   GL1 6965  17.476   1.813  10.292  0.0302  0.1085  0.0778
  436loPI   GL2 6966  17.348   2.064  10.281 -0.1190 -0.0691 -0.2095
  436loPI   C1A 6967  17.448   1.656   9.860  0.1795 -0.1239 -0.3981
  436loPI   C2A 6968  17.445   1.434   9.385  0.0023 -0.2734 -0.1448
  436loPI   C3A 6969  17.512   1.223   8.969  0.0169  0.0692  0.0778
  436loPI   C4A 6970  17.781   1.026   8.625 -0.2253 -0.2069  0.4981
  436loPI   C5A 6971  18.085   1.037   8.301  0.0125  0.1549  0.1762
  436loPI   C6A 6972  18.282   1.497   8.240 -0.2567 -0.1931  0.3376
  436loPI   C1B 6973  17.332   2.188   9.723  0.2103  0.0361  0.1656
  436loPI   C2B 6974  17.435   1.918   9.487 -0.0709  0.0390  0.1093
  436loPI   C3B 6975  17.496   1.815   9.036 -0.1943 -0.3906 -0.1108
  436loPI   C4B 6976  17.484   1.854   8.499 -0.0232  0.0236  0.0954
  437loPI    C1 6977  13.094   2.977  10.794  0.0122 -0.0105  0.2532
  437loPI    C2 6978  13.461   3.000  10.951  0.1069  0.1052  0.0199
  437loPI    C3 6979  13.202   2.726  11.086  0.3526 -0.1239  0.0354
  437loPI   PO4 6980  13.149   2.959  10.469  0.0105  0.0085 -0.2247
  437loPI   GL1 6981  13.225   3.090  10.121  0.3104 -0.1389 -0.1252
  437loPI   GL2 6982  13.498   3.256  10.077  0.0082  0.0877 -0.1738
  437loPI   C1A 6983  13.205   2.837   9.792 -0.3021  0.0553 -0.0809
  437loPI   C2A 6984  13.235   2.601   9.335 -0.0954  0.2321  0.2324
  437loPI   C3A 6985  13.396   2.694   8.938 -0.0822 -0.0448  0.0628
  437loPI   C4A 6986  13.692   2.442   8.594 -0.2355 -0.0529  0.0920
  437loPI   C5A 6987  14.103   2.406   8.403  0.0788  0.1382 -0.0272
  437loPI   C6A 6988  14.133   2.217   8.042 -0.3239  0.2931  0.1752
  437loPI   C1B 6989  13.267   3.360   9.698  0.0313  0.0228 -0.0796
  437loPI   C2B 6990  12.878   3.667   9.606  0.0459 -0.0608 -0.2256
  437loPI   C3B 6991  12.532   3.889   9.622 -0.0863  0.0843 -0.4821
  437loPI   C4B 6992  12.035   3.885   9.536  0.1658 -0.2355  0.0391
  438loPI    C1 6993   0.629   4.347  10.741 -0.2448  0.1153  0.1347
  438loPI    C2 6994   0.498   4.417  11.112  0.0306  0.1497  0.2281
  438loPI    C3 6995   0.484   4.707  10.837 -0.2011  0.1153  0.2014
  438loPI   PO4 6996   0.500   4.129  10.716  0.2434 -0.0110  0.2036
  438loPI   GL1 6997   0.387   3.987  10.348 -0.2055 -0.0082  0.1465
  438loPI   GL2 6998   0.194   4.103  10.102 -0.0729  0.0288  0.0083
  438loPI   C1A 6999   0.425   3.655  10.010  0.2704  0.0135  0.3229
  438loPI   C2A 7000   0.444   3.718   9.452 -0.0486 -0.1269  0.0955
  438loPI   C3A 7001   0.437   3.658   8.936  0.1236  0.0424  0.1978
  438loPI   C4A 7002   0.512   3.562   8.496  0.3594 -0.1014 -0.0796
  438loPI   C5A 7003   0.777   3.302   8.176 -0.0796 -0.2330 -0.0138
  438loPI   C6A 7004   1.240   3.120   8.136  0.0486 -0.0114  0.1120
  438loPI   C1B 7005   0.376   4.157   9.859 -0.0002 -0.1053 -0.0579
  438loPI   C2B 7006   0.344   4.192   9.385 -0.1592 -0.1543 -0.1752
  438loPI   C3B 7007   0.583   4.131   9.083  0.0133 -0.2190  0.0037
  438loPI   C4B 7008   0.909   3.853   8.855  0.1890 -0.1432 -0.3238
  439loPI    C1 7009   9.206   6.434  10.951  0.2386 -0.3165  0.0453
  439loPI    C2 7010   8.895   6.533  11.183  0.0856 -0.1871 -0.2099
  439loPI    C3 7011   9.265   6.523  11.337 -0.0267 -0.2137  0.0640
  439loPI   PO4 7012   9.147   6.162  10.899 -0.0510 -0.1354  0.3632
  439loPI   GL1 7013   8.853   6.154  10.543 -0.1195 -0.1391  0.0117
  439loPI   GL2 7014   9.041   5.912  10.398 -0.3972 -0.0420 -0.1159
  439loPI   C1A 7015   9.021   6.285  10.102  0.0667 -0.1449 -0.2432
  439loPI   C2A 7016   9.133   6.432   9.696 -0.0216 -0.1586  0.1061
  439loPI   C3A 7017   9.215   6.502   9.321 -0.0422  0.0186  0.0727
  439loPI   C4A 7018   9.357   6.732   8.940 -0.0513 -0.2281 -0.1246
  439loPI   C5A 7019   9.225   7.012   8.660 -0.1299  0.0783  0.0147
  439loPI   C6A 7020   8.873   7.233   8.711 -0.1049 -0.2307 -0.2426
  439loPI   C1B 7021   8.644   5.969  10.088 -0.0503  0.2962  0.3344
  439loPI   C2B 7022   8.631   6.163   9.689 -0.2694 -0.3384  0.1720
  439loPI   C3B 7023   8.696   6.389   9.219  0.3254  0.0390 -0.0821
  439loPI   C4B 7024   8.862   6.561   8.773  0.2850  0.1818 -0.1247
  440loPI    C1 7025   4.020   1.047  10.827  0.2851 -0.0986  0.0593
  440loPI    C2 7026   3.805   0.753  10.992  0.2015 -0.1765 -0.1840
  440loPI    C3 7027   4.043   0.979  11.221 -0.1784 -0.0527  0.1001
  440loPI   PO4 7028   3.997   0.901  10.497  0.0434  0.1246  0.2037
  440loPI   GL1 7029   3.871   1.111  10.105  0.0186  0.0219  0.1647
  440loPI   GL2 7030   3.916   1.405  10.071 -0.1591 -0.2538  0.0812
  440loPI   C1A 7031   3.853   1.156   9.673 -0.0094  0.0182 -0.0059
  440loPI   C2A 7032   3.814   1.024   9.270  0.0363  0.3047 -0.5036
  440loPI   C3A 7033   3.962   1.130   8.913 -0.2458 -0.2342 -0.2351
  440loPI   C4A 7034   4.362   1.051   8.609 -0.1293  0.0370 -0.3381
  440loPI   C5A 7035   4.666   1.221   8.247 -0.0705  0.0108 -0.0474
  440loPI   C6A 7036   4.884   1.444   8.039  0.0973 -0.1885  0.0205
  440loPI   C1B 7037   3.894   1.655   9.708  0.0768 -0.1165 -0.0766
  440loPI   C2B 7038   3.975   1.670   9.205  0.0553  0.0124 -0.0858
  440loPI   C3B 7039   3.956   1.693   8.797  0.0312  0.0871 -0.0307
  440loPI   C4B 7040   3.632   1.877   8.555  0.1915  0.2429 -0.3291
  441loPI    C1 7041   2.868   4.456  10.986 -0.0132  0.0454 -0.1987
  441loPI    C2 7042   2.775   4.468  11.375  0.0801 -0.1857 -0.1673
  441loPI    C3 7043   3.143   4.361  11.261  0.0464 -0.1403 -0.3208
  441loPI   PO4 7044   2.665   4.390  10.814 -0.0110 -0.0196 -0.4122
  441loPI   GL1 7045   2.587   4.256  10.417 -0.0091 -0.1290 -0.1498
  441loPI   GL2 7046   2.284   4.386  10.099 -0.0107 -0.4414  0.1386
  441loPI   C1A 7047   2.770   4.139   9.968  0.0364 -0.1226  0.1169
  441loPI   C2A 7048   2.864   4.199   9.503 -0.2382 -0.1380  0.0857
  441loPI   C3A 7049   2.935   4.285   9.058 -0.0276 -0.0275  0.0249
  441loPI   C4A 7050   2.972   4.280   8.671  0.0653  0.2315  0.2948
  441loPI   C5A 7051   2.926   4.128   8.328  0.2561 -0.1260 -0.1095
  441loPI   C6A 7052   3.016   4.252   7.926 -0.1521 -0.1064 -0.0075
  441loPI   C1B 7053   2.493   4.473   9.753  0.0282  0.2095 -0.1834
  441loPI   C2B 7054   2.531   4.586   9.292 -0.0371 -0.0809  0.0417
  441loPI   C3B 7055   2.486   4.544   8.904 -0.0344 -0.1070  0.0991
  441loPI   C4B 7056   2.603   4.551   8.478  0.0783 -0.1667 -0.0293
  442loPI    C1 7057   8.330   4.647  11.195  0.1071  0.0845 -0.0578
  442loPI    C2 7058   8.193   4.288  11.306  0.2074  0.0466 -0.0558
  442loPI    C3 7059   8.195   4.591  11.567 -0.1919  0.1407 -0.1552
  442loPI   PO4 7060   8.269   4.601  10.920  0.0979  0.3055 -0.1362
  442loPI   GL1 7061   7.964   4.407  10.633  0.2898 -0.1922 -0.2524
  442loPI   GL2 7062   8.349   4.337  10.424 -0.3764 -0.0249  0.1415
  442loPI   C1A 7063   8.024   4.733  10.164 -0.2100  0.1738  0.0733
  442loPI   C2A 7064   7.994   4.780   9.773 -0.1011 -0.0706 -0.3654
  442loPI   C3A 7065   7.944   4.923   9.364  0.0306 -0.3849 -0.1532
  442loPI   C4A 7066   8.003   5.022   9.029  0.0912  0.1161  0.1259
  442loPI   C5A 7067   8.156   5.340   8.692  0.0631  0.0095 -0.0230
  442loPI   C6A 7068   8.635   5.365   8.635 -0.0665  0.1677  0.0129
  442loPI   C1B 7069   8.449   4.497  10.005  0.1038  0.2923  0.1655
  442loPI   C2B 7070   8.366   4.571   9.501 -0.0248 -0.4566 -0.3461
  442loPI   C3B 7071   8.358   4.640   9.076  0.0362 -0.2394 -0.0223
  442loPI   C4B 7072   8.438   4.843   8.673 -0.1017 -0.4419  0.3588
  443loPI    C1 7073  16.014  15.575  10.967  0.0072 -0.1105 -0.1415
  443loPI    C2 7074  16.025  15.180  11.031 -0.2434 -0.1015 -0.0303
  443loPI    C3 7075  16.210  15.429  11.284  0.1650 -0.1611 -0.2612
  443loPI   PO4 7076  15.815  15.632  10.960  0.0414  0.0853 -0.2867
  443loPI   GL1 7077  15.611  15.821  10.669  0.1695  0.2443 -0.0949
  443loPI   GL2 7078  15.390  15.534  10.643 -0.1835 -0.2800 -0.2788
  443loPI   C1A 7079  15.594  15.613  10.212 -0.1290  0.0548  0.0998
  443loPI   C2A 7080  15.560  15.402   9.808  0.1530  0.1831 -0.2044
  443loPI   C3A 7081  15.626  15.503   9.411 -0.1060 -0.1327  0.2663
  443loPI   C4A 7082  15.528  15.397   8.935 -0.1382  0.1737 -0.0085
  443loPI   C5A 7083  15.406  15.516   8.565 -0.1165 -0.1015  0.0412
  443loPI   C6A 7084  15.444  15.679   8.293 -0.0181 -0.0422  0.1285
  443loPI   C1B 7085  15.137  15.215  10.343 -0.0058 -0.2810 -0.1319
  443loPI   C2B 7086  15.154  15.143   9.980 -0.0630 -0.1660  0.1051
  443loPI   C3B 7087  15.191  15.143   9.576 -0.1408 -0.1661 -0.1502
  443loPI   C4B 7088  15.227  15.104   9.229  0.3018  0.3331  0.1625
  444loPI    C1 7089   6.023   2.440  11.150  0.2137 -0.0960 -0.0529
  444loPI    C2 7090   6.126   2.822  11.210 -0.2186  0.0409 -0.1484
  444loPI    C3 7091   5.940   2.617  11.499  0.1792 -0.1611 -0.0281
  444loPI   PO4 7092   6.072   2.330  10.839 -0.2067  0.4252 -0.0275
  444loPI   GL1 7093   6.146   2.215  10.366  0.3313 -0.0699  0.1629
  444loPI   GL2 7094   6.020   2.564  10.348  0.0622  0.1596  0.0090
  444loPI   C1A 7095   6.244   2.187   9.887  0.1167 -0.0932 -0.0089
  444loPI   C2A 7096   6.280   2.238   9.495 -0.2271 -0.4511  0.0080
  444loPI   C3A 7097   6.286   2.226   9.048 -0.0268  0.2991  0.0136
  444loPI   C4A 7098   6.310   2.365   8.580  0.1677 -0.0876 -0.1256
  444loPI   C5A 7099   6.132   2.645   8.253  0.1339 -0.1084  0.1229
  444loPI   C6A 7100   5.790   2.501   8.039  0.1108  0.2376 -0.0134
  444loPI   C1B 7101   6.343   2.670  10.046  0.0928 -0.0153 -0.1837
  444loPI   C2B 7102   6.370   2.741   9.667 -0.2667 -0.0651  0.0455
  444loPI   C3B 7103   6.352   2.659   9.247  0.1858 -0.1310 -0.1837
  444loPI   C4B 7104   6.393   2.716   8.875  0.0749 -0.1289  0.0414
  445loPI    C1 7105   6.875   1.342  11.081  0.1943  0.0242  0.0008
  445loPI    C2 7106   6.547   1.488  11.258  0.0636  0.0247 -0.2380
  445loPI    C3 7107   6.908   1.561  11.414 -0.0484  0.0272  0.0248
  445loPI   PO4 7108   6.850   1.195  10.913 -0.3071 -0.3306 -0.2081
  445loPI   GL1 7109   6.823   1.220  10.514 -0.2320  0.1806 -0.0903
  445loPI   GL2 7110   6.987   1.469  10.205  0.0851  0.2456 -0.1556
  445loPI   C1A 7111   6.701   1.052  10.065 -0.1516  0.1290 -0.3125
  445loPI   C2A 7112   6.649   1.233   9.643  0.0047  0.0348  0.1386
  445loPI   C3A 7113   6.695   1.396   9.174  0.1211 -0.0547  0.3370
  445loPI   C4A 7114   6.718   1.462   8.722 -0.0332  0.1891 -0.2927
  445loPI   C5A 7115   6.548   1.525   8.325  0.0360 -0.2277  0.3699
  445loPI   C6A 7116   6.202   1.374   8.023 -0.0283 -0.0413  0.2692
  445loPI   C1B 7117   7.017   1.500   9.796  0.0552  0.1349 -0.0794
  445loPI   C2B 7118   7.108   1.604   9.343 -0.2101 -0.0104  0.0850
  445loPI   C3B 7119   7.127   1.614   9.026 -0.2145 -0.0976 -0.0737
  445loPI   C4B 7120   7.164   1.677   8.660  0.0084 -0.2861 -0.1142
  446loPI    C1 7121   2.777  15.644  10.863  0.2345  0.0849 -0.3265
  446loPI    C2 7122   2.553  15.819  10.581  0.0572  0.2209 -0.1049
  446loPI    C3 7123   2.722  16.040  10.869  0.2005  0.0780 -0.0775
  446loPI   PO4 7124   2.684  15.409  10.846  0.1240  0.1533 -0.1234
  446loPI   GL1 7125   2.448  15.264  10.546  0.5724  0.0687 -0.0280
  446loPI   GL2 7126   2.624  15.266  10.290  0.1936 -0.0349 -0.1321
  446loPI   C1A 7127   2.157  15.478  10.194  0.0345  0.0435 -0.0173
  446loPI   C2A 7128   1.998  15.523   9.783 -0.2561  0.2983  0.0503
  446loPI   C3A 7129   1.769  15.484   9.320 -0.1550 -0.0170 -0.3822
  446loPI   C4A 7130   1.808  15.631   8.895 -0.0588 -0.0979 -0.3209
  446loPI   C5A 7131   2.036  15.917   8.637  0.1795 -0.0040 -0.2840
  446loPI   C6A 7132   2.458  16.140   8.438  0.1867  0.0284  0.1195
  446loPI   C1B 7133   2.605  14.899   9.962  0.1874  0.1872  0.1127
  446loPI   C2B 7134   2.508  14.895   9.501  0.0381  0.1634 -0.0213
  446loPI   C3B 7135   2.623  14.997   9.123 -0.2779  0.1651  0.0572
  446loPI   C4B 7136   2.900  15.316   8.838 -0.2632  0.2028  0.0184
  447loPI    C1 7137  11.644   4.061  10.971 -0.5022  0.1172  0.2286
  447loPI    C2 7138  11.906   4.340  11.089 -0.2482  0.0578 -0.1761
  447loPI    C3 7139  11.906   3.979  11.262 -0.2599  0.1523  0.0238
  447loPI   PO4 7140  11.685   4.094  10.644  0.0444 -0.1474 -0.1614
  447loPI   GL1 7141  11.737   4.335  10.232 -0.0591  0.1562 -0.0724
  447loPI   GL2 7142  11.792   4.579  10.046 -0.1301 -0.0406 -0.1270
  447loPI   C1A 7143  11.314   4.450  10.033 -0.0781 -0.2295 -0.0341
  447loPI   C2A 7144  11.142   4.460   9.655 -0.0788  0.1482 -0.0158
  447loPI   C3A 7145  11.004   4.337   9.345 -0.0390 -0.3831  0.2071
  447loPI   C4A 7146  11.076   4.615   8.989 -0.0625  0.0792 -0.1777
  447loPI   C5A 7147  11.332   4.636   8.683  0.0790  0.0482 -0.0102
  447loPI   C6A 7148  11.761   4.471   8.784  0.1465  0.0094  0.3352
  447loPI   C1B 7149  11.798   4.453   9.657 -0.0687  0.3386  0.1012
  447loPI   C2B 7150  11.483   4.450   9.292 -0.0308 -0.0875 -0.3267
  447loPI   C3B 7151  11.395   4.219   8.969  0.0998 -0.1051  0.0280
  447loPI   C4B 7152  11.512   4.169   8.541 -0.1035 -0.1336 -0.1019
  448loPI    C1 7153  13.298   3.400  10.572  0.0861 -0.3155 -0.0632
  448loPI    C2 7154  13.327   3.464  10.966  0.0792 -0.1736 -0.0854
  448loPI    C3 7155  12.968   3.462  10.790  0.1041  0.0863 -0.1436
  448loPI   PO4 7156  13.465   3.615  10.479 -0.1610 -0.0486 -0.3537
  448loPI   GL1 7157  13.496   3.751  10.129 -0.2168 -0.0285 -0.2301
  448loPI   GL2 7158  13.302   3.924  10.101  0.0366  0.0234 -0.2314
  448loPI   C1A 7159  13.692   3.631   9.651  0.1924  0.1070  0.1263
  448loPI   C2A 7160  13.610   3.495   9.232 -0.0137 -0.0632 -0.2824
  448loPI   C3A 7161  13.415   3.544   8.830  0.1814  0.3239 -0.0328
  448loPI   C4A 7162  13.204   3.639   8.514  0.0174 -0.2623 -0.0518
  448loPI   C5A 7163  13.313   3.803   8.179 -0.1774  0.2525 -0.2028
  448loPI   C6A 7164  13.593   3.709   7.884 -0.0134  0.1824  0.0454
  448loPI   C1B 7165  13.335   4.016   9.707  0.2993  0.2267 -0.0058
  448loPI   C2B 7166  13.271   3.928   9.369 -0.2425  0.0852  0.1328
  448loPI   C3B 7167  13.181   3.955   8.960  0.3306  0.0858  0.1070
  448loPI   C4B 7168  13.420   4.122   8.597  0.0326  0.0200  0.1020
  449loPI    C1 7169  14.546   5.100  11.077  0.1214 -0.1092  0.0617
  449loPI    C2 7170  14.469   4.746  11.245  0.0948 -0.0588  0.1565
  449loPI    C3 7171  14.530   5.067  11.475  0.0901  0.0042  0.0704
  449loPI   PO4 7172  14.421   5.052  10.839 -0.2827  0.1228  0.0029
  449loPI   GL1 7173  14.457   5.153  10.457 -0.1700  0.1165  0.0318
  449loPI   GL2 7174  14.497   5.432  10.239  0.1289 -0.1841  0.1867
  449loPI   C1A 7175  14.316   5.100   9.940  0.2608  0.0270  0.1076
  449loPI   C2A 7176  14.075   5.034   9.626 -0.0913 -0.1423  0.0059
  449loPI   C3A 7177  13.981   5.130   9.199  0.0861  0.2219  0.2153
  449loPI   C4A 7178  13.931   5.000   8.702 -0.1509 -0.1818 -0.1237
  449loPI   C5A 7179  13.612   5.144   8.381 -0.0028 -0.1493 -0.0985
  449loPI   C6A 7180  13.410   5.002   7.969  0.0941  0.0049 -0.1262
  449loPI   C1B 7181  14.214   5.560   9.973 -0.1720 -0.0042  0.0646
  449loPI   C2B 7182  13.992   5.597   9.585  0.0737 -0.1056  0.2296
  449loPI   C3B 7183  13.950   5.695   9.161  0.2081  0.2071 -0.0032
  449loPI   C4B 7184  13.845   5.509   8.815 -0.1351 -0.1644  0.0122
  450loPI    C1 7185  12.565  11.806  11.527 -0.0190  0.0244  0.0348
  450loPI    C2 7186  12.601  12.130  11.758  0.1718  0.0849 -0.0780
  450loPI    C3 7187  12.557  11.770  11.925 -0.0823  0.1721  0.0476
  450loPI   PO4 7188  12.465  11.916  11.348 -0.1155  0.0499 -0.0926
  450loPI   GL1 7189  12.588  11.810  11.004  0.1249 -0.3135 -0.0834
  450loPI   GL2 7190  12.481  12.087  10.808 -0.0641  0.0476  0.1765
  450loPI   C1A 7191  12.638  11.603  10.553  0.0508 -0.1123 -0.2429
  450loPI   C2A 7192  12.617  11.636  10.144  0.2325  0.3113 -0.0292
  450loPI   C3A 7193  12.573  11.724   9.731 -0.3388  0.0180 -0.0167
  450loPI   C4A 7194  12.669  11.760   9.324 -0.1867 -0.1410  0.1727
  450loPI   C5A 7195  12.742  11.798   8.851  0.0681 -0.3404  0.1904
  450loPI   C6A 7196  12.759  11.670   8.471 -0.2860 -0.1113  0.2586
  450loPI   C1B 7197  12.561  12.142  10.401  0.0977  0.1567  0.0394
  450loPI   C2B 7198  12.558  12.146  10.028  0.0335  0.0129  0.1279
  450loPI   C3B 7199  12.510  12.229   9.585 -0.2254 -0.2138 -0.0166
  450loPI   C4B 7200  12.689  12.291   9.141 -0.0674 -0.1466 -0.0805
  451loPI    C1 7201   4.032  14.899  11.258  0.1241  0.1204 -0.0307
  451loPI    C2 7202   4.274  15.088  11.514  0.0576  0.1426  0.0161
  451loPI    C3 7203   3.884  15.054  11.596  0.1233 -0.3066  0.1716
  451loPI   PO4 7204   4.113  15.066  10.997  0.4316  0.0427 -0.4644
  451loPI   GL1 7205   4.156  14.975  10.572 -0.2836 -0.2903  0.0146
  451loPI   GL2 7206   3.959  15.137  10.448  0.0619  0.0132  0.1212
  451loPI   C1A 7207   4.372  15.040  10.207 -0.0305  0.0418 -0.0741
  451loPI   C2A 7208   4.391  15.211   9.839  0.0294 -0.3104 -0.0201
  451loPI   C3A 7209   4.488  15.049   9.355 -0.1173 -0.1561  0.0554
  451loPI   C4A 7210   4.341  15.243   8.931 -0.1906  0.3705 -0.0411
  451loPI   C5A 7211   4.177  15.416   8.621  0.0573 -0.1352  0.1752
  451loPI   C6A 7212   4.158  15.419   8.186 -0.2830  0.0218  0.1575
  451loPI   C1B 7213   3.894  15.115  10.054 -0.0303  0.0691  0.1251
  451loPI   C2B 7214   3.928  15.198   9.618  0.5186  0.0381 -0.0652
  451loPI   C3B 7215   3.942  15.042   9.169  0.4119  0.2136  0.2220
  451loPI   C4B 7216   3.783  15.023   8.771  0.1288  0.1186 -0.2964
  452loPI    C1 7217   3.875  14.026  10.954  0.2071  0.0267 -0.1906
  452loPI    C2 7218   3.512  13.872  11.017  0.1581  0.2184  0.0115
  452loPI    C3 7219   3.836  13.680  11.150  0.1515 -0.0675 -0.3657
  452loPI   PO4 7220   3.921  14.090  10.807 -0.0325  0.1302  0.1833
  452loPI   GL1 7221   3.875  14.126  10.443  0.0616  0.0086 -0.1811
  452loPI   GL2 7222   4.157  13.948  10.401  0.0669  0.1151  0.1442
  452loPI   C1A 7223   4.124  14.188  10.004  0.3772  0.2833 -0.1465
  452loPI   C2A 7224   4.187  14.216   9.632 -0.3402  0.0046 -0.0280
  452loPI   C3A 7225   4.383  14.206   9.203  0.2324  0.0924 -0.2213
  452loPI   C4A 7226   4.563  14.101   8.836 -0.1021 -0.2494  0.1960
  452loPI   C5A 7227   4.772  13.998   8.506 -0.0206 -0.0338 -0.1844
  452loPI   C6A 7228   4.845  13.608   8.495 -0.0035  0.2171  0.4141
  452loPI   C1B 7229   4.099  13.673  10.049  0.0973  0.2310 -0.2051
  452loPI   C2B 7230   4.199  13.601   9.597  0.1329  0.2851  0.5307
  452loPI   C3B 7231   4.361  13.624   9.123 -0.0292  0.1792 -0.1793
  452loPI   C4B 7232   4.396  13.678   8.649 -0.1402  0.0415  0.3231
  453loPI    C1 7233   0.667   6.556  10.605 -0.0363  0.2052 -0.0556
  453loPI    C2 7234   0.807   6.746  10.928  0.1533 -0.3285  0.1881
  453loPI    C3 7235   0.456   6.555  10.945  0.0041 -0.0804 -0.0289
  453loPI   PO4 7236   0.812   6.415  10.522  0.2529 -0.3256 -0.0048
  453loPI   GL1 7237   0.829   6.322  10.104 -0.1041 -0.1752  0.1606
  453loPI   GL2 7238   0.527   6.473  10.061 -0.2141  0.1353  0.1413
  453loPI   C1A 7239   0.914   6.225   9.760 -0.0829 -0.1139  0.0328
  453loPI   C2A 7240   0.866   6.137   9.371 -0.3370  0.0130  0.0436
  453loPI   C3A 7241   1.000   6.227   8.990 -0.3245 -0.0366  0.1719
  453loPI   C4A 7242   0.950   6.277   8.544 -0.0623  0.1083 -0.0910
  453loPI   C5A 7243   0.635   6.253   8.313  0.0547 -0.3914  0.0303
  453loPI   C6A 7244   0.304   6.439   8.176  0.0883 -0.0130  0.2122
  453loPI   C1B 7245   0.441   6.477   9.605 -0.0179  0.2080  0.3110
  453loPI   C2B 7246   0.467   6.382   9.147 -0.1110 -0.2837 -0.2566
  453loPI   C3B 7247   0.486   6.162   8.888  0.0758 -0.1700  0.1336
  453loPI   C4B 7248   0.105   6.153   8.551  0.3058 -0.3127 -0.1269
  454loPI    C1 7249   5.015   8.692  11.096  0.1536  0.0406 -0.0299
  454loPI    C2 7250   4.963   8.338  10.917 -0.0768  0.0696 -0.0239
  454loPI    C3 7251   4.900   8.374  11.310  0.2137  0.0564  0.0261
  454loPI   PO4 7252   5.045   8.843  10.826 -0.1497 -0.0298 -0.3313
  454loPI   GL1 7253   5.062   8.869  10.351 -0.3005  0.1286 -0.1284
  454loPI   GL2 7254   4.760   8.796  10.367  0.1424 -0.0836  0.0229
  454loPI   C1A 7255   5.279   9.084   9.966  0.0071  0.1821  0.1537
  454loPI   C2A 7256   5.359   9.129   9.492 -0.2106  0.2661 -0.2125
  454loPI   C3A 7257   5.311   9.090   9.108 -0.0442 -0.1913  0.1142
  454loPI   C4A 7258   5.198   9.137   8.729 -0.2012 -0.1526 -0.2061
  454loPI   C5A 7259   5.280   8.937   8.516 -0.1615  0.0963 -0.1046
  454loPI   C6A 7260   5.612   8.975   8.222  0.2301  0.1551 -0.2445
  454loPI   C1B 7261   4.799   8.784   9.939 -0.3956 -0.0178  0.1195
  454loPI   C2B 7262   4.848   8.959   9.581 -0.0273  0.1356 -0.1218
  454loPI   C3B 7263   4.846   8.977   9.225 -0.1176 -0.2074  0.3713
  454loPI   C4B 7264   4.808   8.883   8.872  0.1162 -0.0532 -0.2295
  455loPI    C1 7265   9.348   5.319  10.958 -0.1515  0.0098  0.3145
  455loPI    C2 7266   9.004   5.180  11.108 -0.0949 -0.3970  0.0831
  455loPI    C3 7267   9.347   5.120  11.305 -0.1402 -0.0641  0.2723
  455loPI   PO4 7268   9.252   5.364  10.671  0.0993 -0.3118  0.1315
  455loPI   GL1 7269   8.887   5.183  10.481 -0.0639  0.0038 -0.0924
  455loPI   GL2 7270   9.059   5.161  10.265 -0.1909  0.1032  0.0560
  455loPI   C1A 7271   8.686   5.462  10.185  0.0262  0.0363 -0.1372
  455loPI   C2A 7272   8.663   5.566   9.623 -0.5000  0.2126 -0.1334
  455loPI   C3A 7273   8.573   5.661   9.295 -0.1186 -0.1712 -0.2203
  455loPI   C4A 7274   8.646   5.907   8.949 -0.3397  0.1475  0.0943
  455loPI   C5A 7275   8.622   5.854   8.562 -0.4064 -0.0914 -0.0287
  455loPI   C6A 7276   8.951   5.738   8.247  0.1720 -0.2053 -0.0654
  455loPI   C1B 7277   9.050   5.278   9.835  0.0963  0.0220  0.3721
  455loPI   C2B 7278   8.963   5.304   9.341  0.2589  0.0563  0.0889
  455loPI   C3B 7279   9.045   5.371   8.963 -0.1236 -0.2781  0.0946
  455loPI   C4B 7280   9.074   5.637   8.746  0.1017 -0.2810 -0.0774
  456loPI    C1 7281   3.477   6.709  11.008  0.3075  0.0902 -0.1195
  456loPI    C2 7282   3.742   6.751  11.304  0.1549  0.1179  0.0144
  456loPI    C3 7283   3.543   6.407  11.261  0.3499  0.0299 -0.2021
  456loPI   PO4 7284   3.558   6.673  10.812 -0.2267  0.1185  0.1453
  456loPI   GL1 7285   3.921   6.958  10.456  0.1723  0.0166  0.0797
  456loPI   GL2 7286   3.942   6.656  10.448 -0.0047 -0.3990  0.3251
  456loPI   C1A 7287   4.135   7.042  10.047 -0.2786  0.1706  0.0896
  456loPI   C2A 7288   4.161   7.240   9.667 -0.2406 -0.2458  0.0898
  456loPI   C3A 7289   4.268   7.559   9.435 -0.1085  0.1034  0.0244
  456loPI   C4A 7290   4.362   7.731   8.999 -0.0717  0.0491  0.2583
  456loPI   C5A 7291   4.345   7.768   8.599  0.0017  0.0343 -0.0358
  456loPI   C6A 7292   4.047   7.705   8.288 -0.3678  0.2427  0.0889
  456loPI   C1B 7293   4.162   6.506  10.076  0.1957 -0.0396 -0.1205
  456loPI   C2B 7294   4.216   6.609   9.672 -0.0983 -0.1971 -0.1296
  456loPI   C3B 7295   4.150   6.811   9.267 -0.1049  0.1042 -0.2782
  456loPI   C4B 7296   4.086   7.236   9.101  0.4377 -0.4282 -0.0193
  457loPI    C1 7297  14.549   3.199  10.354 -0.1521  0.0585 -0.2365
  457loPI    C2 7298  14.256   3.291  10.609 -0.1272 -0.0081 -0.1837
  457loPI    C3 7299  14.626   3.226  10.745 -0.1744 -0.3302 -0.2015
  457loPI   PO4 7300  14.439   3.143  10.176  0.1333  0.1384 -0.0749
  457loPI   GL1 7301  14.334   3.401   9.923 -0.1161  0.1098  0.2661
  457loPI   GL2 7302  14.530   3.645   9.843 -0.3342  0.0013  0.0034
  457loPI   C1A 7303  14.101   3.449   9.562  0.1614  0.4102  0.1378
  457loPI   C2A 7304  14.124   3.519   9.222 -0.0042  0.0284  0.0060
  457loPI   C3A 7305  14.006   3.471   8.718  0.0288  0.1153  0.0189
  457loPI   C4A 7306  13.658   3.488   8.399  0.1500 -0.1006 -0.1743
  457loPI   C5A 7307  13.291   3.329   8.143  0.0045  0.1024 -0.0107
  457loPI   C6A 7308  12.945   3.060   8.057  0.1766  0.2572  0.0403
  457loPI   C1B 7309  14.605   3.694   9.474  0.3816  0.0041  0.2181
  457loPI   C2B 7310  14.827   3.890   9.123  0.2233 -0.1491 -0.0974
  457loPI   C3B 7311  14.937   3.672   8.812  0.1766  0.0731  0.0805
  457loPI   C4B 7312  15.039   3.665   8.396 -0.0484  0.0558 -0.0345
  458loPI    C1 7313  12.708  16.635  10.970  0.0017  0.1073 -0.1030
  458loPI    C2 7314  13.081  16.671  11.109 -0.0774 -0.2416  0.2139
  458loPI    C3 7315  12.771  16.784  11.335 -0.1662  0.0852 -0.0641
  458loPI   PO4 7316  12.673  16.706  10.776  0.0449  0.0535 -0.2938
  458loPI   GL1 7317  12.665  16.659  10.338 -0.1875  0.0145 -0.0133
  458loPI   GL2 7318  12.483  16.952  10.242  0.0342 -0.1045  0.1421
  458loPI   C1A 7319  12.601  16.492   9.976 -0.0819 -0.1097 -0.1103
  458loPI   C2A 7320  12.589  16.463   9.559 -0.3998 -0.1092 -0.0541
  458loPI   C3A 7321  12.727  16.494   9.128 -0.2403  0.3617 -0.1906
  458loPI   C4A 7322  12.810  16.528   8.643  0.2733 -0.3261 -0.0444
  458loPI   C5A 7323  12.801  16.849   8.355  0.0942  0.0622 -0.0652
  458loPI   C6A 7324  12.944  17.261   8.528 -0.1011 -0.1422 -0.1657
  458loPI   C1B 7325  12.443  16.971   9.750  0.0412 -0.4703  0.0918
  458loPI   C2B 7326  12.539  16.907   9.346  0.0269  0.0541 -0.0341
  458loPI   C3B 7327  12.648  16.948   8.965  0.0583 -0.0656 -0.2394
  458loPI   C4B 7328  12.426  17.168   8.572 -0.0317  0.1378  0.1469
  459loPI    C1 7329   2.047  11.233  11.228  0.1393 -0.0505 -0.1210
  459loPI    C2 7330   2.062  10.944  11.504 -0.1011 -0.1562 -0.2161
  459loPI    C3 7331   2.393  11.149  11.411  0.0018 -0.1826  0.0815
  459loPI   PO4 7332   1.925  11.179  10.992 -0.1313  0.0988 -0.1486
  459loPI   GL1 7333   1.847  11.447  10.726  0.1829  0.1828 -0.2061
  459loPI   GL2 7334   2.077  11.589  10.703 -0.0449 -0.3358  0.1076
  459loPI   C1A 7335   1.635  11.322  10.337 -0.3178 -0.2870 -0.0124
  459loPI   C2A 7336   1.412  11.451   9.940 -0.0110  0.0820  0.2839
  459loPI   C3A 7337   1.438  11.503   9.468  0.3168  0.1323 -0.0372
  459loPI   C4A 7338   1.446  11.608   9.069 -0.0060  0.1755 -0.1913
  459loPI   C5A 7339   1.294  11.615   8.688 -0.1903 -0.1977  0.5172
  459loPI   C6A 7340   1.408  11.407   8.309  0.1602 -0.1186  0.2486
  459loPI   C1B 7341   1.908  11.776  10.349  0.2009 -0.1192 -0.0510
  459loPI   C2B 7342   1.837  11.758   9.953  0.2435  0.0303 -0.0590
  459loPI   C3B 7343   1.822  11.908   9.539  0.0171  0.1029 -0.0899
  459loPI   C4B 7344   1.812  11.870   9.170  0.1405  0.1003  0.2258
  460loPI    C1 7345   5.226  17.462  10.624  0.1216  0.1293  0.1109
  460loPI    C2 7346   5.409  17.216  10.880  0.0191 -0.0243  0.0378
  460loPI    C3 7347   5.077  17.097  10.691  0.1828  0.0265 -0.2874
  460loPI   PO4 7348   5.461  17.599  10.532  0.2008  0.0156  0.0836
  460loPI   GL1 7349   5.581  17.872  10.306 -0.1095 -0.6622 -0.2901
  460loPI   GL2 7350   5.949  17.848  10.324 -0.1442 -0.2644 -0.0421
  460loPI   C1A 7351   5.662  18.059   9.877  0.2340 -0.1429 -0.3784
  460loPI   C2A 7352   5.593  18.317   9.521  0.0478 -0.0132  0.2844
  460loPI   C3A 7353   5.632  18.265   9.097 -0.0411  0.0275  0.1162
  460loPI   C4A 7354   5.637  18.294   8.607 -0.1989 -0.1480 -0.0419
  460loPI   C5A 7355   5.885  18.207   8.201 -0.0277  0.2851  0.2254
  460loPI   C6A 7356   5.852  18.361   7.816 -0.0251 -0.0156  0.1489
  460loPI   C1B 7357   6.158  18.049   9.969 -0.1923 -0.0369 -0.0771
  460loPI   C2B 7358   6.102  18.112   9.539  0.2233  0.3105  0.2612
  460loPI   C3B 7359   6.072  18.013   9.152 -0.2214 -0.1040 -0.1677
  460loPI   C4B 7360   6.080  18.061   8.679 -0.0639 -0.0589  0.0829
  461loPI    C1 7361  15.004  15.492  11.159  0.1897  0.0548  0.0341
  461loPI    C2 7362  15.241  15.807  11.092  0.0600  0.1316 -0.0681
  461loPI    C3 7363  14.854  15.862  11.176  0.1026  0.0123  0.2183
  461loPI   PO4 7364  15.052  15.297  10.978  0.3510 -0.1501 -0.1096
  461loPI   GL1 7365  14.751  15.232  10.598  0.2060  0.0689 -0.0903
  461loPI   GL2 7366  14.784  14.891  10.414  0.1349  0.0560 -0.2496
  461loPI   C1A 7367  14.615  15.353  10.141  0.3009 -0.0174  0.2346
  461loPI   C2A 7368  14.699  15.302   9.730  0.0236  0.0607 -0.1295
  461loPI   C3A 7369  14.645  15.339   9.420 -0.1231 -0.1888 -0.0229
  461loPI   C4A 7370  14.672  15.226   9.015  0.1696 -0.1225  0.3579
  461loPI   C5A 7371  14.580  15.130   8.586  0.0384 -0.0599 -0.3440
  461loPI   C6A 7372  14.793  14.983   8.325 -0.1313  0.1961 -0.2487
  461loPI   C1B 7373  14.768  14.886   9.967  0.0327 -0.2961 -0.3141
  461loPI   C2B 7374  14.796  14.788   9.643  0.2114  0.1861  0.1542
  461loPI   C3B 7375  14.842  14.744   9.243 -0.1916  0.1312 -0.1189
  461loPI   C4B 7376  14.942  14.732   8.779 -0.2083 -0.1866 -0.1055
  462loPI    C1 7377   3.901  16.668  11.437  0.1099  0.2081  0.0646
  462loPI    C2 7378   3.587  16.913  11.470 -0.0721  0.0287 -0.2767
  462loPI    C3 7379   3.617  16.593  11.709 -0.0023  0.1980 -0.0548
  462loPI   PO4 7380   3.876  16.572  11.168  0.0254 -0.0615  0.1002
  462loPI   GL1 7381   3.632  16.622  10.768  0.0556 -0.0313 -0.0551
  462loPI   GL2 7382   3.886  16.376  10.667 -0.0518  0.1291  0.1129
  462loPI   C1A 7383   3.483  16.829  10.321 -0.0834 -0.2389 -0.2429
  462loPI   C2A 7384   3.510  16.770   9.877  0.3064 -0.0851  0.0929
  462loPI   C3A 7385   3.586  16.654   9.495  0.0466  0.1327  0.0202
  462loPI   C4A 7386   3.608  16.423   9.150 -0.2111  0.0392 -0.0010
  462loPI   C5A 7387   3.907  16.453   8.807 -0.2705 -0.0925  0.1842
  462loPI   C6A 7388   4.333  16.358   8.582  0.1128 -0.2102 -0.1156
  462loPI   C1B 7389   3.915  16.544  10.268 -0.0736 -0.0093  0.0687
  462loPI   C2B 7390   3.930  16.575   9.818 -0.1324  0.1523  0.0365
  462loPI   C3B 7391   4.126  16.584   9.449  0.0409 -0.1672 -0.2829
  462loPI   C4B 7392   4.339  16.571   9.081  0.1299 -0.3647 -0.1094
  463loPI    C1 7393  11.993   7.863  11.338  0.0436 -0.1354  0.1115
  463loPI    C2 7394  11.619   7.722  11.331 -0.0040 -0.0159  0.2191
  463loPI    C3 7395  11.695   8.081  11.491  0.1438 -0.0009  0.1167
  463loPI   PO4 7396  12.063   7.876  11.109  0.1193 -0.0457  0.0683
  463loPI   GL1 7397  12.276   7.868  10.780  0.1182  0.1140  0.0130
  463loPI   GL2 7398  12.047   7.912  10.398 -0.1321 -0.4248 -0.2477
  463loPI   C1A 7399  12.464   7.646  10.437 -0.1984 -0.0384  0.0789
  463loPI   C2A 7400  12.584   7.549  10.005  0.2953 -0.1610  0.0709
  463loPI   C3A 7401  12.601   7.398   9.589  0.1931  0.1018 -0.0605
  463loPI   C4A 7402  12.673   7.460   9.164  0.2647  0.1433  0.1551
  463loPI   C5A 7403  12.765   7.670   8.763  0.1417  0.2584  0.2277
  463loPI   C6A 7404  12.869   7.961   8.455 -0.1986  0.0001 -0.0577
  463loPI   C1B 7405  11.992   8.011   9.978 -0.0689 -0.0487 -0.0834
  463loPI   C2B 7406  12.018   8.289   9.636  0.1048 -0.3828  0.1126
  463loPI   C3B 7407  11.947   8.168   9.348  0.1099 -0.4422 -0.0151
  463loPI   C4B 7408  11.943   8.103   8.915  0.2570  0.0774 -0.0506
  464loPI    C1 7409   4.277   7.062  11.143  0.1720 -0.0213 -0.0130
  464loPI    C2 7410   4.196   7.454  11.150  0.0428 -0.0432 -0.2057
  464loPI    C3 7411   3.984   7.201  11.377 -0.0265 -0.0286 -0.2539
  464loPI   PO4 7412   4.321   7.028  10.850  0.1005 -0.0457  0.1037
  464loPI   GL1 7413   4.457   6.775  10.481 -0.0192 -0.1415 -0.1274
  464loPI   GL2 7414   4.589   7.037  10.427 -0.1017 -0.1685 -0.1136
  464loPI   C1A 7415   4.608   6.734  10.007  0.1849 -0.1677  0.0812
  464loPI   C2A 7416   4.690   6.770   9.551 -0.1461 -0.1963  0.2117
  464loPI   C3A 7417   4.626   6.975   9.175  0.1722 -0.0873  0.0759
  464loPI   C4A 7418   4.479   6.862   8.806  0.1496 -0.3919  0.2388
  464loPI   C5A 7419   4.332   6.772   8.473  0.1345 -0.0507 -0.2026
  464loPI   C6A 7420   4.443   6.636   8.095 -0.1531 -0.3289  0.1052
  464loPI   C1B 7421   4.551   7.273  10.027 -0.3732  0.1681  0.2946
  464loPI   C2B 7422   4.678   7.265   9.578  0.3122 -0.0229  0.1933
  464loPI   C3B 7423   4.709   7.466   9.142 -0.1401  0.1207  0.0042
  464loPI   C4B 7424   4.622   7.344   8.714  0.0642 -0.3017 -0.2618
  465loPI    C1 7425   9.151   2.760  11.057  0.1589  0.4221 -0.2536
  465loPI    C2 7426   9.490   2.970  11.096  0.2196  0.2757  0.0392
  465loPI    C3 7427   9.351   2.756  11.404  0.0931 -0.0159 -0.2156
  465loPI   PO4 7428   9.062   2.973  10.838  0.1646  0.0238 -0.0658
  465loPI   GL1 7429   9.043   3.215  10.541  0.1820  0.0299 -0.1697
  465loPI   GL2 7430   9.228   3.075  10.380 -0.2654 -0.0733  0.1001
  465loPI   C1A 7431   8.767   3.055  10.222 -0.0307  0.2743  0.3914
  465loPI   C2A 7432   8.502   3.130   9.787 -0.3256  0.0293 -0.0724
  465loPI   C3A 7433   8.675   3.186   9.317 -0.0715  0.1760 -0.1940
  465loPI   C4A 7434   8.693   3.274   8.856  0.0162 -0.1747  0.2639
  465loPI   C5A 7435   8.885   3.294   8.382 -0.2731 -0.1031 -0.0932
  465loPI   C6A 7436   9.185   3.449   8.031 -0.2537  0.1146  0.0157
  465loPI   C1B 7437   9.155   3.357  10.027 -0.0821  0.0984  0.2519
  465loPI   C2B 7438   9.078   3.403   9.615 -0.1235  0.2388 -0.3104
  465loPI   C3B 7439   9.149   3.447   9.128  0.2848  0.1836  0.5462
  465loPI   C4B 7440   9.367   3.464   8.707  0.0740 -0.2004 -0.0300
  466loPI    C1 7441   0.643  11.702  11.072  0.0841  0.1238  0.0610
  466loPI    C2 7442   0.565  11.348  11.242 -0.0259  0.0770 -0.0850
  466loPI    C3 7443   0.602  11.675  11.469  0.2455 -0.0557  0.0674
  466loPI   PO4 7444   0.676  11.581  10.824 -0.2065  0.0055 -0.0284
  466loPI   GL1 7445   0.593  11.503  10.329  0.0933  0.0182  0.3104
  466loPI   GL2 7446   0.662  11.171  10.360 -0.0058 -0.1013  0.3607
  466loPI   C1A 7447   0.918  11.603  10.046  0.1502 -0.0996 -0.2176
  466loPI   C2A 7448   0.920  11.635   9.548  0.1871 -0.1870  0.0998
  466loPI   C3A 7449   0.832  11.748   9.096  0.1249  0.1221 -0.1088
  466loPI   C4A 7450   0.872  11.903   8.746 -0.4884 -0.1774  0.0975
  466loPI   C5A 7451   0.808  12.128   8.480  0.1109 -0.0204  0.0707
  466loPI   C6A 7452   0.827  12.635   8.594  0.2224  0.0808 -0.0229
  466loPI   C1B 7453   0.546  11.221   9.941  0.1352 -0.2666 -0.0911
  466loPI   C2B 7454   0.552  11.272   9.497  0.1969 -0.0641 -0.3084
  466loPI   C3B 7455   0.517  11.363   9.108  0.0572 -0.0207 -0.0149
  466loPI   C4B 7456   0.455  11.404   8.680 -0.0189 -0.2042 -0.0754
  467loPI    C1 7457  12.577  11.356  11.389  0.0300  0.2521  0.2926
  467loPI    C2 7458  12.591  11.034  11.626  0.0305  0.0231 -0.0131
  467loPI    C3 7459  12.766  11.374  11.742  0.2720 -0.1668  0.1917
  467loPI   PO4 7460  12.597  11.328  11.149 -0.1757  0.0903  0.0614
  467loPI   GL1 7461  12.921  11.352  10.858  0.0292  0.1207  0.0084
  467loPI   GL2 7462  12.624  11.142  10.677 -0.2182 -0.3154  0.2014
  467loPI   C1A 7463  13.158  11.472  10.484  0.0944 -0.1229  0.0508
  467loPI   C2A 7464  13.147  11.522  10.020 -0.1000  0.2052 -0.2530
  467loPI   C3A 7465  13.113  11.550   9.566  0.0915  0.3012 -0.1526
  467loPI   C4A 7466  13.158  11.497   9.194  0.0556 -0.1421  0.2224
  467loPI   C5A 7467  13.192  11.588   8.750  0.1486 -0.0109 -0.3740
  467loPI   C6A 7468  13.253  12.015   8.572  0.2229 -0.3341  0.0506
  467loPI   C1B 7469  12.797  11.192  10.300  0.2443  0.3909  0.1036
  467loPI   C2B 7470  12.777  11.228   9.790 -0.2199 -0.2062 -0.1720
  467loPI   C3B 7471  12.753  11.236   9.331 -0.2050 -0.3252  0.1620
  467loPI   C4B 7472  12.797  11.256   8.846  0.1575  0.0830  0.2364
  468loPI    C1 7473   8.118   9.083  10.966 -0.1257  0.2112 -0.0548
  468loPI    C2 7474   8.443   9.134  11.193 -0.0327 -0.0957 -0.1146
  468loPI    C3 7475   8.111   8.977  11.352 -0.1857  0.2980 -0.0314
  468loPI   PO4 7476   8.049   9.266  10.848 -0.2064  0.0722  0.1089
  468loPI   GL1 7477   8.171   9.471  10.504 -0.2345 -0.0952  0.0857
  468loPI   GL2 7478   8.361   9.078  10.517  0.0578 -0.0422 -0.0348
  468loPI   C1A 7479   7.967   9.236  10.197  0.0286 -0.0971 -0.0150
  468loPI   C2A 7480   7.946   9.276   9.798 -0.3634  0.1511 -0.0087
  468loPI   C3A 7481   7.746   9.510   9.430  0.1554 -0.3130 -0.0841
  468loPI   C4A 7482   7.895   9.779   8.997  0.1242 -0.0658  0.3151
  468loPI   C5A 7483   8.149  10.101   8.733 -0.0304 -0.0149  0.1512
  468loPI   C6A 7484   8.373  10.495   8.661 -0.1204 -0.0855  0.0315
  468loPI   C1B 7485   8.402   9.065  10.012 -0.1582  0.0252  0.2446
  468loPI   C2B 7486   8.427   9.063   9.638 -0.4896 -0.2144 -0.0281
  468loPI   C3B 7487   8.649   9.114   9.336  0.2642  0.2773  0.1765
  468loPI   C4B 7488   8.566   9.186   8.898 -0.4810  0.1282  0.1214
  469loPI    C1 7489   1.308   6.698  10.760  0.3044 -0.0251 -0.1267
  469loPI    C2 7490   1.648   6.667  10.969  0.1305 -0.1771  0.1394
  469loPI    C3 7491   1.297   6.589  11.145 -0.0672  0.2317 -0.0588
  469loPI   PO4 7492   1.406   6.900  10.566 -0.0850  0.1469 -0.0305
  469loPI   GL1 7493   1.694   6.831  10.332 -0.1249 -0.0984  0.3619
  469loPI   GL2 7494   1.827   6.605  10.122 -0.0861  0.0592 -0.2640
  469loPI   C1A 7495   1.772   7.091   9.964  0.0642  0.0752 -0.0320
  469loPI   C2A 7496   1.900   7.200   9.548 -0.3720  0.1463  0.2476
  469loPI   C3A 7497   1.884   7.246   9.111 -0.5740  0.1027 -0.1896
  469loPI   C4A 7498   1.841   7.186   8.685 -0.0228  0.5148  0.2021
  469loPI   C5A 7499   1.720   7.226   8.256  0.0072 -0.4530  0.1116
  469loPI   C6A 7500   1.597   7.175   7.883 -0.0767  0.1010 -0.0338
  469loPI   C1B 7501   1.824   6.641   9.673  0.0495  0.0400  0.0787
  469loPI   C2B 7502   1.819   6.660   9.303  0.1234 -0.1686  0.1874
  469loPI   C3B 7503   1.829   6.677   8.790  0.0200 -0.1433  0.1642
  469loPI   C4B 7504   1.758   6.757   8.340  0.1380  0.0705  0.0929
  470loPI    C1 7505  12.133  16.933  10.856 -0.1076  0.0154 -0.0780
  470loPI    C2 7506  12.432  17.059  11.089  0.1188 -0.1112 -0.2940
  470loPI    C3 7507  12.231  16.727  11.184  0.0588 -0.0371 -0.1590
  470loPI   PO4 7508  12.171  16.918  10.647  0.0924 -0.1846 -0.3098
  470loPI   GL1 7509  12.029  16.726  10.290 -0.4226  0.2268  0.1834
  470loPI   GL2 7510  11.684  16.695  10.147 -0.1512  0.1854 -0.0593
  470loPI   C1A 7511  12.118  16.564   9.860 -0.1271 -0.0733 -0.0143
  470loPI   C2A 7512  12.155  16.563   9.348  0.0042 -0.0234  0.0379
  470loPI   C3A 7513  12.177  16.639   8.945 -0.0132 -0.0590 -0.1777
  470loPI   C4A 7514  12.335  16.631   8.554  0.0803 -0.1089  0.0582
  470loPI   C5A 7515  12.338  16.831   8.196 -0.1479 -0.1415  0.1211
  470loPI   C6A 7516  12.447  16.923   7.708  0.0769 -0.0243  0.0881
  470loPI   C1B 7517  11.671  16.714   9.611 -0.0077  0.4394  0.1799
  470loPI   C2B 7518  11.675  16.764   9.182 -0.1643 -0.1327 -0.1490
  470loPI   C3B 7519  11.702  16.866   8.810  0.0999 -0.0060  0.2238
  470loPI   C4B 7520  11.931  17.081   8.488  0.1317 -0.0517 -0.0144
  471loPI    C1 7521  12.724  14.607  11.139 -0.1305 -0.1025 -0.0196
  471loPI    C2 7522  12.364  14.741  11.252 -0.0477 -0.0476  0.1840
  471loPI    C3 7523  12.582  14.517  11.502 -0.0465 -0.2932 -0.0332
  471loPI   PO4 7524  12.604  14.478  10.861  0.0849  0.2074 -0.1012
  471loPI   GL1 7525  12.436  14.194  10.717 -0.2107  0.1972  0.0825
  471loPI   GL2 7526  12.308  14.443  10.518  0.1030  0.0996  0.1144
  471loPI   C1A 7527  12.565  14.020  10.346  0.1875 -0.1760  0.3435
  471loPI   C2A 7528  12.736  14.061  10.008  0.2785  0.1476 -0.1195
  471loPI   C3A 7529  12.725  14.037   9.550  0.2223  0.1644  0.1413
  471loPI   C4A 7530  12.650  14.115   9.277  0.1217 -0.2210  0.1735
  471loPI   C5A 7531  12.744  14.181   8.906 -0.0696  0.0524 -0.2803
  471loPI   C6A 7532  12.437  14.064   8.558  0.0036  0.0195 -0.3059
  471loPI   C1B 7533  12.469  14.534  10.012 -0.0664 -0.2478  0.1810
  471loPI   C2B 7534  12.474  14.513   9.653 -0.1474  0.1850  0.0527
  471loPI   C3B 7535  12.492  14.663   9.210  0.0653 -0.3472  0.1078
  471loPI   C4B 7536  12.700  14.670   8.801 -0.2964  0.3149  0.0450
  472loPI    C1 7537   4.956   0.938  10.899  0.1122  0.0415  0.1798
  472loPI    C2 7538   5.269   1.140  11.043  0.0827  0.0926  0.1729
  472loPI    C3 7539   4.924   1.136  11.245  0.1105 -0.0261  0.2185
  472loPI   PO4 7540   4.966   1.025  10.604 -0.0490 -0.2343 -0.1238
  472loPI   GL1 7541   4.988   1.425  10.264  0.0926 -0.3070 -0.0722
  472loPI   GL2 7542   4.659   1.544  10.167  0.0838  0.0656 -0.0004
  472loPI   C1A 7543   5.212   1.334   9.964  0.1223 -0.0305 -0.2999
  472loPI   C2A 7544   5.248   1.238   9.451 -0.5492 -0.0632 -0.1090
  472loPI   C3A 7545   5.351   1.265   9.067 -0.0923 -0.0913 -0.2320
  472loPI   C4A 7546   5.310   1.298   8.628 -0.0943 -0.0583  0.1048
  472loPI   C5A 7547   5.229   1.145   8.249  0.0094 -0.1286  0.1522
  472loPI   C6A 7548   5.055   0.959   7.987 -0.1044  0.2291  0.1396
  472loPI   C1B 7549   4.866   1.537   9.742 -0.0312  0.1514 -0.0971
  472loPI   C2B 7550   4.916   1.558   9.301 -0.1106  0.0134 -0.2176
  472loPI   C3B 7551   4.862   1.684   8.902 -0.4957  0.4645  0.1217
  472loPI   C4B 7552   4.953   1.633   8.436 -0.1502  0.1350  0.0566
  473loPI    C1 7553  13.416   1.969  10.324  0.0637 -0.0522 -0.1277
  473loPI    C2 7554  13.700   1.711  10.437  0.1119  0.0560  0.0025
  473loPI    C3 7555  13.647   2.051  10.641  0.0534  0.1527 -0.1716
  473loPI   PO4 7556  13.255   1.819  10.194 -0.0518  0.1561  0.1558
  473loPI   GL1 7557  13.377   1.632   9.728  0.1162 -0.4515  0.3987
  473loPI   GL2 7558  12.993   1.601   9.555  0.0491 -0.1401  0.1367
  473loPI   C1A 7559  13.507   1.683   9.236  0.0015  0.2553  0.1678
  473loPI   C2A 7560  13.678   1.626   8.816 -0.0140 -0.2273 -0.0536
  473loPI   C3A 7561  13.710   1.563   8.415 -0.1519  0.2659  0.1341
  473loPI   C4A 7562  13.536   1.842   8.155 -0.0792  0.1889  0.4346
  473loPI   C5A 7563  13.538   2.333   8.122  0.1341 -0.2705 -0.0452
  473loPI   C6A 7564  13.796   2.713   8.172  0.1493 -0.0264  0.0279
  473loPI   C1B 7565  13.292   1.273   9.327  0.2894  0.2833  0.0939
  473loPI   C2B 7566  13.678   1.177   9.067  0.1010  0.0809 -0.1284
  473loPI   C3B 7567  13.974   1.008   8.700  0.0887  0.4302 -0.3581
  473loPI   C4B 7568  14.446   0.982   8.695  0.0705 -0.0294 -0.0036
  474loPI    C1 7569   5.487   9.835  11.134 -0.1893 -0.2760 -0.0710
  474loPI    C2 7570   5.476   9.942  11.519  0.1980  0.0747 -0.1503
  474loPI    C3 7571   5.190  10.065  11.268 -0.1301 -0.2673  0.0463
  474loPI   PO4 7572   5.639   9.959  10.970  0.1028  0.2010 -0.2297
  474loPI   GL1 7573   5.586  10.124  10.547 -0.1854 -0.0132 -0.2352
  474loPI   GL2 7574   5.716   9.803  10.505  0.1671 -0.2301  0.3884
  474loPI   C1A 7575   5.534  10.213  10.058  0.2532  0.3116  0.1032
  474loPI   C2A 7576   5.444  10.097   9.650  0.1128 -0.3938  0.2240
  474loPI   C3A 7577   5.474  10.261   9.369  0.2079 -0.2129  0.1483
  474loPI   C4A 7578   5.485  10.319   8.884 -0.0713  0.0943 -0.0781
  474loPI   C5A 7579   5.292  10.134   8.567 -0.1233 -0.3243  0.0073
  474loPI   C6A 7580   4.906   9.990   8.392  0.1020  0.0216 -0.1219
  474loPI   C1B 7581   5.871   9.759  10.140  0.0116  0.0750  0.1359
  474loPI   C2B 7582   5.885   9.890   9.705 -0.1219  0.0835  0.0168
  474loPI   C3B 7583   5.924   9.805   9.271 -0.0735 -0.1287 -0.0838
  474loPI   C4B 7584   5.795   9.848   8.822  0.1104  0.3050  0.1962
  475loPI    C1 7585  14.227  12.869  11.731 -0.2936  0.1120 -0.0648
  475loPI    C2 7586  14.266  12.645  12.061 -0.0307  0.1772 -0.0493
  475loPI    C3 7587  14.162  13.030  12.091 -0.0475  0.1723 -0.0452
  475loPI   PO4 7588  14.183  12.608  11.527  0.1968 -0.0718  0.1811
  475loPI   GL1 7589  14.143  12.519  11.019  0.3664 -0.1940 -0.2485
  475loPI   GL2 7590  13.868  12.291  11.173  0.2189 -0.0203 -0.2062
  475loPI   C1A 7591  14.313  12.541  10.607  0.0317  0.2451  0.3403
  475loPI   C2A 7592  14.219  12.680  10.152  0.1461  0.1714  0.0824
  475loPI   C3A 7593  14.300  12.617   9.759 -0.0228 -0.0565 -0.2421
  475loPI   C4A 7594  14.318  12.575   9.326 -0.2460 -0.0800  0.0311
  475loPI   C5A 7595  14.408  12.590   8.846 -0.4176 -0.3414 -0.2285
  475loPI   C6A 7596  14.521  12.296   8.563 -0.1814 -0.1440  0.2352
  475loPI   C1B 7597  13.980  12.162  10.670 -0.0773  0.0806 -0.0555
  475loPI   C2B 7598  13.898  12.248  10.241 -0.2624 -0.0079 -0.1514
  475loPI   C3B 7599  13.919  12.249   9.852  0.1600  0.0268  0.0029
  475loPI   C4B 7600  13.944  12.250   9.396  0.1124  0.1031 -0.1033
  476loPI    C1 7601  17.647   9.262  10.713 -0.2062 -0.0159 -0.1553
  476loPI    C2 7602  17.619   9.072  11.064 -0.1182  0.0752 -0.0985
  476loPI    C3 7603  17.561   9.468  11.045  0.0915  0.1045 -0.1498
  476loPI   PO4 7604  17.570   9.062  10.562  0.2252 -0.1189 -0.0066
  476loPI   GL1 7605  17.219   9.110  10.363  0.1769 -0.2249  0.1185
  476loPI   GL2 7606  16.974   8.855  10.417 -0.2058  0.1743 -0.0045
  476loPI   C1A 7607  17.483   9.146  10.007 -0.0508  0.1256 -0.0977
  476loPI   C2A 7608  17.344   9.195   9.654 -0.0283  0.1629  0.0403
  476loPI   C3A 7609  17.488   9.273   9.350  0.1060  0.0706 -0.1369
  476loPI   C4A 7610  17.500   9.179   9.050 -0.1934 -0.1670  0.0170
  476loPI   C5A 7611  17.528   9.262   8.759  0.1427  0.2701 -0.2086
  476loPI   C6A 7612  17.387   9.201   8.312  0.1336 -0.0255  0.0354
  476loPI   C1B 7613  16.966   8.903   9.960 -0.1674  0.3798 -0.1915
  476loPI   C2B 7614  16.929   8.838   9.577 -0.0238  0.0186  0.1142
  476loPI   C3B 7615  17.085   8.862   9.056 -0.1016 -0.0091 -0.1114
  476loPI   C4B 7616  16.975   8.939   8.538 -0.2456  0.1428 -0.1579
  477loPI    C1 7617   7.965  11.155  11.421  0.0770 -0.1377  0.0426
  477loPI    C2 7618   7.655  11.317  11.615  0.0314  0.0004 -0.1433
  477loPI    C3 7619   8.024  11.350  11.766  0.0191  0.2570 -0.1648
  477loPI   PO4 7620   8.012  11.194  11.168  0.1598  0.1310  0.3001
  477loPI   GL1 7621   8.092  11.473  10.874 -0.0737  0.0433 -0.2402
  477loPI   GL2 7622   8.353  11.194  10.744  0.3267 -0.0637 -0.0180
  477loPI   C1A 7623   7.924  11.438  10.447 -0.0609 -0.2438 -0.1695
  477loPI   C2A 7624   7.597  11.210  10.335  0.2981  0.1855 -0.1058
  477loPI   C3A 7625   7.218  11.264  10.240 -0.1349  0.0206  0.1861
  477loPI   C4A 7626   6.871  11.174  10.015 -0.1517 -0.0347 -0.1761
  477loPI   C5A 7627   6.441  10.992   9.850  0.2456 -0.0835 -0.1130
  477loPI   C6A 7628   6.044  10.837  10.014 -0.1129 -0.1199  0.0370
  477loPI   C1B 7629   8.172  10.998  10.356  0.2629 -0.1666  0.0099
  477loPI   C2B 7630   8.195  10.779   9.958  0.1093 -0.1577 -0.1390
  477loPI   C3B 7631   8.043  10.923   9.566 -0.0628  0.1720  0.1073
  477loPI   C4B 7632   8.115  11.328   9.378  0.0500  0.2439 -0.0666
  478loPI    C1 7633  11.805   9.189  11.251  0.1728  0.0169  0.0221
  478loPI    C2 7634  12.160   9.170  11.434  0.0486  0.0561  0.2708
  478loPI    C3 7635  11.887   8.884  11.496  0.1712 -0.1770 -0.2143
  478loPI   PO4 7636  11.814   9.260  11.013  0.0791  0.1263 -0.0611
  478loPI   GL1 7637  12.164   9.314  10.669 -0.0357 -0.0860  0.0610
  478loPI   GL2 7638  11.845   9.133  10.449 -0.0469  0.1393 -0.1267
  478loPI   C1A 7639  12.218   9.454  10.234  0.1891  0.0870  0.0444
  478loPI   C2A 7640  12.153   9.658   9.864 -0.1079  0.1788 -0.0843
  478loPI   C3A 7641  12.240   9.585   9.413 -0.1635  0.0178 -0.1813
  478loPI   C4A 7642  12.275   9.603   8.978  0.1284 -0.1171 -0.0461
  478loPI   C5A 7643  12.437   9.521   8.545 -0.2128 -0.1773 -0.0776
  478loPI   C6A 7644  12.802   9.735   8.275  0.0688  0.1069  0.2875
  478loPI   C1B 7645  11.828   9.201  10.007  0.1420  0.1166 -0.0262
  478loPI   C2B 7646  11.837   9.264   9.620 -0.1901  0.0972  0.1233
  478loPI   C3B 7647  11.870   9.348   9.126  0.1075 -0.1177 -0.1297
  478loPI   C4B 7648  11.966   9.284   8.731  0.2953  0.1629  0.0388
  479loPI    C1 7649   7.746  11.723  11.275  0.1513 -0.0382 -0.1514
  479loPI    C2 7650   8.095  11.754  11.467  0.1269 -0.2397 -0.0719
  479loPI    C3 7651   7.753  11.825  11.661  0.1296  0.1147 -0.1910
  479loPI   PO4 7652   7.762  11.924  11.081  0.1083 -0.1280  0.0169
  479loPI   GL1 7653   7.781  11.934  10.663  0.0672  0.0568 -0.1653
  479loPI   GL2 7654   8.033  11.870  10.535 -0.2984 -0.1314  0.1570
  479loPI   C1A 7655   7.508  11.710  10.446 -0.1160  0.0193  0.1695
  479loPI   C2A 7656   7.506  11.673  10.035  0.0833 -0.1063  0.0715
  479loPI   C3A 7657   7.341  11.867   9.662  0.2729 -0.1665 -0.0470
  479loPI   C4A 7658   7.270  12.006   9.208 -0.5476 -0.1240 -0.0865
  479loPI   C5A 7659   7.602  11.739   8.901 -0.0938  0.0713  0.0796
  479loPI   C6A 7660   7.910  11.533   8.978  0.1793 -0.1192 -0.2120
  479loPI   C1B 7661   7.963  11.796  10.132  0.0841 -0.3085 -0.0118
  479loPI   C2B 7662   7.895  11.722   9.728  0.1059 -0.2142 -0.0314
  479loPI   C3B 7663   7.655  11.575   9.422  0.1623  0.0815 -0.2477
  479loPI   C4B 7664   7.209  11.490   9.147 -0.0728 -0.0180 -0.0038
  480loPI    C1 7665   3.179  16.698  10.795 -0.0716 -0.1604  0.2549
  480loPI    C2 7666   2.885  16.949  10.900 -0.1057 -0.0428 -0.1070
  480loPI    C3 7667   3.242  16.972  11.080 -0.1474  0.1818 -0.0498
  480loPI   PO4 7668   3.065  16.458  10.743 -0.2244 -0.0926 -0.0348
  480loPI   GL1 7669   2.855  16.280  10.454 -0.0217 -0.0181 -0.2336
  480loPI   GL2 7670   2.978  16.127  10.230  0.1847  0.3456 -0.0005
  480loPI   C1A 7671   3.018  16.568  10.066  0.0177  0.4033  0.0149
  480loPI   C2A 7672   3.036  16.646   9.627  0.0359  0.2712  0.0822
  480loPI   C3A 7673   3.179  16.676   9.168 -0.0926  0.0007  0.0589
  480loPI   C4A 7674   3.269  16.551   8.764  0.0926 -0.0050 -0.2437
  480loPI   C5A 7675   3.470  16.552   8.347  0.1505 -0.0216  0.1681
  480loPI   C6A 7676   3.902  16.396   8.324  0.1213 -0.2151  0.0498
  480loPI   C1B 7677   2.870  16.155   9.825  0.3650  0.1361 -0.0674
  480loPI   C2B 7678   2.696  15.885   9.514 -0.1241 -0.2435  0.0689
  480loPI   C3B 7679   2.660  15.652   9.169 -0.1841 -0.1382 -0.0074
  480loPI   C4B 7680   2.700  15.770   8.744  0.2742 -0.0797 -0.2214
  481loPI    C1 7681  17.847   1.285  10.940 -0.0710 -0.0314 -0.0642
  481loPI    C2 7682  17.577   1.375  11.221 -0.0132  0.0360 -0.0301
  481loPI    C3 7683  17.555   1.026  11.027  0.0608 -0.0958  0.1950
  481loPI   PO4 7684  17.773   1.445  10.670 -0.2725 -0.1724  0.2642
  481loPI   GL1 7685  17.972   1.525  10.273  0.0760 -0.2750  0.1013
  481loPI   GL2 7686  18.072   1.826  10.390  0.0589 -0.0877 -0.0001
  481loPI   C1A 7687  17.911   1.424   9.876  0.0324 -0.2474  0.0853
  481loPI   C2A 7688  17.914   1.644   9.575 -0.0472  0.1253  0.0200
  481loPI   C3A 7689  18.102   1.947   9.302 -0.2561 -0.1345 -0.0502
  481loPI   C4A 7690  18.185   2.191   8.989 -0.1482  0.2754  0.1612
  481loPI   C5A 7691  17.967   2.094   8.598 -0.0162  0.0862  0.0188
  481loPI   C6A 7692  17.933   1.885   8.239 -0.1931 -0.1436 -0.1596
  481loPI   C1B 7693  18.222   1.876   9.918  0.3544 -0.0514 -0.1039
  481loPI   C2B 7694  18.464   1.972   9.619  0.1767 -0.0403  0.0108
  481loPI   C3B 7695  18.589   1.845   9.119  0.2750  0.0297 -0.0539
  481loPI   C4B 7696  18.341   1.783   8.763 -0.2455 -0.2437 -0.5244
  482loPI    C1 7697  13.674  10.704  11.410  0.4600  0.2528 -0.1422
  482loPI    C2 7698  13.817  10.898  11.730 -0.0247 -0.2040  0.3733
  482loPI    C3 7699  13.445  10.971  11.602  0.1066 -0.1498  0.0117
  482loPI   PO4 7700  13.891  10.622  11.295  0.0076  0.2297 -0.0265
  482loPI   GL1 7701  14.080  10.748  10.936 -0.3301  0.0351  0.2044
  482loPI   GL2 7702  13.769  10.917  10.736 -0.2041  0.0676  0.0503
  482loPI   C1A 7703  14.188  10.668  10.541  0.3533  0.0554  0.3617
  482loPI   C2A 7704  14.265  10.637  10.122  0.1498  0.0139 -0.3268
  482loPI   C3A 7705  14.255  10.688   9.707 -0.1450  0.1765  0.3156
  482loPI   C4A 7706  14.258  10.870   9.316  0.0428  0.0753 -0.1086
  482loPI   C5A 7707  14.309  10.940   8.831 -0.0523 -0.2042  0.2762
  482loPI   C6A 7708  14.015  10.927   8.499 -0.1469 -0.1564  0.2480
  482loPI   C1B 7709  13.724  10.794  10.364  0.0515  0.5266  0.0446
  482loPI   C2B 7710  13.716  10.767   9.987 -0.1355  0.0699  0.1251
  482loPI   C3B 7711  13.765  10.887   9.566  0.0034 -0.0315 -0.0694
  482loPI   C4B 7712  13.846  10.906   9.058 -0.0359  0.3379 -0.0558
  483loPI    C1 7713   4.238  17.389  11.074 -0.1756 -0.1472 -0.1245
  483loPI    C2 7714   4.162  17.026  11.223 -0.1122 -0.0504  0.1480
  483loPI    C3 7715   4.504  17.213  11.315 -0.1773  0.1095  0.0689
  483loPI   PO4 7716   4.218  17.365  10.834  0.1211  0.2464  0.0610
  483loPI   GL1 7717   3.992  16.992  10.561 -0.0590 -0.2481  0.1011
  483loPI   GL2 7718   4.199  16.860  10.569  0.0463  0.0291 -0.0356
  483loPI   C1A 7719   3.909  17.107  10.038  0.0533 -0.2208  0.2187
  483loPI   C2A 7720   3.766  17.087   9.588 -0.0409  0.2853 -0.1114
  483loPI   C3A 7721   3.756  17.410   9.161  0.1002 -0.0566  0.0150
  483loPI   C4A 7722   3.725  17.402   8.723  0.2906  0.0685  0.2673
  483loPI   C5A 7723   3.882  17.467   8.347 -0.0628 -0.1317 -0.1531
  483loPI   C6A 7724   4.253  17.232   8.274 -0.1842  0.2865  0.0133
  483loPI   C1B 7725   4.360  16.925  10.081 -0.0043  0.2242 -0.1484
  483loPI   C2B 7726   4.283  17.087   9.636  0.0993  0.2462 -0.0069
  483loPI   C3B 7727   4.114  17.088   9.111  0.0742  0.1195  0.2227
  483loPI   C4B 7728   3.727  16.919   9.035 -0.1454 -0.0374 -0.1212
  484loPI    C1 7729   8.865   3.764  11.219  0.0093 -0.0380  0.0977
  484loPI    C2 7730   9.204   3.755  11.430  0.1165  0.1677 -0.0624
  484loPI    C3 7731   8.861   3.857  11.608  0.1036 -0.2158  0.1417
  484loPI   PO4 7732   8.932   3.844  10.963  0.2038  0.0200  0.0093
  484loPI   GL1 7733   8.756   3.664  10.666 -0.0858 -0.1347  0.0510
  484loPI   GL2 7734   8.889   3.637  10.404  0.0942 -0.1068 -0.1764
  484loPI   C1A 7735   8.483   3.912  10.240  0.2061 -0.2109 -0.0792
  484loPI   C2A 7736   8.376   3.967   9.873 -0.1082 -0.1332  0.0360
  484loPI   C3A 7737   8.340   3.999   9.448  0.0501  0.1951  0.0962
  484loPI   C4A 7738   8.320   4.108   9.008 -0.0719 -0.0820  0.0731
  484loPI   C5A 7739   8.271   4.339   8.538  0.3134 -0.1348  0.0116
  484loPI   C6A 7740   8.644   4.190   8.290  0.1445  0.1803  0.0209
  484loPI   C1B 7741   8.731   3.609   9.940  0.2048 -0.0705 -0.0022
  484loPI   C2B 7742   8.698   3.680   9.496  0.0025  0.1972  0.1495
  484loPI   C3B 7743   8.751   3.696   9.086  0.0109  0.1275  0.1511
  484loPI   C4B 7744   8.733   3.778   8.723 -0.0307  0.1089  0.0455
  485loPI    C1 7745  13.097  10.530  11.369 -0.0905 -0.2038  0.1736
  485loPI    C2 7746  13.311  10.508  11.706  0.0515 -0.1179  0.0903
  485loPI    C3 7747  12.987  10.742  11.690  0.1416  0.0099  0.1158
  485loPI   PO4 7748  13.255  10.531  11.200 -0.0420  0.0579 -0.1251
  485loPI   GL1 7749  13.679  10.446  10.882  0.2025 -0.0141 -0.1091
  485loPI   GL2 7750  13.857  10.316  10.654 -0.0989  0.0533  0.0515
  485loPI   C1A 7751  13.344  10.519  10.518  0.1541  0.1527  0.1023
  485loPI   C2A 7752  13.310  10.574  10.084  0.4076  0.2812 -0.0719
  485loPI   C3A 7753  13.329  10.617   9.679 -0.0856  0.2587 -0.1665
  485loPI   C4A 7754  13.385  10.613   9.270 -0.3227 -0.2004 -0.0439
  485loPI   C5A 7755  13.381  10.561   8.833  0.1560 -0.2421 -0.1733
  485loPI   C6A 7756  13.044  10.713   8.624  0.2097 -0.1802  0.3173
  485loPI   C1B 7757  13.836  10.333  10.180 -0.1034  0.1481  0.0321
  485loPI   C2B 7758  13.873  10.289   9.758 -0.1951 -0.2920 -0.1760
  485loPI   C3B 7759  13.861  10.419   9.325 -0.3145 -0.2070 -0.1155
  485loPI   C4B 7760  13.872  10.492   8.803  0.1404 -0.1812  0.0245
  486loPI    C1 7761   0.893   9.351  10.817  0.0283 -0.0727 -0.0361
  486loPI    C2 7762   0.712   9.398  11.170  0.1353  0.3219 -0.0292
  486loPI    C3 7763   1.051   9.186  11.145 -0.1245 -0.1106  0.0188
  486loPI   PO4 7764   0.634   9.267  10.679  0.1022 -0.0907 -0.2507
  486loPI   GL1 7765   0.437   9.484  10.244  0.1600  0.0502 -0.1565
  486loPI   GL2 7766   0.085   9.418  10.310 -0.3274 -0.1611 -0.2480
  486loPI   C1A 7767   0.446   9.374   9.849 -0.1868  0.0042 -0.1088
  486loPI   C2A 7768   0.458   9.316   9.462  0.0688  0.3172 -0.3244
  486loPI   C3A 7769   0.471   9.408   9.059  0.1199  0.2652 -0.0257
  486loPI   C4A 7770   0.498   9.412   8.574  0.1442  0.2917  0.2544
  486loPI   C5A 7771   0.597   9.691   8.283  0.1045 -0.2603 -0.3867
  486loPI   C6A 7772   0.449  10.065   8.006  0.2771  0.1235  0.1669
  486loPI   C1B 7773  -0.034   9.540  10.017  0.1549  0.1313 -0.2511
  486loPI   C2B 7774  -0.035   9.535   9.650 -0.1884 -0.0457 -0.1323
  486loPI   C3B 7775   0.013   9.547   9.220  0.2813 -0.2888  0.0967
  486loPI   C4B 7776   0.045   9.599   8.784  0.1073 -0.1964 -0.0541
  487loPI    C1 7777   4.156   3.583  11.285 -0.0081 -0.0262  0.0498
  487loPI    C2 7778   4.399   3.837  11.475  0.0274  0.0151 -0.0503
  487loPI    C3 7779   4.008   3.838  11.555  0.0441  0.0226  0.0326
  487loPI   PO4 7780   4.259   3.579  10.987  0.5514  0.1432  0.1738
  487loPI   GL1 7781   4.464   3.492  10.684  0.0225 -0.1505 -0.0960
  487loPI   GL2 7782   4.611   3.413  10.365 -0.1232 -0.0584  0.0840
  487loPI   C1A 7783   4.167   3.714  10.339 -0.1934 -0.2771  0.4489
  487loPI   C2A 7784   4.079   3.758   9.818 -0.3528 -0.2536  0.0359
  487loPI   C3A 7785   4.132   3.768   9.317 -0.1793 -0.2176 -0.2424
  487loPI   C4A 7786   4.207   3.835   8.902 -0.1435 -0.2228 -0.1524
  487loPI   C5A 7787   4.118   4.146   8.476  0.0860 -0.1742  0.2308
  487loPI   C6A 7788   4.223   4.539   8.252  0.1352  0.2129 -0.1438
  487loPI   C1B 7789   4.403   3.408   9.978 -0.0542  0.2454  0.3139
  487loPI   C2B 7790   4.280   3.389   9.557  0.1435 -0.3626  0.1429
  487loPI   C3B 7791   4.470   3.398   9.158 -0.0354  0.0117  0.1111
  487loPI   C4B 7792   4.671   3.517   8.729 -0.1057 -0.0779 -0.0833
  488loPI    C1 7793  13.579  14.093  11.481 -0.0258  0.0326  0.2002
  488loPI    C2 7794  13.653  14.452  11.642 -0.0973  0.0693  0.1519
  488loPI    C3 7795  13.946  14.181  11.613  0.0043  0.1921  0.0162
  488loPI   PO4 7796  13.403  14.096  11.229 -0.0461  0.3319 -0.1646
  488loPI   GL1 7797  13.194  13.911  10.871 -0.0199 -0.1021 -0.0493
  488loPI   GL2 7798  12.920  14.034  10.673  0.1237  0.2519 -0.1823
  488loPI   C1A 7799  13.512  13.788  10.541 -0.0260 -0.1910  0.0628
  488loPI   C2A 7800  13.607  13.750  10.132 -0.3813  0.0110  0.2303
  488loPI   C3A 7801  13.681  13.765   9.612  0.1090 -0.2001  0.0010
  488loPI   C4A 7802  13.716  13.768   9.206  0.1257  0.1485 -0.2182
  488loPI   C5A 7803  13.734  13.742   8.757  0.0518  0.1301  0.1887
  488loPI   C6A 7804  13.831  13.737   8.327  0.3277 -0.1699 -0.1702
  488loPI   C1B 7805  13.104  13.883  10.270  0.3780  0.0966 -0.1075
  488loPI   C2B 7806  13.203  13.900   9.843 -0.3299 -0.0759  0.0872
  488loPI   C3B 7807  13.154  13.972   9.347 -0.0476 -0.0222  0.1785
  488loPI   C4B 7808  13.174  13.919   8.902 -0.0793  0.1977 -0.0614
  489loPI    C1 7809   3.095  17.480  10.962  0.1340  0.1222 -0.2599
  489loPI    C2 7810   2.861  17.313  11.240  0.2743 -0.0130 -0.2216
  489loPI    C3 7811   2.759  17.664  11.077  0.2143  0.0906  0.0336
  489loPI   PO4 7812   3.139  17.395  10.805 -0.2388 -0.0450 -0.0925
  489loPI   GL1 7813   3.051  17.132  10.402  0.1659 -0.1067  0.5756
  489loPI   GL2 7814   3.116  17.522  10.247  0.0801  0.0407 -0.2001
  489loPI   C1A 7815   3.147  17.085   9.944 -0.1410 -0.0587 -0.1700
  489loPI   C2A 7816   3.258  17.146   9.503  0.0892 -0.2252 -0.0832
  489loPI   C3A 7817   3.245  17.268   9.085  0.0345 -0.2666 -0.1524
  489loPI   C4A 7818   3.367  17.031   8.713 -0.0980  0.1655 -0.2453
  489loPI   C5A 7819   3.792  16.927   8.512 -0.1524  0.2098  0.1664
  489loPI   C6A 7820   4.187  16.838   8.664 -0.0801  0.1822  0.0597
  489loPI   C1B 7821   3.221  17.594   9.852 -0.1141  0.1029  0.6436
  489loPI   C2B 7822   3.219  17.675   9.321  0.1815  0.2553 -0.0797
  489loPI   C3B 7823   3.119  17.746   8.925  0.0750 -0.0380 -0.1447
  489loPI   C4B 7824   3.419  17.730   8.497 -0.0414  0.1143 -0.0946
  490loPI    C1 7825   9.903   5.166  11.286 -0.0638  0.3664 -0.2847
  490loPI    C2 7826   9.675   5.494  11.300 -0.2847  0.2025  0.1763
  490loPI    C3 7827   9.820   5.338  11.638  0.0597 -0.0122 -0.0648
  490loPI   PO4 7828   9.709   4.962  11.014  0.1330  0.1814  0.1350
  490loPI   GL1 7829   9.633   4.814  10.605  0.0694 -0.3398  0.0997
  490loPI   GL2 7830   9.557   5.019  10.432 -0.1018  0.6929  0.0822
  490loPI   C1A 7831   9.804   4.634  10.221  0.0716 -0.1264  0.0747
  490loPI   C2A 7832   9.805   4.707   9.745 -0.1438 -0.0951  0.3281
  490loPI   C3A 7833   9.887   4.819   9.326 -0.1519 -0.0798  0.3424
  490loPI   C4A 7834  10.106   5.067   9.004 -0.3023  0.0172  0.1075
  490loPI   C5A 7835  10.226   4.833   8.521 -0.3101 -0.2754 -0.4294
  490loPI   C6A 7836  10.403   5.076   8.205 -0.0852  0.0912 -0.0293
  490loPI   C1B 7837   9.375   4.891   9.961  0.1725  0.0007 -0.2988
  490loPI   C2B 7838   9.426   4.962   9.488  0.0244 -0.0877 -0.3597
  490loPI   C3B 7839   9.583   5.225   9.193 -0.0571  0.1741  0.1394
  490loPI   C4B 7840   9.990   5.542   9.033 -0.1525  0.0673  0.2474
  491loPI    C1 7841  12.453   4.879  10.629 -0.0173  0.0720  0.0213
  491loPI    C2 7842  12.267   5.182  10.813  0.0710  0.0815  0.0952
  491loPI    C3 7843  12.166   4.804  10.897 -0.0410  0.0899  0.0009
  491loPI   PO4 7844  12.471   4.958  10.385 -0.0952 -0.0488  0.0693
  491loPI   GL1 7845  12.280   5.114  10.034 -0.0382  0.0076  0.1020
  491loPI   GL2 7846  11.994   5.127   9.952 -0.0815 -0.0006 -0.0445
  491loPI   C1A 7847  12.285   5.284   9.536  0.1300  0.3383  0.2939
  491loPI   C2A 7848  11.868   5.386   9.244  0.0095  0.1515 -0.1404
  491loPI   C3A 7849  11.621   5.740   8.988 -0.1944  0.0606 -0.0560
  491loPI   C4A 7850  11.476   6.079   8.729 -0.0075 -0.0649  0.0864
  491loPI   C5A 7851  11.220   6.323   8.531  0.2490  0.0865 -0.1310
  491loPI   C6A 7852  10.800   6.422   8.326  0.1121 -0.0007  0.1488
  491loPI   C1B 7853  11.696   5.436   9.719 -0.4047  0.1663 -0.0425
  491loPI   C2B 7854  11.598   5.850   9.640  0.1058 -0.3188  0.1224
  491loPI   C3B 7855  11.395   6.098   9.444 -0.1652  0.1209  0.2620
  491loPI   C4B 7856  11.336   6.331   9.163 -0.1230 -0.1223  0.1023
  492loPI    C1 7857  16.353   1.330  10.888 -0.2176 -0.2707  0.1055
  492loPI    C2 7858  16.604   1.087  11.083 -0.0362 -0.1639  0.0082
  492loPI    C3 7859  16.258   1.194  11.253 -0.0146 -0.3077  0.1460
  492loPI   PO4 7860  16.379   1.196  10.640  0.1891  0.1147 -0.1153
  492loPI   GL1 7861  16.389   1.133  10.218  0.2053  0.0972 -0.0021
  492loPI   GL2 7862  16.264   1.274   9.998  0.1693 -0.1288 -0.4626
  492loPI   C1A 7863  16.598   0.947   9.819  0.0347 -0.0206 -0.0896
  492loPI   C2A 7864  16.808   0.733   9.483  0.0057  0.0711 -0.0572
  492loPI   C3A 7865  16.972   0.622   9.128  0.0335 -0.0879  0.0566
  492loPI   C4A 7866  16.874   0.511   8.776  0.1870 -0.0469 -0.1093
  492loPI   C5A 7867  16.646   0.463   8.414  0.3364 -0.0519 -0.0999
  492loPI   C6A 7868  16.410   0.248   8.111  0.0701  0.0212 -0.2463
  492loPI   C1B 7869  16.064   0.998   9.665 -0.1152 -0.1731 -0.1748
  492loPI   C2B 7870  15.802   1.083   9.323  0.1572 -0.0722  0.0047
  492loPI   C3B 7871  15.677   1.307   8.967  0.1717 -0.2659 -0.2109
  492loPI   C4B 7872  15.477   1.268   8.688  0.1228  0.3303 -0.3128
  493loPI    C1 7873   1.701   7.543  10.955  0.2638  0.1682  0.0015
  493loPI    C2 7874   1.611   7.549  11.345  0.1227 -0.1295 -0.0243
  493loPI    C3 7875   1.881   7.288  11.206 -0.0876 -0.2691 -0.1774
  493loPI   PO4 7876   1.599   7.733  10.857  0.2240 -0.3227  0.1309
  493loPI   GL1 7877   1.746   7.868  10.502  0.1638 -0.2185  0.0294
  493loPI   GL2 7878   1.572   8.035  10.280 -0.0246 -0.0538 -0.0202
  493loPI   C1A 7879   1.845   7.611  10.107  0.3029 -0.0503  0.0728
  493loPI   C2A 7880   1.940   7.685   9.721  0.0290 -0.3828  0.2430
  493loPI   C3A 7881   1.919   7.763   9.251 -0.0187 -0.0144  0.0423
  493loPI   C4A 7882   1.846   7.676   8.816  0.0191 -0.2143  0.0698
  493loPI   C5A 7883   1.808   7.784   8.408  0.0603  0.1162 -0.3949
  493loPI   C6A 7884   2.008   7.995   8.086  0.0967  0.1064 -0.0993
  493loPI   C1B 7885   1.737   8.101   9.824  0.0873  0.0168  0.0422
  493loPI   C2B 7886   1.618   8.134   9.463  0.1845 -0.3850  0.2352
  493loPI   C3B 7887   1.625   8.089   9.022 -0.4030  0.1426 -0.0897
  493loPI   C4B 7888   1.438   7.923   8.716 -0.0165 -0.1290 -0.0676
  494loPI    C1 7889   0.827   3.771  10.677  0.1793 -0.2156  0.0127
  494loPI    C2 7890   1.017   4.031  10.913 -0.0730 -0.0300  0.0155
  494loPI    C3 7891   0.726   3.801  11.063 -0.1370 -0.0130 -0.0818
  494loPI   PO4 7892   0.811   3.808  10.471 -0.2038  0.2492 -0.0761
  494loPI   GL1 7893   0.903   3.924  10.109  0.1856 -0.2335  0.2198
  494loPI   GL2 7894   1.071   3.645   9.960 -0.2060 -0.1605 -0.0306
  494loPI   C1A 7895   0.823   4.026   9.694  0.0311 -0.0103  0.0194
  494loPI   C2A 7896   1.002   3.954   9.342  0.1520 -0.2953  0.0187
  494loPI   C3A 7897   1.177   4.331   9.060 -0.0953  0.0377  0.1064
  494loPI   C4A 7898   1.119   4.439   8.670 -0.2573 -0.0802 -0.0615
  494loPI   C5A 7899   0.868   4.348   8.462 -0.1111  0.0511 -0.1594
  494loPI   C6A 7900   0.768   4.039   8.061 -0.0147 -0.2138  0.0242
  494loPI   C1B 7901   1.398   3.613   9.576  0.0314 -0.0258 -0.0151
  494loPI   C2B 7902   1.461   3.641   9.212 -0.0903 -0.3531  0.1183
  494loPI   C3B 7903   1.371   3.661   8.790 -0.0546 -0.1583 -0.1007
  494loPI   C4B 7904   1.130   3.531   8.453 -0.1740 -0.0527 -0.1323
  495loPI    C1 7905   6.402  17.694  10.869 -0.0646  0.0020 -0.0465
  495loPI    C2 7906   6.108  17.690  11.140 -0.0129  0.0385  0.0105
  495loPI    C3 7907   6.064  17.894  10.799 -0.0969 -0.0464 -0.0298
  495loPI   PO4 7908   6.417  17.449  10.745  0.0832  0.0902  0.2257
  495loPI   GL1 7909   6.412  17.215  10.358 -0.2216  0.1213 -0.1183
  495loPI   GL2 7910   6.259  17.458  10.133  0.2602  0.0311  0.3556
  495loPI   C1A 7911   6.316  17.046   9.933 -0.3172 -0.0002 -0.1928
  495loPI   C2A 7912   6.297  17.161   9.430  0.0066 -0.1281  0.0181
  495loPI   C3A 7913   6.351  17.170   9.019  0.1568 -0.1350  0.3500
  495loPI   C4A 7914   6.545  16.924   8.757  0.1080  0.3095  0.0255
  495loPI   C5A 7915   6.655  16.520   8.785  0.0984 -0.3689 -0.3953
  495loPI   C6A 7916   6.765  16.128   8.598 -0.0215 -0.0767  0.0876
  495loPI   C1B 7917   6.191  17.567   9.688 -0.2367  0.0546  0.4326
  495loPI   C2B 7918   6.041  17.543   9.187 -0.1458  0.1225  0.3335
  495loPI   C3B 7919   6.005  17.449   8.681  0.0869 -0.2198 -0.1337
  495loPI   C4B 7920   6.142  17.218   8.312 -0.1641  0.0037 -0.0147
  496loPI    C1 7921  15.267   0.167  10.906  0.0984 -0.0787  0.3028
  496loPI    C2 7922  15.548   0.447  10.965 -0.0992  0.1355  0.2429
  496loPI    C3 7923  15.166   0.525  11.053 -0.1941 -0.0269 -0.0131
  496loPI   PO4 7924  15.245   0.085  10.657  0.3248  0.0412 -0.0688
  496loPI   GL1 7925  15.047  -0.150  10.362  0.0201  0.0625  0.1990
  496loPI   GL2 7926  14.866  -0.398  10.334  0.0277  0.0974  0.1916
  496loPI   C1A 7927  15.139  -0.076   9.942 -0.2462  0.0505 -0.1044
  496loPI   C2A 7928  15.238  -0.212   9.545  0.0205 -0.1364 -0.0276
  496loPI   C3A 7929  15.162  -0.393   9.144 -0.2323  0.0113  0.2624
  496loPI   C4A 7930  15.099  -0.250   8.666  0.0259 -0.1317  0.1164
  496loPI   C5A 7931  14.972  -0.392   8.221  0.1585 -0.0003  0.0264
  496loPI   C6A 7932  15.208  -0.309   7.963  0.1126 -0.1847  0.1274
  496loPI   C1B 7933  14.797  -0.648   9.979 -0.0574  0.0646 -0.1878
  496loPI   C2B 7934  14.782  -0.599   9.488  0.1781  0.3399 -0.1743
  496loPI   C3B 7935  14.772  -0.707   9.079  0.1269  0.0745 -0.2971
  496loPI   C4B 7936  14.829  -0.692   8.692 -0.0532 -0.2765  0.1048
  497loPI    C1 7937  10.460  13.006  11.160 -0.0577  0.0111 -0.0739
  497loPI    C2 7938  10.646  13.014  11.514  0.0544  0.0006 -0.1320
  497loPI    C3 7939  10.361  12.743  11.445 -0.1936  0.2069  0.0619
  497loPI   PO4 7940  10.650  12.992  11.015  0.2125  0.2464  0.2969
  497loPI   GL1 7941  10.754  13.310  10.800 -0.0792  0.0911 -0.1176
  497loPI   GL2 7942  10.927  13.140  10.515  0.3240  0.2793 -0.3636
  497loPI   C1A 7943  10.807  13.631  10.373 -0.1500  0.2383  0.2184
  497loPI   C2A 7944  10.928  13.683   9.913  0.1004 -0.0084 -0.1622
  497loPI   C3A 7945  10.863  13.685   9.372 -0.0300  0.0259  0.0479
  497loPI   C4A 7946  10.996  13.776   8.970  0.3824 -0.0173  0.1147
  497loPI   C5A 7947  11.052  13.743   8.551  0.2518 -0.0305 -0.3325
  497loPI   C6A 7948  10.841  13.533   8.307  0.0326  0.2139  0.0111
  497loPI   C1B 7949  11.033  13.177  10.069 -0.0338  0.0862  0.0940
  497loPI   C2B 7950  10.990  13.214   9.603 -0.0922 -0.2047  0.1799
  497loPI   C3B 7951  10.959  13.186   9.191 -0.3750 -0.1892  0.0890
  497loPI   C4B 7952  10.900  13.312   8.767  0.2179  0.3479  0.1026
  498loPI    C1 7953  16.677   0.250  10.686 -0.1634  0.0873  0.0189
  498loPI    C2 7954  16.390   0.036  10.863  0.1307 -0.0704  0.3177
  498loPI    C3 7955  16.487   0.397  11.006 -0.2678  0.2146 -0.1002
  498loPI   PO4 7956  16.918   0.156  10.636  0.0621  0.0323  0.0454
  498loPI   GL1 7957  17.044   0.005  10.257 -0.2197 -0.2717  0.0689
  498loPI   GL2 7958  17.079  -0.247  10.214  0.1175 -0.1480 -0.1779
  498loPI   C1A 7959  16.951   0.062   9.779 -0.3435 -0.0378 -0.0159
  498loPI   C2A 7960  16.822   0.219   9.328  0.2708  0.1516  0.0059
  498loPI   C3A 7961  16.509   0.228   9.065  0.1679  0.1959 -0.2305
  498loPI   C4A 7962  16.269   0.422   8.727 -0.5674  0.1634  0.3508
  498loPI   C5A 7963  16.211   0.691   8.462 -0.1484  0.3030 -0.1366
  498loPI   C6A 7964  16.030   0.854   8.065  0.1423  0.2915 -0.1610
  498loPI   C1B 7965  17.035  -0.424   9.815  0.4542 -0.3479 -0.2464
  498loPI   C2B 7966  17.037  -0.499   9.309  0.0050  0.0692  0.0044
  498loPI   C3B 7967  17.146  -0.670   8.906  0.0119  0.2371  0.1809
  498loPI   C4B 7968  17.267  -0.828   8.416  0.1368 -0.1179  0.0179
  499loPI    C1 7969  12.333   5.671  10.914 -0.1603  0.0710  0.1193
  499loPI    C2 7970  12.462   5.878  11.231 -0.0174 -0.0408  0.1350
  499loPI    C3 7971  12.423   5.480  11.254 -0.0824 -0.0404  0.0368
  499loPI   PO4 7972  12.392   5.769  10.704 -0.0179 -0.1227  0.0869
  499loPI   GL1 7973  12.454   5.967  10.292 -0.2276  0.0005  0.0921
  499loPI   GL2 7974  12.760   5.874  10.171  0.0685 -0.0264 -0.0147
  499loPI   C1A 7975  12.358   6.100   9.908 -0.0543  0.1477  0.1534
  499loPI   C2A 7976  12.493   6.161   9.513 -0.2692  0.1988 -0.0371
  499loPI   C3A 7977  12.426   6.181   9.150  0.4161 -0.0365 -0.2488
  499loPI   C4A 7978  12.210   6.115   8.768 -0.1061  0.1785 -0.1777
  499loPI   C5A 7979  11.995   6.373   8.460  0.0972 -0.1991  0.1426
  499loPI   C6A 7980  11.712   6.611   8.300 -0.0147  0.1305 -0.0446
  499loPI   C1B 7981  12.943   5.926   9.724  0.1854  0.1174  0.2582
  499loPI   C2B 7982  12.916   6.017   9.294 -0.2006  0.0876  0.2377
  499loPI   C3B 7983  12.660   5.846   8.893  0.3323  0.0451 -0.2139
  499loPI   C4B 7984  12.395   5.711   8.521 -0.1847 -0.2181  0.0447
  500loPI    C1 7985  14.491   5.562  10.779 -0.1305  0.0178 -0.0130
  500loPI    C2 7986  14.530   5.695  11.155 -0.0106  0.2798 -0.1156
  500loPI    C3 7987  14.191   5.516  11.040  0.0183  0.0394  0.1637
  500loPI   PO4 7988  14.685   5.771  10.665  0.0511 -0.3506 -0.0373
  500loPI   GL1 7989  14.853   5.852  10.239 -0.0390  0.1492 -0.3520
  500loPI   GL2 7990  14.971   6.069  10.008  0.5698 -0.0892  0.1959
  500loPI   C1A 7991  14.774   5.720   9.802  0.1698 -0.0157 -0.0492
  500loPI   C2A 7992  14.517   5.435   9.588  0.0011  0.0497  0.1331
  500loPI   C3A 7993  14.418   5.439   9.161  0.1681 -0.0577  0.1259
  500loPI   C4A 7994  14.345   5.404   8.657 -0.0403 -0.2370  0.2720
  500loPI   C5A 7995  14.086   5.364   8.372 -0.0937  0.1162  0.1439
  500loPI   C6A 7996  13.788   5.349   8.000  0.3689  0.2731  0.0950
  500loPI   C1B 7997  14.831   6.147   9.558  0.1844  0.2603 -0.0999
  500loPI   C2B 7998  14.723   6.398   9.207  0.2247  0.1748  0.0981
  500loPI   C3B 7999  14.639   6.403   8.862  0.1760 -0.3827 -0.0159
  500loPI   C4B 8000  14.558   6.634   8.535  0.2588  0.2108 -0.1342
  501loPI    C1 8001   5.548   6.822  11.627 -0.3758 -0.0847 -0.3133
  501loPI    C2 8002   5.446   7.207  11.664 -0.0999 -0.0237 -0.1542
  501loPI    C3 8003   5.215   6.923  11.824 -0.1438  0.0957 -0.0036
  501loPI   PO4 8004   5.549   6.747  11.364  0.3692  0.2430 -0.0202
  501loPI   GL1 8005   5.640   6.738  11.003  0.0713 -0.1770 -0.1440
  501loPI   GL2 8006   6.013   6.875  10.973  0.0612  0.0182  0.1643
  501loPI   C1A 8007   5.518   6.641  10.544 -0.3941  0.1865  0.0393
  501loPI   C2A 8008   5.550   6.702  10.142 -0.1493  0.2830  0.0879
  501loPI   C3A 8009   5.433   6.693   9.680  0.0321  0.4047  0.2512
  501loPI   C4A 8010   5.532   6.781   9.296  0.0573  0.2272 -0.1289
  501loPI   C5A 8011   5.694   6.920   8.867 -0.0843 -0.0266 -0.0498
  501loPI   C6A 8012   5.467   7.124   8.678  0.3057 -0.3095  0.1048
  501loPI   C1B 8013   5.991   6.891  10.572 -0.2620 -0.2123  0.0645
  501loPI   C2B 8014   6.029   6.875  10.132 -0.0989  0.0252 -0.0127
  501loPI   C3B 8015   6.035   6.955   9.738  0.0829  0.0965 -0.1059
  501loPI   C4B 8016   6.085   7.031   9.334 -0.0375 -0.1320  0.1157
  502loPI    C1 8017  14.022   9.554  11.557  0.1908  0.3080 -0.0576
  502loPI    C2 8018  14.069   9.370  11.909 -0.0708  0.2327 -0.0594
  502loPI    C3 8019  13.890   9.727  11.892 -0.1503  0.1901 -0.1261
  502loPI   PO4 8020  13.885   9.391  11.346  0.2637  0.3370  0.1911
  502loPI   GL1 8021  13.812   9.380  10.928  0.2630 -0.1605 -0.0838
  502loPI   GL2 8022  14.030   9.448  10.730  0.0327  0.2600 -0.3012
  502loPI   C1A 8023  13.506   9.420  10.705 -0.1024  0.1472  0.0588
  502loPI   C2A 8024  13.195   9.634  10.530 -0.1165  0.2037 -0.0714
  502loPI   C3A 8025  13.081   9.733  10.130  0.1365 -0.0550 -0.3158
  502loPI   C4A 8026  13.066   9.724   9.717  0.0145 -0.1518  0.0354
  502loPI   C5A 8027  13.132   9.801   9.249 -0.3431  0.1374 -0.1707
  502loPI   C6A 8028  12.860   9.793   8.814  0.1052 -0.1378  0.2020
  502loPI   C1B 8029  14.160   9.394  10.289  0.1667 -0.0538 -0.0068
  502loPI   C2B 8030  14.049   9.402   9.874 -0.0499  0.1137 -0.1359
  502loPI   C3B 8031  14.040   9.414   9.467  0.3533 -0.4833  0.4364
  502loPI   C4B 8032  14.132   9.507   9.148 -0.0642  0.0822 -0.2394
  503loPI    C1 8033   2.273  13.053  11.270 -0.0842  0.0344  0.0994
  503loPI    C2 8034   2.589  13.204  11.077 -0.0492 -0.1214  0.0341
  503loPI    C3 8035   2.549  13.262  11.470 -0.1085  0.1767 -0.0140
  503loPI   PO4 8036   2.106  13.087  11.025  0.0073 -0.3174  0.2884
  503loPI   GL1 8037   2.179  13.088  10.604  0.1513  0.1178 -0.0286
  503loPI   GL2 8038   2.442  13.322  10.624 -0.2609  0.2347 -0.3168
  503loPI   C1A 8039   2.030  13.181  10.208  0.1635 -0.1723  0.0239
  503loPI   C2A 8040   2.043  13.106   9.740  0.1101  0.1681  0.0088
  503loPI   C3A 8041   2.064  13.184   9.328  0.0982 -0.0723  0.0780
  503loPI   C4A 8042   2.157  13.416   9.054 -0.3919 -0.2189  0.1275
  503loPI   C5A 8043   2.297  13.456   8.641  0.2645 -0.1086  0.3748
  503loPI   C6A 8044   2.619  13.705   8.335 -0.0755 -0.0012 -0.1061
  503loPI   C1B 8045   2.440  13.469  10.128  0.2189 -0.0791 -0.0153
  503loPI   C2B 8046   2.500  13.440   9.676 -0.0052  0.2109 -0.0226
  503loPI   C3B 8047   2.577  13.529   9.251 -0.0954 -0.1889  0.1575
  503loPI   C4B 8048   2.712  13.501   8.903 -0.1833 -0.0856 -0.0029
  504loPI    C1 8049  16.515   4.487  10.873  0.0220 -0.0179 -0.0003
  504loPI    C2 8050  16.145   4.625  10.936 -0.0057 -0.0627 -0.0653
  504loPI    C3 8051  16.445   4.741  11.174 -0.0077  0.1988 -0.1870
  504loPI   PO4 8052  16.485   4.374  10.613  0.3372  0.0585 -0.0483
  504loPI   GL1 8053  16.648   4.225  10.308  0.0352  0.0398  0.0670
  504loPI   GL2 8054  16.921   4.156  10.274 -0.1723 -0.0463  0.2058
  504loPI   C1A 8055  16.522   4.378   9.910  0.1137  0.1228 -0.0055
  504loPI   C2A 8056  16.572   4.335   9.445 -0.1255  0.1686  0.1051
  504loPI   C3A 8057  16.525   4.275   8.988 -0.1121 -0.1943  0.1062
  504loPI   C4A 8058  16.506   4.001   8.566  0.1067 -0.0491 -0.0048
  504loPI   C5A 8059  16.667   3.773   8.268 -0.2119  0.1403 -0.4205
  504loPI   C6A 8060  17.116   3.569   8.172 -0.0892  0.1251  0.0593
  504loPI   C1B 8061  16.971   4.040   9.872 -0.0668 -0.1375  0.2124
  504loPI   C2B 8062  16.864   3.948   9.403  0.1832  0.0277 -0.0394
  504loPI   C3B 8063  16.848   3.839   9.033  0.0977  0.0648 -0.0030
  504loPI   C4B 8064  17.011   3.737   8.680 -0.1751  0.0923  0.0413
  505loPI    C1 8065  14.754   2.678  10.597 -0.1123 -0.0372  0.1654
  505loPI    C2 8066  14.930   2.319  10.577  0.1047  0.0823 -0.1349
  505loPI    C3 8067  15.004   2.561  10.886  0.2171  0.0012 -0.0976
  505loPI   PO4 8068  14.758   2.789  10.473  0.0781 -0.1249 -0.3887
  505loPI   GL1 8069  14.729   2.719  10.020 -0.1634 -0.1461 -0.2642
  505loPI   GL2 8070  14.910   2.961  10.054 -0.3015 -0.0052  0.0294
  505loPI   C1A 8071  14.559   2.534   9.622 -0.1540  0.1731 -0.0298
  505loPI   C2A 8072  14.423   2.702   9.165 -0.2492  0.0440  0.2941
  505loPI   C3A 8073  14.405   2.826   8.704  0.0196 -0.0168 -0.1851
  505loPI   C4A 8074  14.134   3.014   8.472  0.1801  0.1855 -0.2233
  505loPI   C5A 8075  14.091   3.466   8.182 -0.2098  0.1146 -0.1965
  505loPI   C6A 8076  14.043   3.861   7.868 -0.0430  0.2113 -0.1940
  505loPI   C1B 8077  14.677   2.984   9.585  0.1600  0.0065 -0.2688
  505loPI   C2B 8078  14.537   3.201   9.289 -0.3081  0.1710 -0.1101
  505loPI   C3B 8079  14.536   3.362   8.951  0.1231 -0.2914 -0.1437
  505loPI   C4B 8080  14.457   3.490   8.484 -0.1431 -0.2527 -0.0845
  506loPI    C1 8081   2.145   5.833  10.790  0.0832 -0.0651 -0.1884
  506loPI    C2 8082   1.955   5.682  11.108 -0.0528 -0.0027 -0.2393
  506loPI    C3 8083   2.311   5.858  11.153 -0.1858  0.2321 -0.0806
  506loPI   PO4 8084   1.943   5.941  10.680  0.2597 -0.1294  0.1178
  506loPI   GL1 8085   1.918   5.976  10.281  0.0575 -0.0667  0.1821
  506loPI   GL2 8086   1.675   5.761  10.194 -0.2480 -0.0825  0.2089
  506loPI   C1A 8087   1.808   6.166   9.904  0.0153  0.3577 -0.0816
  506loPI   C2A 8088   1.817   6.156   9.493 -0.1340  0.1111 -0.1611
  506loPI   C3A 8089   1.841   6.104   9.113 -0.3577 -0.3558 -0.1346
  506loPI   C4A 8090   1.757   6.119   8.688 -0.3300 -0.0996 -0.0401
  506loPI   C5A 8091   1.894   5.995   8.283  0.1864  0.0239  0.0168
  506loPI   C6A 8092   1.717   5.744   7.904 -0.0086 -0.1018  0.0620
  506loPI   C1B 8093   1.806   5.645   9.803  0.0617 -0.2263 -0.0463
  506loPI   C2B 8094   1.803   5.672   9.390  0.0624 -0.0605  0.2307
  506loPI   C3B 8095   1.800   5.629   8.946  0.1372  0.2812  0.2023
  506loPI   C4B 8096   1.731   5.629   8.514  0.3273 -0.0005 -0.0530
  507loPI    C1 8097  16.862   8.928  11.002 -0.0657 -0.1192 -0.2826
  507loPI    C2 8098  17.221   8.857  10.842  0.1781 -0.1699  0.2632
  507loPI    C3 8099  17.083   8.622  11.135 -0.2494 -0.0734  0.1460
  507loPI   PO4 8100  16.756   9.037  10.870  0.0057 -0.1573 -0.1786
  507loPI   GL1 8101  16.647   9.377  10.577 -0.1807 -0.0461 -0.0633
  507loPI   GL2 8102  16.290   9.459  10.633 -0.3056  0.1208 -0.3125
  507loPI   C1A 8103  16.882   9.458  10.216 -0.1833 -0.1244  0.0431
  507loPI   C2A 8104  16.901   9.377   9.787  0.1957  0.1409 -0.0656
  507loPI   C3A 8105  16.971   9.298   9.395 -0.0710  0.2120  0.0886
  507loPI   C4A 8106  17.065   9.329   8.922  0.2345 -0.2192 -0.1071
  507loPI   C5A 8107  16.982   9.491   8.596 -0.0103  0.1597  0.2954
  507loPI   C6A 8108  16.601   9.605   8.374 -0.3156  0.3534  0.0074
  507loPI   C1B 8109  16.354   9.668  10.270  0.0377  0.1425  0.4334
  507loPI   C2B 8110  16.483   9.646   9.963 -0.1628 -0.2293 -0.2051
  507loPI   C3B 8111  16.497   9.524   9.549 -0.1689  0.0029  0.1325
  507loPI   C4B 8112  16.584   9.429   9.021  0.1414 -0.4161  0.2995
  508loPI    C1 8113  16.017   0.484  10.855  0.1666  0.0963 -0.0941
  508loPI    C2 8114  16.221   0.814  10.951  0.0017  0.1170  0.1988
  508loPI    C3 8115  16.133   0.546  11.233  0.0130 -0.1112 -0.0113
  508loPI   PO4 8116  16.146   0.411  10.619 -0.0289  0.3438 -0.1070
  508loPI   GL1 8117  16.178   0.147  10.284  0.0739 -0.0665 -0.2582
  508loPI   GL2 8118  16.118  -0.223  10.186 -0.1619  0.2645  0.1217
  508loPI   C1A 8119  16.016   0.038   9.771 -0.1865 -0.0321  0.2379
  508loPI   C2A 8120  16.126  -0.038   9.299 -0.1575  0.0489  0.0989
  508loPI   C3A 8121  16.064  -0.057   8.874 -0.0283 -0.1638  0.1548
  508loPI   C4A 8122  15.993   0.031   8.463  0.0390  0.1445 -0.1315
  508loPI   C5A 8123  15.948   0.356   8.146  0.0631 -0.2080  0.1337
  508loPI   C6A 8124  15.581   0.585   7.959 -0.0249  0.0640 -0.0416
  508loPI   C1B 8125  16.192  -0.508   9.834 -0.0944  0.0979  0.2932
  508loPI   C2B 8126  16.206  -0.757   9.417  0.1805  0.0517  0.1231
  508loPI   C3B 8127  16.266  -0.671   8.927 -0.2187  0.0360  0.0133
  508loPI   C4B 8128  16.050  -0.466   8.573  0.0013  0.1348  0.2122
  509loPI    C1 8129   0.375  17.332  10.799  0.0537  0.0536 -0.0418
  509loPI    C2 8130   0.606  17.207  11.101 -0.0536 -0.1067 -0.0249
  509loPI    C3 8131   0.512  17.594  11.068  0.3491 -0.0132 -0.1236
  509loPI   PO4 8132   0.540  17.228  10.540  0.1429 -0.2138 -0.1300
  509loPI   GL1 8133   0.874  17.238  10.210  0.0753 -0.3689 -0.1748
  509loPI   GL2 8134   0.719  17.610  10.144 -0.0348 -0.2272  0.0392
  509loPI   C1A 8135   0.625  17.048   9.764 -0.0962 -0.1391  0.0376
  509loPI   C2A 8136   0.639  16.784   9.382 -0.2805 -0.1200  0.0332
  509loPI   C3A 8137   0.701  16.665   8.929  0.1858  0.0714  0.0414
  509loPI   C4A 8138   0.454  16.612   8.553 -0.0085  0.0804  0.2822
  509loPI   C5A 8139   0.041  16.335   8.509 -0.1482 -0.2318 -0.0549
  509loPI   C6A 8140  -0.364  16.291   8.463 -0.0305 -0.2189  0.2269
  509loPI   C1B 8141   0.885  17.624   9.733 -0.3786  0.1034  0.1229
  509loPI   C2B 8142   0.707  17.476   9.292  0.0537 -0.0481  0.2786
  509loPI   C3B 8143   0.714  17.151   8.985 -0.1455 -0.0541  0.1931
  509loPI   C4B 8144   0.911  17.026   8.565  0.1938  0.1666 -0.0843
  510loPI    C1 8145   3.572  14.989  10.784  0.0525 -0.2232 -0.1374
  510loPI    C2 8146   3.247  14.931  11.010 -0.0764 -0.2059 -0.3165
  510loPI    C3 8147   3.567  15.116  11.164 -0.2727  0.0731 -0.2361
  510loPI   PO4 8148   3.411  15.044  10.508 -0.1053 -0.4720  0.1038
  510loPI   GL1 8149   3.427  15.191  10.050  0.1937  0.0747  0.1670
  510loPI   GL2 8150   3.115  15.209  10.151 -0.0519  0.0532 -0.1543
  510loPI   C1A 8151   3.375  15.179   9.674  0.0606  0.1168 -0.1104
  510loPI   C2A 8152   3.475  14.934   9.355 -0.0830  0.4184 -0.2235
  510loPI   C3A 8153   3.147  14.874   9.053 -0.1324  0.3392  0.0772
  510loPI   C4A 8154   3.270  15.114   8.538 -0.0000  0.1382  0.1939
  510loPI   C5A 8155   3.601  15.294   8.300  0.0253  0.0675  0.3459
  510loPI   C6A 8156   3.677  15.693   8.336  0.0686  0.0541  0.0850
  510loPI   C1B 8157   2.743  15.305   9.780  0.1062  0.0599 -0.1773
  510loPI   C2B 8158   2.370  15.374   9.514 -0.0364  0.0838 -0.2071
  510loPI   C3B 8159   2.218  15.370   9.034  0.2611 -0.0903  0.1686
  510loPI   C4B 8160   2.297  15.483   8.620  0.0151 -0.2525  0.2390
  511loPI    C1 8161  15.441  11.478  11.804  0.0236  0.0252  0.1547
  511loPI    C2 8162  15.131  11.262  11.675 -0.0073  0.2456 -0.1531
  511loPI    C3 8163  15.259  11.223  12.052 -0.1356 -0.1594 -0.1461
  511loPI   PO4 8164  15.556  11.509  11.569 -0.1544  0.1787 -0.0263
  511loPI   GL1 8165  15.590  11.668  11.126  0.2033  0.2913 -0.2316
  511loPI   GL2 8166  15.339  11.876  10.994 -0.1996 -0.1446 -0.4270
  511loPI   C1A 8167  15.855  11.533  10.780 -0.3658 -0.0450  0.2169
  511loPI   C2A 8168  15.869  11.553  10.292 -0.0480  0.0259 -0.1030
  511loPI   C3A 8169  15.830  11.636   9.914 -0.1472  0.1238 -0.2890
  511loPI   C4A 8170  15.908  11.661   9.539 -0.0425  0.0052  0.0990
  511loPI   C5A 8171  16.053  11.485   9.092 -0.1125  0.1110  0.2789
  511loPI   C6A 8172  16.429  11.586   8.924  0.0239 -0.0514 -0.3604
  511loPI   C1B 8173  15.453  11.721  10.585 -0.1261 -0.0449  0.3088
  511loPI   C2B 8174  15.340  11.787  10.310  0.2814 -0.0219 -0.0673
  511loPI   C3B 8175  15.369  11.837   9.859 -0.0596 -0.2297  0.0616
  511loPI   C4B 8176  15.374  11.727   9.424 -0.0371 -0.0993  0.1658
  512loPI    C1 8177   3.696   0.317  11.267 -0.0954 -0.1662  0.0749
  512loPI    C2 8178   4.085   0.228  11.296 -0.0697 -0.0643  0.0462
  512loPI    C3 8179   3.935   0.538  11.499 -0.1941 -0.2783  0.2872
  512loPI   PO4 8180   3.710   0.224  11.007 -0.1090  0.0318  0.1302
  512loPI   GL1 8181   3.859   0.336  10.549 -0.1477 -0.2525 -0.1691
  512loPI   GL2 8182   3.752   0.510  10.262 -0.0732  0.0185 -0.2825
  512loPI   C1A 8183   3.961   0.109  10.193  0.1125 -0.0073 -0.1716
  512loPI   C2A 8184   3.948   0.210   9.760  0.2248  0.0969 -0.2213
  512loPI   C3A 8185   4.095   0.215   9.367  0.0815 -0.0987  0.1528
  512loPI   C4A 8186   4.267   0.296   8.958 -0.0978 -0.3855 -0.1583
  512loPI   C5A 8187   4.486   0.377   8.581 -0.4550  0.0304  0.0939
  512loPI   C6A 8188   4.528   0.716   8.334  0.1523 -0.0394  0.1444
  512loPI   C1B 8189   3.669   0.589   9.854 -0.2127 -0.1268  0.2033
  512loPI   C2B 8190   3.763   0.558   9.370  0.1906  0.1169 -0.0902
  512loPI   C3B 8191   3.825   0.519   8.971  0.1437 -0.0348  0.0214
  512loPI   C4B 8192   4.048   0.667   8.656 -0.0337 -0.3245  0.0693
  513loPI    C1 8193   2.078   8.229  10.982 -0.1992  0.0447 -0.1791
  513loPI    C2 8194   1.828   7.999  11.194 -0.0422 -0.0255 -0.0674
  513loPI    C3 8195   2.181   8.105  11.349 -0.1541  0.3775 -0.0758
  513loPI   PO4 8196   2.079   8.165  10.722 -0.1241 -0.1711  0.0889
  513loPI   GL1 8197   2.173   8.111  10.356 -0.0299 -0.2551  0.1069
  513loPI   GL2 8198   2.100   8.341  10.078  0.0081  0.0735  0.1967
  513loPI   C1A 8199   2.235   7.841  10.091  0.2879 -0.1550 -0.2131
  513loPI   C2A 8200   2.438   7.872   9.676  0.4552  0.1402  0.2779
  513loPI   C3A 8201   2.524   8.038   9.222  0.0413 -0.0133  0.0733
  513loPI   C4A 8202   2.412   7.938   8.769 -0.1168  0.1414 -0.1897
  513loPI   C5A 8203   2.335   7.869   8.432 -0.3234  0.0808 -0.0355
  513loPI   C6A 8204   2.515   7.989   7.993  0.0273  0.0511 -0.4273
  513loPI   C1B 8205   2.107   8.256   9.569 -0.2225  0.3295  0.1149
  513loPI   C2B 8206   2.095   8.261   9.133  0.2212 -0.1859 -0.1480
  513loPI   C3B 8207   1.941   8.214   8.673  0.2482  0.2855  0.1192
  513loPI   C4B 8208   1.784   8.361   8.320  0.0553 -0.4396 -0.1240
  514loPI    C1 8209   3.155   9.341  10.935 -0.0965 -0.0306  0.0870
  514loPI    C2 8210   3.302   9.538  11.251  0.0700  0.0701 -0.0508
  514loPI    C3 8211   3.201   9.152  11.284 -0.0654  0.1222  0.1666
  514loPI   PO4 8212   3.341   9.410  10.686  0.1331 -0.0125 -0.1572
  514loPI   GL1 8213   3.368   9.303  10.260  0.0111  0.1571  0.1278
  514loPI   GL2 8214   3.026   9.255  10.039 -0.1078  0.0560  0.0186
  514loPI   C1A 8215   3.527   9.429   9.920 -0.0729 -0.1340  0.0461
  514loPI   C2A 8216   3.524   9.355   9.486  0.0497 -0.1617 -0.0956
  514loPI   C3A 8217   3.630   9.392   9.083  0.3254  0.1180  0.0839
  514loPI   C4A 8218   3.589   9.376   8.704  0.2532 -0.2419  0.0442
  514loPI   C5A 8219   3.784   9.278   8.333 -0.3049 -0.0454  0.0166
  514loPI   C6A 8220   3.907   8.958   8.002 -0.1507 -0.0318  0.0626
  514loPI   C1B 8221   3.080   9.117   9.658 -0.0352  0.2601  0.0920
  514loPI   C2B 8222   3.139   9.123   9.212 -0.1174  0.1769 -0.2975
  514loPI   C3B 8223   3.050   9.222   8.760 -0.1271 -0.3052  0.4146
  514loPI   C4B 8224   2.934   9.187   8.348  0.0244 -0.0609  0.3576
  515loPI    C1 8225   2.129  13.934  11.105  0.1292  0.0954  0.0405
  515loPI    C2 8226   1.874  13.767  11.365 -0.0110  0.4268  0.1209
  515loPI    C3 8227   2.226  13.592  11.289 -0.1454  0.1086  0.2157
  515loPI   PO4 8228   2.034  13.996  10.915  0.0082 -0.0021 -0.0708
  515loPI   GL1 8229   1.972  14.008  10.519  0.0453 -0.1614 -0.1918
  515loPI   GL2 8230   1.890  13.697  10.334  0.1855 -0.2758  0.1649
  515loPI   C1A 8231   1.802  14.129  10.107 -0.1325  0.0727 -0.0039
  515loPI   C2A 8232   1.938  14.133   9.696 -0.2318 -0.0111  0.1281
  515loPI   C3A 8233   1.830  14.132   9.380  0.2904 -0.0489 -0.2025
  515loPI   C4A 8234   2.015  14.173   9.041  0.1425 -0.2302  0.3200
  515loPI   C5A 8235   2.025  14.447   8.650 -0.0394  0.1701 -0.0762
  515loPI   C6A 8236   1.657  14.709   8.541  0.2512 -0.2615 -0.0370
  515loPI   C1B 8237   2.040  13.622   9.902  0.1522 -0.2034 -0.0832
  515loPI   C2B 8238   2.024  13.654   9.502 -0.0486  0.3432 -0.1254
  515loPI   C3B 8239   1.831  13.706   9.100  0.2000  0.0894 -0.1489
  515loPI   C4B 8240   1.841  13.585   8.658 -0.1041 -0.6103  0.3447
  516loPI    C1 8241  16.802   6.603  10.673  0.3179 -0.1058 -0.0457
  516loPI    C2 8242  16.999   6.731  10.997  0.0404 -0.1775  0.1545
  516loPI    C3 8243  16.788   6.392  11.013 -0.1966 -0.0413 -0.0201
  516loPI   PO4 8244  16.901   6.617  10.486 -0.2980 -0.1848  0.2187
  516loPI   GL1 8245  16.960   6.399  10.130 -0.0144  0.0841 -0.1144
  516loPI   GL2 8246  16.818   6.130  10.100  0.0205 -0.1012  0.1317
  516loPI   C1A 8247  17.038   6.601   9.696  0.0703  0.2624 -0.1599
  516loPI   C2A 8248  17.020   6.528   9.300  0.0346  0.2788  0.4313
  516loPI   C3A 8249  17.021   6.271   8.872  0.1124 -0.1103  0.1235
  516loPI   C4A 8250  16.993   6.207   8.387  0.2468 -0.1033 -0.2791
  516loPI   C5A 8251  16.660   6.268   8.067  0.3872  0.1516  0.0491
  516loPI   C6A 8252  16.527   5.990   7.771  0.0712  0.1497  0.1240
  516loPI   C1B 8253  16.843   6.155   9.748  0.1712 -0.0060 -0.1573
  516loPI   C2B 8254  16.924   5.994   9.320  0.3767 -0.1386 -0.2167
  516loPI   C3B 8255  16.860   5.636   9.041 -0.1076 -0.0948 -0.2039
  516loPI   C4B 8256  16.991   5.421   8.765 -0.1873  0.0564 -0.1349
  517loPI    C1 8257  14.985   8.301  11.533 -0.0041  0.2748  0.0598
  517loPI    C2 8258  15.257   8.126  11.768  0.1787 -0.0914 -0.4084
  517loPI    C3 8259  15.249   8.525  11.734  0.1681 -0.0325  0.1816
  517loPI   PO4 8260  15.065   8.160  11.169  0.0317 -0.0669  0.0560
  517loPI   GL1 8261  15.106   8.407  10.713  0.1741  0.2778  0.2437
  517loPI   GL2 8262  15.119   8.086  10.630  0.1568  0.1521  0.1947
  517loPI   C1A 8263  15.076   8.539  10.274 -0.1263  0.3006  0.1659
  517loPI   C2A 8264  15.213   8.483   9.844 -0.1291 -0.0436 -0.2940
  517loPI   C3A 8265  15.298   8.543   9.453  0.0817  0.2062 -0.2090
  517loPI   C4A 8266  15.220   8.476   8.995  0.1810  0.1299 -0.0444
  517loPI   C5A 8267  15.028   8.392   8.647 -0.0854  0.0792 -0.2969
  517loPI   C6A 8268  14.687   8.243   8.646 -0.2415  0.0413  0.0155
  517loPI   C1B 8269  14.789   8.083  10.339  0.2991  0.1029  0.0123
  517loPI   C2B 8270  14.812   8.157   9.957  0.1415 -0.2393  0.0288
  517loPI   C3B 8271  14.822   8.203   9.514  0.0687 -0.1009  0.0272
  517loPI   C4B 8272  14.850   8.238   9.118 -0.1061 -0.3834 -0.1562
  518loPI    C1 8273  17.837  10.232  11.255  0.0489  0.1092 -0.0716
  518loPI    C2 8274  17.747  10.265  11.643 -0.0687 -0.4412 -0.0447
  518loPI    C3 8275  18.082  10.078  11.530  0.3208  0.3093 -0.1969
  518loPI   PO4 8276  17.904  10.449  11.144  0.0713  0.1052 -0.0641
  518loPI   GL1 8277  17.871  10.638  10.759  0.1019  0.0680 -0.0591
  518loPI   GL2 8278  18.131  10.579  10.543 -0.0574  0.3174 -0.2249
  518loPI   C1A 8279  17.626  10.668  10.345 -0.0300 -0.2558  0.0446
  518loPI   C2A 8280  17.529  10.686   9.910 -0.4365 -0.1433  0.0942
  518loPI   C3A 8281  17.559  10.512   9.474  0.1762 -0.1968 -0.0208
  518loPI   C4A 8282  17.506  10.586   9.142  0.1079  0.2215  0.0319
  518loPI   C5A 8283  17.610  10.773   8.921  0.0782 -0.1460  0.0955
  518loPI   C6A 8284  17.631  10.972   8.499  0.0089  0.2525  0.2953
  518loPI   C1B 8285  18.044  10.895  10.185  0.1713  0.0800 -0.1722
  518loPI   C2B 8286  18.018  10.902   9.805  0.1420  0.1587  0.2492
  518loPI   C3B 8287  17.843  10.902   9.418  0.0445 -0.2138  0.2069
  518loPI   C4B 8288  18.016  11.036   8.943  0.1318 -0.2262 -0.2149
  519loPI    C1 8289   2.937   0.288  10.919 -0.1625  0.0385 -0.0328
  519loPI    C2 8290   2.876   0.283  11.314  0.2490  0.0246  0.0355
  519loPI    C3 8291   3.158   0.520  11.159  0.1631 -0.0501 -0.2405
  519loPI   PO4 8292   3.001   0.049  10.718  0.1990  0.2013 -0.3438
  519loPI   GL1 8293   3.064   0.171  10.290  0.1281 -0.2581 -0.1167
  519loPI   GL2 8294   3.443   0.155  10.164 -0.0013  0.0143  0.2317
  519loPI   C1A 8295   2.883   0.080   9.970 -0.0817 -0.1645  0.0706
  519loPI   C2A 8296   2.796   0.159   9.523 -0.1538 -0.0347 -0.3149
  519loPI   C3A 8297   2.730   0.030   9.187 -0.0461 -0.0603  0.0581
  519loPI   C4A 8298   2.419  -0.017   8.889 -0.2419 -0.0043 -0.1782
  519loPI   C5A 8299   2.117  -0.273   8.542 -0.0163  0.1808 -0.1384
  519loPI   C6A 8300   1.924  -0.573   8.557 -0.2279  0.0549  0.0992
  519loPI   C1B 8301   3.308   0.271   9.762  0.0255  0.0507 -0.2174
  519loPI   C2B 8302   3.322   0.313   9.322 -0.1373  0.1239  0.0412
  519loPI   C3B 8303   3.391   0.308   8.861  0.0014 -0.0309  0.0644
  519loPI   C4B 8304   3.705   0.305   8.484  0.2297  0.1180  0.0908
  520loPI    C1 8305   2.741  15.009  11.094  0.2722 -0.1206  0.0468
  520loPI    C2 8306   2.581  15.044  11.459 -0.0939  0.1076 -0.1294
  520loPI    C3 8307   2.947  14.890  11.415  0.0626  0.3202  0.3556
  520loPI   PO4 8308   2.628  14.830  10.972 -0.1380  0.0293  0.3742
  520loPI   GL1 8309   2.375  14.634  10.640 -0.0644  0.0749  0.0184
  520loPI   GL2 8310   2.658  14.689  10.451  0.0618 -0.1369 -0.2637
  520loPI   C1A 8311   2.223  14.447  10.285  0.0214 -0.0424  0.0010
  520loPI   C2A 8312   2.256  14.500   9.890 -0.4204  0.1462  0.0318
  520loPI   C3A 8313   2.218  14.486   9.476  0.2305 -0.0272 -0.0518
  520loPI   C4A 8314   2.242  14.609   9.108  0.1342 -0.1894  0.1603
  520loPI   C5A 8315   2.344  14.793   8.687  0.0610 -0.3672 -0.1354
  520loPI   C6A 8316   2.412  15.026   8.443 -0.0055  0.0293  0.3738
  520loPI   C1B 8317   2.693  14.348  10.081 -0.2036  0.0275  0.2509
  520loPI   C2B 8318   2.783  14.375   9.533 -0.1366 -0.1930  0.1159
  520loPI   C3B 8319   2.678  14.469   9.199 -0.2417 -0.0268  0.2860
  520loPI   C4B 8320   2.575  14.365   8.802 -0.1440  0.0360 -0.2077
  521loPI    C1 8321   4.344   5.327  11.420 -0.2643 -0.1510 -0.1753
  521loPI    C2 8322   4.554   5.181  11.727 -0.0963 -0.0078 -0.2199
  521loPI    C3 8323   4.156   5.144  11.721 -0.0997 -0.0210  0.0092
  521loPI   PO4 8324   4.510   5.230  11.177  0.1858  0.2816  0.1467
  521loPI   GL1 8325   4.467   5.375  10.760 -0.0161 -0.0119  0.0964
  521loPI   GL2 8326   4.364   5.260  10.461  0.0006 -0.1069 -0.1685
  521loPI   C1A 8327   4.818   5.406  10.318 -0.2758 -0.1451 -0.0248
  521loPI   C2A 8328   4.933   5.418   9.908  0.1392  0.0806 -0.2525
  521loPI   C3A 8329   4.963   5.568   9.440  0.1080 -0.0326 -0.0025
  521loPI   C4A 8330   4.985   5.546   8.993 -0.0389 -0.0886  0.1472
  521loPI   C5A 8331   4.893   5.555   8.561  0.0822  0.0553  0.0685
  521loPI   C6A 8332   4.592   5.481   8.303 -0.4728  0.0643 -0.2297
  521loPI   C1B 8333   4.443   5.211  10.048 -0.1627 -0.0156  0.2688
  521loPI   C2B 8334   4.449   5.195   9.657  0.0429  0.1791  0.2072
  521loPI   C3B 8335   4.548   5.336   9.241 -0.1941  0.1076 -0.2264
  521loPI   C4B 8336   4.552   5.264   8.805  0.1749 -0.0588  0.0098
  522loPI    C1 8337   7.148   9.230  11.288 -0.0765 -0.1370  0.1496
  522loPI    C2 8338   7.118   9.042  11.640 -0.2097  0.0311  0.2299
  522loPI    C3 8339   6.930   9.390  11.583 -0.0309  0.1015  0.0565
  522loPI   PO4 8340   7.094   9.120  11.086  0.3369  0.2504 -0.0822
  522loPI   GL1 8341   6.919   9.205  10.688 -0.0507 -0.0112 -0.1282
  522loPI   GL2 8342   6.703   9.147  10.402 -0.1316  0.3447  0.2117
  522loPI   C1A 8343   7.162   9.355  10.338  0.0182  0.0664  0.2416
  522loPI   C2A 8344   7.262   9.329   9.927 -0.2274  0.1485  0.0192
  522loPI   C3A 8345   7.155   9.373   9.568  0.0853  0.2239  0.0079
  522loPI   C4A 8346   7.176   9.459   9.206 -0.1777  0.1672  0.1473
  522loPI   C5A 8347   7.305   9.786   8.887 -0.0638  0.0979  0.1612
  522loPI   C6A 8348   7.223   9.765   8.567  0.1285 -0.2256  0.1087
  522loPI   C1B 8349   6.753   9.123   9.968 -0.0586 -0.2027  0.0247
  522loPI   C2B 8350   6.652   9.147   9.598  0.0942 -0.1422  0.0181
  522loPI   C3B 8351   6.703   9.164   9.153 -0.1109 -0.1946 -0.3201
  522loPI   C4B 8352   6.880   9.395   8.744 -0.0302  0.1132 -0.0042
  523loPI    C1 8353   4.938  11.858  11.193  0.3038 -0.0971 -0.0340
  523loPI    C2 8354   5.187  11.635  11.412  0.1974 -0.0537  0.1327
  523loPI    C3 8355   4.922  11.874  11.592 -0.1325 -0.2837 -0.0384
  523loPI   PO4 8356   5.133  11.860  10.939  0.1380  0.4810 -0.5321
  523loPI   GL1 8357   5.191  11.872  10.536 -0.0836  0.1860  0.1464
  523loPI   GL2 8358   4.974  11.762  10.339 -0.1624 -0.1204 -0.1107
  523loPI   C1A 8359   5.196  12.163  10.142 -0.0432  0.4418 -0.0377
  523loPI   C2A 8360   5.345  12.207   9.672  0.0009  0.3822 -0.0065
  523loPI   C3A 8361   5.616  12.265   9.345 -0.1628  0.0832  0.1122
  523loPI   C4A 8362   5.818  12.027   9.034 -0.1873  0.0653  0.1524
  523loPI   C5A 8363   5.619  12.001   8.641  0.0078 -0.0220  0.1891
  523loPI   C6A 8364   5.206  12.228   8.482 -0.1948 -0.2945 -0.1116
  523loPI   C1B 8365   4.600  11.753  10.031  0.0560 -0.1670  0.0911
  523loPI   C2B 8366   4.524  11.699   9.547 -0.2783 -0.0032  0.0203
  523loPI   C3B 8367   4.415  11.830   9.109  0.0645  0.1682 -0.1563
  523loPI   C4B 8368   4.477  11.708   8.665 -0.1679  0.2044  0.0740
  524loPI    C1 8369   1.414  16.080  11.052 -0.0983  0.2260  0.1047
  524loPI    C2 8370   1.766  15.926  10.941 -0.1813 -0.0458  0.2101
  524loPI    C3 8371   1.685  16.311  10.871  0.0494 -0.0355 -0.0137
  524loPI   PO4 8372   1.194  15.950  10.893  0.1611 -0.1054 -0.0770
  524loPI   GL1 8373   0.975  15.916  10.428 -0.3124 -0.1851 -0.3392
  524loPI   GL2 8374   0.831  16.253  10.467  0.3273 -0.1257 -0.0847
  524loPI   C1A 8375   1.053  15.848   9.949 -0.0401 -0.0550 -0.0754
  524loPI   C2A 8376   0.843  15.742   9.445  0.0843  0.2073 -0.0379
  524loPI   C3A 8377   0.466  15.850   9.288  0.0859 -0.1771  0.1981
  524loPI   C4A 8378   0.119  16.090   9.309 -0.0473  0.1103  0.0145
  524loPI   C5A 8379  -0.082  16.302   9.597 -0.1457  0.3701  0.0087
  524loPI   C6A 8380  -0.059  16.413   9.946  0.1397 -0.4501 -0.0837
  524loPI   C1B 8381   1.005  16.318  10.070 -0.0297  0.2160  0.3088
  524loPI   C2B 8382   0.830  16.189   9.690 -0.0516  0.1280  0.0191
  524loPI   C3B 8383   0.674  16.303   9.262 -0.0063 -0.1460 -0.0142
  524loPI   C4B 8384   0.491  16.146   8.829 -0.0652 -0.1572  0.1992
  525loPI    C1 8385   2.190  14.734  11.359 -0.0453 -0.1358 -0.0624
  525loPI    C2 8386   2.523  14.521  11.418 -0.1170 -0.2024  0.1112
  525loPI    C3 8387   2.282  14.605  11.726 -0.0672  0.1705  0.0537
  525loPI   PO4 8388   2.073  14.519  11.090  0.3075 -0.0971  0.0796
  525loPI   GL1 8389   1.868  14.756  10.718 -0.3380 -0.0344 -0.0871
  525loPI   GL2 8390   1.807  14.442  10.644 -0.0882 -0.1811  0.1339
  525loPI   C1A 8391   2.199  14.934  10.295  0.1250  0.0635  0.1335
  525loPI   C2A 8392   2.146  15.055   9.858 -0.2176  0.1147  0.1471
  525loPI   C3A 8393   2.054  15.023   9.367  0.0174  0.0372  0.0920
  525loPI   C4A 8394   1.947  15.009   8.925 -0.2534  0.2790 -0.1022
  525loPI   C5A 8395   1.892  15.202   8.531 -0.2142  0.0295  0.2062
  525loPI   C6A 8396   1.865  15.547   8.253 -0.0154 -0.2519  0.1151
  525loPI   C1B 8397   1.786  14.624  10.178 -0.2782  0.0930 -0.3097
  525loPI   C2B 8398   1.772  14.631   9.814 -0.0502 -0.2321  0.0814
  525loPI   C3B 8399   1.743  14.634   9.404 -0.0859 -0.0610 -0.0334
  525loPI   C4B 8400   1.687  14.531   8.974  0.0723 -0.3012 -0.1648
  526loPI    C1 8401   3.975  12.851  11.247 -0.0658  0.0537 -0.0541
  526loPI    C2 8402   4.016  12.760  11.635  0.2427  0.0362 -0.0882
  526loPI    C3 8403   3.689  12.953  11.508  0.0424 -0.1423  0.1452
  526loPI   PO4 8404   4.024  12.679  11.147  0.4280 -0.0590 -0.0965
  526loPI   GL1 8405   3.878  12.701  10.655 -0.0926  0.1006 -0.0307
  526loPI   GL2 8406   3.687  12.974  10.619  0.1094 -0.0649  0.0404
  526loPI   C1A 8407   3.968  12.831  10.259  0.0804  0.0794  0.2636
  526loPI   C2A 8408   3.837  12.904   9.907 -0.1242  0.1840 -0.0937
  526loPI   C3A 8409   3.799  12.961   9.507 -0.0495  0.2035 -0.2713
  526loPI   C4A 8410   3.849  12.765   9.102  0.0910 -0.0086 -0.1129
  526loPI   C5A 8411   3.762  12.588   8.726  0.0954  0.2071 -0.0802
  526loPI   C6A 8412   3.977  12.436   8.612 -0.0427  0.1796 -0.0655
  526loPI   C1B 8413   3.763  13.249  10.297  0.1558 -0.1910  0.0249
  526loPI   C2B 8414   3.689  13.394   9.848 -0.1910 -0.2006 -0.3173
  526loPI   C3B 8415   3.695  13.431   9.389  0.0416 -0.2997  0.1518
  526loPI   C4B 8416   3.669  13.631   8.951 -0.0524  0.0074  0.2816
  527loPI    C1 8417   7.252  12.703  11.269 -0.0538  0.3082 -0.0432
  527loPI    C2 8418   7.614  12.607  11.410 -0.0547  0.4636  0.0663
  527loPI    C3 8419   7.307  12.656  11.662 -0.2525 -0.0783 -0.0569
  527loPI   PO4 8420   7.291  12.904  11.058 -0.0428 -0.0166 -0.0884
  527loPI   GL1 8421   7.232  12.740  10.703 -0.1474  0.0973  0.2032
  527loPI   GL2 8422   7.044  12.904  10.508  0.0892  0.4222 -0.0745
  527loPI   C1A 8423   7.378  12.628  10.237  0.0503 -0.1554  0.0753
  527loPI   C2A 8424   7.396  12.872   9.873 -0.0131  0.0771 -0.1949
  527loPI   C3A 8425   7.457  13.010   9.400  0.0912  0.1669  0.0121
  527loPI   C4A 8426   7.479  13.006   8.938  0.0220 -0.1316  0.1531
  527loPI   C5A 8427   7.456  13.280   8.738  0.0351  0.1110  0.0760
  527loPI   C6A 8428   7.777  13.491   8.328 -0.2999  0.2383  0.0208
  527loPI   C1B 8429   7.052  13.193  10.188 -0.0212  0.1683  0.0827
  527loPI   C2B 8430   7.041  13.192   9.803 -0.4430 -0.0652 -0.0066
  527loPI   C3B 8431   7.012  12.856   9.585  0.1102  0.2778 -0.0774
  527loPI   C4B 8432   7.019  12.389   9.686 -0.0240 -0.2327  0.3528
  528loPI    C1 8433   7.938  10.222  11.236  0.0358  0.0779 -0.0316
  528loPI    C2 8434   8.230  10.021  11.422  0.0822  0.0683 -0.1140
  528loPI    C3 8435   7.847   9.922  11.485  0.0933  0.1221  0.0433
  528loPI   PO4 8436   8.113  10.278  11.016 -0.0679 -0.3188  0.1376
  528loPI   GL1 8437   7.983  10.442  10.610 -0.2122  0.1037 -0.1425
  528loPI   GL2 8438   8.261  10.326  10.579 -0.0559  0.1766  0.0928
  528loPI   C1A 8439   7.911  10.428  10.224 -0.0562 -0.1495 -0.2403
  528loPI   C2A 8440   7.837  10.414   9.834 -0.2257  0.0229  0.1074
  528loPI   C3A 8441   7.919  10.435   9.428 -0.1601  0.2408  0.0872
  528loPI   C4A 8442   7.929  10.724   9.076 -0.1285  0.1217  0.0409
  528loPI   C5A 8443   8.143  11.068   8.969  0.1643 -0.1053 -0.0966
  528loPI   C6A 8444   8.439  11.468   8.995  0.2043 -0.1684  0.1795
  528loPI   C1B 8445   8.450  10.505  10.247  0.5462 -0.0283 -0.1309
  528loPI   C2B 8446   8.739  10.682   9.861 -0.2525 -0.2825  0.1086
  528loPI   C3B 8447   8.851  10.686   9.442 -0.0257  0.1420  0.1115
  528loPI   C4B 8448   8.879  10.551   8.997 -0.0962 -0.0145  0.0392
  529loPI    C1 8449   9.919  17.674  11.188  0.0134  0.0189 -0.3057
  529loPI    C2 8450  10.113  18.023  11.213  0.0417 -0.0014 -0.2378
  529loPI    C3 8451   9.734  17.995  11.340  0.1203 -0.0561 -0.0097
  529loPI   PO4 8452  10.131  17.494  11.045  0.0777  0.3127  0.1756
  529loPI   GL1 8453  10.029  17.381  10.728 -0.0056  0.2211 -0.0624
  529loPI   GL2 8454  10.277  17.298  10.522  0.1043  0.0983  0.0380
  529loPI   C1A 8455   9.887  17.451  10.260 -0.3036 -0.1810  0.1881
  529loPI   C2A 8456   9.791  17.538   9.829 -0.0705 -0.0536  0.2221
  529loPI   C3A 8457   9.764  17.427   9.389 -0.1985 -0.2047 -0.0673
  529loPI   C4A 8458   9.748  17.423   8.954 -0.2233  0.0475 -0.0256
  529loPI   C5A 8459   9.724  17.437   8.611  0.1228  0.1298  0.0753
  529loPI   C6A 8460   9.958  17.467   8.173 -0.0968 -0.0133 -0.0083
  529loPI   C1B 8461  10.298  17.212  10.089 -0.1135 -0.1565  0.1932
  529loPI   C2B 8462  10.203  17.299   9.645  0.1133  0.0161  0.4030
  529loPI   C3B 8463  10.235  17.241   9.203 -0.2560  0.1569  0.2140
  529loPI   C4B 8464  10.229  17.236   8.836  0.0148  0.1980 -0.4875
  530loPI    C1 8465   6.458  13.824  11.140 -0.0133  0.1637 -0.0545
  530loPI    C2 8466   6.329  13.486  10.969 -0.4080  0.1807  0.1958
  530loPI    C3 8467   6.568  13.469  11.289 -0.1291  0.1464 -0.0097
  530loPI   PO4 8468   6.629  14.062  10.843  0.1145 -0.0330 -0.1198
  530loPI   GL1 8469   6.625  14.184  10.515  0.2190 -0.0378 -0.0389
  530loPI   GL2 8470   6.320  14.296  10.429 -0.2050  0.0337  0.0752
  530loPI   C1A 8471   6.989  14.128  10.170 -0.0100 -0.0692 -0.1312
  530loPI   C2A 8472   7.093  14.105   9.810  0.0522  0.0318  0.0226
  530loPI   C3A 8473   7.196  14.126   9.377 -0.0423 -0.0658  0.0370
  530loPI   C4A 8474   7.245  14.299   8.939 -0.4047 -0.0116  0.2144
  530loPI   C5A 8475   7.215  14.142   8.426  0.0962  0.0438  0.2020
  530loPI   C6A 8476   7.179  13.955   8.002  0.0936  0.0124  0.0261
  530loPI   C1B 8477   6.501  14.259  10.026  0.1204  0.2429 -0.1143
  530loPI   C2B 8478   6.686  14.341   9.674  0.1040  0.0817  0.1103
  530loPI   C3B 8479   6.780  14.277   9.207 -0.1037  0.0524  0.3586
  530loPI   C4B 8480   6.730  14.056   8.749  0.0402  0.1492 -0.2366
  531loPI    C1 8481   8.376   2.106  11.035 -0.3637  0.1152  0.1070
  531loPI    C2 8482   8.309   1.741  11.185 -0.2251  0.1263  0.1985
  531loPI    C3 8483   8.138   1.851  10.840  0.0193 -0.1553 -0.0177
  531loPI   PO4 8484   8.652   2.137  10.978 -0.2718 -0.2382 -0.2066
  531loPI   GL1 8485   8.909   2.516  10.688 -0.2397  0.1080 -0.0318
  531loPI   GL2 8486   9.147   2.561  10.519 -0.2263  0.0068  0.0121
  531loPI   C1A 8487   8.674   2.521  10.251 -0.0758 -0.1897  0.1007
  531loPI   C2A 8488   8.498   2.628   9.849  0.0789 -0.0887 -0.0113
  531loPI   C3A 8489   8.628   2.701   9.567  0.1220  0.1265  0.0320
  531loPI   C4A 8490   8.574   2.729   9.094  0.0788 -0.2146 -0.2664
  531loPI   C5A 8491   8.668   2.799   8.688 -0.1630  0.0569 -0.0350
  531loPI   C6A 8492   8.759   2.595   8.282  0.2929 -0.1007 -0.1236
  531loPI   C1B 8493   9.092   2.745  10.112  0.0058  0.3535 -0.0592
  531loPI   C2B 8494   9.070   2.911   9.689 -0.1542  0.1332  0.0801
  531loPI   C3B 8495   9.041   2.924   9.145 -0.0936 -0.0610  0.1455
  531loPI   C4B 8496   9.171   2.957   8.704 -0.3920  0.1548  0.1207
  532loPI    C1 8497   7.909  17.472  11.035  0.1481 -0.0844 -0.1541
  532loPI    C2 8498   8.297  17.382  11.002  0.1762 -0.0362  0.0351
  532loPI    C3 8499   8.168  17.603  11.309  0.0071 -0.0028 -0.0586
  532loPI   PO4 8500   7.864  17.550  10.858  0.0419 -0.3493  0.0187
  532loPI   GL1 8501   8.008  17.636  10.497  0.0168  0.3186  0.0080
  532loPI   GL2 8502   7.904  17.993  10.600 -0.1860 -0.0399 -0.0676
  532loPI   C1A 8503   8.078  17.698  10.062 -0.1516  0.1483 -0.0740
  532loPI   C2A 8504   7.987  17.721   9.696  0.1494  0.1667 -0.1854
  532loPI   C3A 8505   7.993  17.696   9.265  0.0660 -0.0636  0.1456
  532loPI   C4A 8506   7.783  17.757   8.950  0.2872 -0.1646 -0.0604
  532loPI   C5A 8507   7.688  17.707   8.533  0.0331  0.0203  0.2137
  532loPI   C6A 8508   7.675  17.977   8.223 -0.2193 -0.1209 -0.0769
  532loPI   C1B 8509   8.023  18.227  10.216 -0.1889  0.0627 -0.4305
  532loPI   C2B 8510   7.989  18.202   9.775 -0.0955 -0.1356 -0.1452
  532loPI   C3B 8511   7.910  18.276   9.404  0.1940 -0.0075 -0.0968
  532loPI   C4B 8512   7.875  18.349   8.938  0.0116  0.3272 -0.1136
  533loPI    C1 8513  14.746  17.176  10.743 -0.1369 -0.1515  0.1685
  533loPI    C2 8514  14.522  17.002  11.025 -0.0054 -0.1954  0.2463
  533loPI    C3 8515  14.658  17.374  11.079 -0.4269  0.0013  0.0074
  533loPI   PO4 8516  14.831  17.057  10.644 -0.2258 -0.1271  0.3575
  533loPI   GL1 8517  14.954  16.784  10.274  0.0983 -0.0842  0.0992
  533loPI   GL2 8518  15.215  16.603  10.313  0.1344  0.1193  0.1815
  533loPI   C1A 8519  14.784  16.691   9.979  0.1058  0.3518 -0.1948
  533loPI   C2A 8520  14.861  16.721   9.625  0.1294 -0.1317  0.0098
  533loPI   C3A 8521  14.908  16.699   9.214  0.0537  0.0879 -0.2284
  533loPI   C4A 8522  14.952  16.615   8.860 -0.1114 -0.0089  0.0601
  533loPI   C5A 8523  14.998  16.599   8.431 -0.0371 -0.2289  0.1729
  533loPI   C6A 8524  14.924  16.426   8.007  0.0212 -0.0585  0.0837
  533loPI   C1B 8525  15.269  16.667   9.936 -0.0916  0.1787 -0.1269
  533loPI   C2B 8526  15.396  16.469   9.590 -0.0898  0.3728 -0.0169
  533loPI   C3B 8527  15.390  16.496   9.149 -0.0675  0.1228 -0.2355
  533loPI   C4B 8528  15.439  16.559   8.702  0.1774 -0.1715  0.0735
  534loPI    C1 8529  12.533   8.623  11.299  0.3295 -0.1793  0.1386
  534loPI    C2 8530  12.665   8.765  11.649  0.1716  0.0276  0.1162
  534loPI    C3 8531  12.342   8.531  11.638  0.1764  0.0213  0.1086
  534loPI   PO4 8532  12.489   8.873  11.145  0.4067 -0.1114  0.3446
  534loPI   GL1 8533  12.480   8.916  10.729  0.1676  0.2539 -0.0117
  534loPI   GL2 8534  12.283   8.757  10.518 -0.3436 -0.0290  0.1668
  534loPI   C1A 8535  12.763   8.916  10.364  0.0338 -0.0872 -0.2461
  534loPI   C2A 8536  12.784   8.848   9.900 -0.1412 -0.0188  0.0519
  534loPI   C3A 8537  12.845   8.866   9.497  0.1027  0.1982 -0.0501
  534loPI   C4A 8538  12.883   8.907   9.085 -0.0358  0.4237 -0.1553
  534loPI   C5A 8539  13.068   8.784   8.698 -0.2541 -0.0143  0.2568
  534loPI   C6A 8540  13.167   8.431   8.524 -0.0564  0.2963  0.0503
  534loPI   C1B 8541  12.367   8.968  10.113 -0.0257 -0.2206 -0.1366
  534loPI   C2B 8542  12.350   9.121   9.763 -0.1194  0.0205  0.2720
  534loPI   C3B 8543  12.388   9.089   9.352 -0.1360 -0.0900 -0.1906
  534loPI   C4B 8544  12.420   8.990   8.954 -0.2101  0.1678  0.3002
  535loPI    C1 8545  13.862  13.134  11.594  0.0777  0.0458  0.1972
  535loPI    C2 8546  13.481  13.110  11.712  0.0477 -0.0034  0.0904
  535loPI    C3 8547  13.755  13.268  11.956 -0.0871  0.2729  0.0667
  535loPI   PO4 8548  13.846  13.262  11.414 -0.3086  0.3500  0.0868
  535loPI   GL1 8549  14.061  13.387  10.992  0.0424 -0.2168  0.0367
  535loPI   GL2 8550  13.982  13.548  10.765  0.0940 -0.3904  0.1754
  535loPI   C1A 8551  14.180  13.074  10.642  0.1213  0.0029 -0.1650
  535loPI   C2A 8552  14.149  13.138  10.206  0.0465  0.1533  0.2651
  535loPI   C3A 8553  14.138  13.152   9.686 -0.1355  0.1363  0.2811
  535loPI   C4A 8554  14.301  13.044   9.185  0.1673 -0.1958  0.0765
  535loPI   C5A 8555  14.340  13.111   8.788 -0.2506 -0.0836  0.2184
  535loPI   C6A 8556  14.379  13.242   8.275 -0.2102 -0.2237 -0.2259
  535loPI   C1B 8557  14.101  13.602  10.417 -0.0691  0.1225 -0.1874
  535loPI   C2B 8558  14.061  13.684   9.920 -0.0040  0.0729 -0.0843
  535loPI   C3B 8559  14.167  13.622   9.504 -0.0420  0.1714  0.2955
  535loPI   C4B 8560  14.211  13.593   9.078 -0.1990  0.1348 -0.0491
  536loPI    C1 8561  17.670  16.748  10.871  0.0801  0.1270  0.0421
  536loPI    C2 8562  17.873  17.054  11.030  0.1507  0.0710  0.0599
  536loPI    C3 8563  17.780  16.737  11.255  0.3093 -0.0379 -0.0263
  536loPI   PO4 8564  17.783  16.805  10.571 -0.0107  0.1723  0.0700
  536loPI   GL1 8565  17.917  16.988  10.180  0.0359 -0.1751 -0.0348
  536loPI   GL2 8566  18.163  16.989  10.187 -0.0404 -0.1062 -0.1570
  536loPI   C1A 8567  17.652  16.928   9.863 -0.0210 -0.4061  0.0822
  536loPI   C2A 8568  17.565  16.716   9.459  0.1088 -0.2291 -0.1047
  536loPI   C3A 8569  17.579  16.739   9.054  0.1930 -0.1087 -0.1308
  536loPI   C4A 8570  17.607  16.750   8.580 -0.0222 -0.0746  0.4124
  536loPI   C5A 8571  17.892  16.748   8.209  0.0959  0.0696 -0.0829
  536loPI   C6A 8572  17.996  17.166   7.861  0.0510 -0.4562  0.0454
  536loPI   C1B 8573  18.133  16.679   9.764 -0.1469 -0.1314 -0.1101
  536loPI   C2B 8574  18.052  16.567   9.257  0.3262 -0.1199 -0.2002
  536loPI   C3B 8575  18.076  16.869   8.986 -0.0044  0.0891  0.0149
  536loPI   C4B 8576  18.180  17.063   8.620 -0.1263 -0.1314 -0.1062
  537loPI    C1 8577   5.978  15.628  10.945 -0.0948  0.0079 -0.1147
  537loPI    C2 8578   5.919  15.782  11.309  0.0239  0.1670 -0.1617
  537loPI    C3 8579   5.928  15.386  11.259  0.1914  0.1435  0.0392
  537loPI   PO4 8580   5.785  15.819  10.790 -0.0048 -0.2754  0.1460
  537loPI   GL1 8581   5.759  15.840  10.373 -0.1113 -0.0681 -0.0782
  537loPI   GL2 8582   6.027  16.040  10.403  0.1410 -0.1940 -0.3904
  537loPI   C1A 8583   5.685  15.767   9.988 -0.0792  0.2832 -0.0301
  537loPI   C2A 8584   5.755  15.884   9.606 -0.0187 -0.0239 -0.0594
  537loPI   C3A 8585   5.680  15.734   9.259  0.1671 -0.1286  0.0875
  537loPI   C4A 8586   5.648  15.601   8.801  0.2297  0.2215 -0.2480
  537loPI   C5A 8587   5.476  15.648   8.340 -0.2357 -0.0928 -0.0318
  537loPI   C6A 8588   5.533  15.655   7.906  0.2018 -0.0058 -0.3172
  537loPI   C1B 8589   6.029  16.165   9.927 -0.0239  0.0331  0.2098
  537loPI   C2B 8590   6.053  16.300   9.491 -0.1698  0.1187  0.0214
  537loPI   C3B 8591   5.766  16.200   9.150  0.3718 -0.1143  0.2421
  537loPI   C4B 8592   5.470  16.044   8.847  0.0499  0.1882  0.1215
  538loPI    C1 8593   4.932   4.934  11.102  0.2627 -0.2985  0.2712
  538loPI    C2 8594   4.998   5.325  11.055 -0.2123 -0.2229  0.1758
  538loPI    C3 8595   4.985   5.168  11.422  0.0726 -0.1709  0.2112
  538loPI   PO4 8596   4.755   4.961  10.750  0.0687  0.1642 -0.0789
  538loPI   GL1 8597   4.727   4.846  10.292  0.1778  0.0027 -0.0714
  538loPI   GL2 8598   4.716   4.507  10.157 -0.3220  0.1184  0.1833
  538loPI   C1A 8599   4.829   4.930   9.925  0.0168  0.0028  0.2576
  538loPI   C2A 8600   4.829   4.939   9.480  0.0217 -0.0069 -0.1806
  538loPI   C3A 8601   4.922   5.008   9.040 -0.2253 -0.1238 -0.2649
  538loPI   C4A 8602   4.925   4.990   8.651  0.0549  0.1945  0.3444
  538loPI   C5A 8603   4.694   4.839   8.187  0.3266  0.0791 -0.0809
  538loPI   C6A 8604   4.535   4.766   7.873 -0.3108 -0.1133 -0.1705
  538loPI   C1B 8605   4.709   4.395   9.697  0.1017  0.0461 -0.1164
  538loPI   C2B 8606   4.797   4.483   9.322 -0.1670 -0.1191  0.1167
  538loPI   C3B 8607   4.838   4.531   8.923 -0.0178  0.1853  0.0823
  538loPI   C4B 8608   4.651   4.475   8.550 -0.0877  0.1363  0.1689
  539loPI    C1 8609   2.322  15.735  11.035  0.0707  0.3578  0.0554
  539loPI    C2 8610   2.081  15.794  11.349 -0.3143 -0.2268 -0.1139
  539loPI    C3 8611   2.382  15.531  11.374 -0.1331 -0.0241 -0.1320
  539loPI   PO4 8612   2.211  15.605  10.859 -0.1866  0.0632 -0.0358
  539loPI   GL1 8613   1.967  15.482  10.651  0.0637 -0.0808  0.0808
  539loPI   GL2 8614   1.802  15.215  10.624 -0.0299 -0.1834  0.0869
  539loPI   C1A 8615   1.677  15.584  10.286 -0.3796 -0.2291  0.0556
  539loPI   C2A 8616   1.649  15.811   9.888 -0.1823  0.1516 -0.2259
  539loPI   C3A 8617   1.377  15.749   9.536  0.1991  0.2148 -0.2054
  539loPI   C4A 8618   1.307  15.683   9.177  0.1256 -0.0176  0.0253
  539loPI   C5A 8619   1.353  15.656   8.728 -0.1241  0.0891 -0.0989
  539loPI   C6A 8620   1.389  15.410   8.291  0.0243 -0.1781 -0.1425
  539loPI   C1B 8621   1.679  15.111  10.194 -0.2455  0.4084 -0.3244
  539loPI   C2B 8622   1.653  15.094   9.688 -0.0347  0.0933  0.3092
  539loPI   C3B 8623   1.543  15.093   9.246 -0.4628  0.2318 -0.2620
  539loPI   C4B 8624   1.506  15.131   8.788 -0.0648 -0.1475  0.0949
  540loPI    C1 8625  12.986   3.914  10.494 -0.1905  0.0091 -0.0135
  540loPI    C2 8626  12.786   3.902  10.840  0.0356 -0.1209  0.1155
  540loPI    C3 8627  13.185   3.912  10.841  0.0333  0.1177 -0.1392
  540loPI   PO4 8628  12.899   3.719  10.363 -0.2627  0.0735 -0.1333
  540loPI   GL1 8629  12.962   3.492  10.061 -0.0095 -0.1829  0.0731
  540loPI   GL2 8630  12.624   3.503  10.024  0.0933  0.1361 -0.0392
  540loPI   C1A 8631  12.808   3.129   9.720 -0.1703  0.0445  0.3206
  540loPI   C2A 8632  12.757   2.835   9.350  0.4562 -0.4182  0.1868
  540loPI   C3A 8633  12.856   2.688   8.885  0.0098  0.3839 -0.0837
  540loPI   C4A 8634  13.157   2.662   8.498 -0.2248 -0.0663  0.0996
  540loPI   C5A 8635  13.351   2.799   8.068  0.0526 -0.0258 -0.1720
  540loPI   C6A 8636  13.220   2.803   7.677  0.1458  0.1912 -0.0643
  540loPI   C1B 8637  12.267   3.434   9.736 -0.1787 -0.0850  0.0403
  540loPI   C2B 8638  12.112   3.477   9.260  0.2034  0.1153 -0.1264
  540loPI   C3B 8639  12.198   3.698   9.004 -0.1393  0.1971  0.0295
  540loPI   C4B 8640  12.459   3.830   8.542  0.0776  0.2422  0.0743
  541loPI    C1 8641  13.585  16.404  10.967 -0.1771  0.0426 -0.1866
  541loPI    C2 8642  13.405  16.169  11.236 -0.0191  0.0536 -0.0699
  541loPI    C3 8643  13.590  16.504  11.354 -0.1671  0.1915 -0.2246
  541loPI   PO4 8644  13.641  16.295  10.823  0.3416 -0.2267  0.2263
  541loPI   GL1 8645  13.775  16.556  10.511  0.4180 -0.1094 -0.0888
  541loPI   GL2 8646  13.447  16.665  10.316 -0.0886 -0.0057  0.1479
  541loPI   C1A 8647  13.964  16.556  10.049  0.1317 -0.1372  0.3969
  541loPI   C2A 8648  14.033  16.593   9.504 -0.2053  0.0244  0.1887
  541loPI   C3A 8649  14.076  16.514   9.080 -0.0396  0.0250  0.1933
  541loPI   C4A 8650  14.212  16.403   8.699 -0.0178  0.0057 -0.1398
  541loPI   C5A 8651  14.445  16.672   8.346  0.1378  0.0752 -0.0731
  541loPI   C6A 8652  14.760  16.925   8.160 -0.0637  0.1972  0.1639
  541loPI   C1B 8653  13.507  16.724   9.867  0.0736 -0.1131  0.0185
  541loPI   C2B 8654  13.536  16.721   9.346 -0.0944  0.1052 -0.0847
  541loPI   C3B 8655  13.703  16.766   8.851 -0.1073  0.1991 -0.0708
  541loPI   C4B 8656  14.097  16.878   8.601  0.0279  0.0207  0.2319
  542loPI    C1 8657  15.919   1.319  10.608  0.3590  0.0191 -0.0530
  542loPI    C2 8658  15.954   1.674  10.789  0.3441  0.0091 -0.0307
  542loPI    C3 8659  15.864   1.348  11.003  0.1023  0.0358 -0.0881
  542loPI   PO4 8660  15.782   1.359  10.352 -0.1631  0.0743  0.1705
  542loPI   GL1 8661  15.920   1.698   9.962  0.1439 -0.2811  0.0714
  542loPI   GL2 8662  15.564   1.511   9.865  0.0221  0.3325 -0.2462
  542loPI   C1A 8663  15.990   1.483   9.502  0.0882 -0.0149 -0.1639
  542loPI   C2A 8664  16.129   1.470   9.083 -0.0235 -0.0390 -0.0607
  542loPI   C3A 8665  16.058   1.449   8.705 -0.1022  0.2173  0.2386
  542loPI   C4A 8666  15.847   1.217   8.308  0.3208  0.1252 -0.0370
  542loPI   C5A 8667  15.628   1.074   7.942 -0.2941 -0.0324 -0.2436
  542loPI   C6A 8668  15.797   0.862   7.581 -0.0590  0.0834  0.0002
  542loPI   C1B 8669  15.522   1.016   9.730 -0.0743  0.1811  0.0190
  542loPI   C2B 8670  15.488   0.670   9.499  0.1647 -0.1086 -0.1903
  542loPI   C3B 8671  15.332   0.514   9.083 -0.1695  0.1007  0.1252
  542loPI   C4B 8672  14.929   0.582   9.049  0.2125 -0.1456  0.0984
  543loPI    C1 8673   0.005  12.793  11.339  0.1719  0.1836  0.3174
  543loPI    C2 8674   0.385  12.915  11.336  0.2141  0.0519  0.2140
  543loPI    C3 8675   0.299  12.532  11.411  0.1036  0.0750  0.2057
  543loPI   PO4 8676  -0.120  12.936  11.055  0.0505 -0.2436 -0.0119
  543loPI   GL1 8677   0.056  12.997  10.725 -0.0475 -0.1074  0.2394
  543loPI   GL2 8678   0.285  12.650  10.750  0.1367  0.2184  0.0938
  543loPI   C1A 8679   0.126  12.901  10.305 -0.2088  0.0425 -0.0258
  543loPI   C2A 8680   0.262  12.843   9.928  0.0304 -0.0609  0.1010
  543loPI   C3A 8681   0.216  12.783   9.454 -0.1329  0.1286 -0.0357
  543loPI   C4A 8682   0.221  12.889   8.988  0.1026  0.2012 -0.0723
  543loPI   C5A 8683   0.511  13.039   8.735  0.2470  0.1123 -0.0253
  543loPI   C6A 8684   0.762  13.326   8.478  0.3136 -0.0941 -0.0210
  543loPI   C1B 8685   0.373  12.442  10.298  0.3769 -0.1179  0.1547
  543loPI   C2B 8686   0.339  12.318   9.908 -0.1390  0.1107 -0.0981
  543loPI   C3B 8687   0.323  12.281   9.580  0.0434 -0.2798 -0.1384
  543loPI   C4B 8688   0.324  12.374   9.088  0.2155  0.0048  0.4164
  544loPI    C1 8689  12.927   4.466  10.450 -0.0076  0.2475 -0.1619
  544loPI    C2 8690  13.140   4.382  10.778  0.0757  0.0640 -0.2615
  544loPI    C3 8691  12.817   4.616  10.804  0.1285  0.1170 -0.0631
  544loPI   PO4 8692  13.066   4.366  10.267 -0.0102  0.0925  0.0330
  544loPI   GL1 8693  13.371   4.455  10.016  0.2228 -0.2002  0.1138
  544loPI   GL2 8694  13.235   4.806  10.089 -0.1746 -0.0358  0.0017
  544loPI   C1A 8695  13.347   4.463   9.491  0.0214 -0.1714  0.0420
  544loPI   C2A 8696  13.462   4.354   9.142 -0.1689 -0.1223  0.0967
  544loPI   C3A 8697  13.691   4.492   8.777 -0.0320 -0.0812 -0.0870
  544loPI   C4A 8698  13.718   4.670   8.341 -0.2013 -0.0423 -0.4657
  544loPI   C5A 8699  13.892   4.813   7.920 -0.2060 -0.1025  0.1470
  544loPI   C6A 8700  14.179   5.174   7.756 -0.0438 -0.1210 -0.1121
  544loPI   C1B 8701  13.230   4.922   9.651  0.0052  0.3534  0.0344
  544loPI   C2B 8702  13.132   4.952   9.310  0.0506 -0.1623 -0.1607
  544loPI   C3B 8703  12.922   4.913   8.931  0.0815  0.1909 -0.0840
  544loPI   C4B 8704  12.720   4.706   8.562 -0.1571  0.0071  0.0588
  545loPI    C1 8705   6.770  16.035  11.230 -0.0433 -0.1012  0.1332
  545loPI    C2 8706   6.996  15.712  11.166  0.0555  0.0048 -0.0618
  545loPI    C3 8707   7.091  15.968  11.459  0.0090 -0.1122  0.0568
  545loPI   PO4 8708   6.718  16.033  10.891  0.0662  0.0449  0.3294
  545loPI   GL1 8709   6.677  16.048  10.500 -0.1279 -0.0981 -0.0705
  545loPI   GL2 8710   6.972  16.256  10.448 -0.2599  0.1032 -0.2556
  545loPI   C1A 8711   6.477  16.067  10.144 -0.2638 -0.0778 -0.1603
  545loPI   C2A 8712   6.491  15.979   9.716  0.1425  0.0824 -0.0297
  545loPI   C3A 8713   6.167  15.845   9.338 -0.1569  0.0709 -0.4581
  545loPI   C4A 8714   6.102  15.807   8.994  0.0654  0.0992 -0.0339
  545loPI   C5A 8715   6.374  15.798   8.631  0.1354 -0.2072 -0.1362
  545loPI   C6A 8716   6.447  15.477   8.330 -0.2458 -0.1560 -0.1776
  545loPI   C1B 8717   6.938  16.244  10.057 -0.0121 -0.4563  0.2864
  545loPI   C2B 8718   6.869  16.346   9.637  0.1956  0.0265 -0.0903
  545loPI   C3B 8719   6.767  16.364   9.285 -0.1586 -0.1847 -0.0152
  545loPI   C4B 8720   6.391  16.244   9.127 -0.0874  0.1826  0.0473
  546loPI    C1 8721  17.489  17.686  10.590 -0.0032  0.0220  0.0423
  546loPI    C2 8722  17.652  17.615  10.949 -0.2075 -0.1663  0.1001
  546loPI    C3 8723  17.340  17.864  10.916 -0.0556  0.0161  0.0217
  546loPI   PO4 8724  17.612  17.788  10.384 -0.0641  0.1319 -0.2607
  546loPI   GL1 8725  17.452  18.101  10.047 -0.1026 -0.2147 -0.2103
  546loPI   GL2 8726  17.433  17.854   9.907  0.0198 -0.3957 -0.0719
  546loPI   C1A 8727  17.658  18.335   9.817  0.3152 -0.1322  0.1889
  546loPI   C2A 8728  18.008  18.374   9.497  0.3812 -0.1193  0.1428
  546loPI   C3A 8729  18.366  18.283   9.189  0.0288 -0.1377  0.1147
  546loPI   C4A 8730  18.599  18.405   8.830 -0.1065  0.2124 -0.2334
  546loPI   C5A 8731  18.933  18.378   8.473  0.0827  0.2055  0.1256
  546loPI   C6A 8732  19.306  18.167   8.467  0.2250 -0.0274 -0.0882
  546loPI   C1B 8733  17.314  17.805   9.387  0.2955  0.0962  0.0598
  546loPI   C2B 8734  17.111  17.778   9.030 -0.0917 -0.1970 -0.2809
  546loPI   C3B 8735  16.882  17.867   8.695 -0.2229 -0.1407 -0.1295
  546loPI   C4B 8736  16.507  17.839   8.572 -0.1324 -0.3403  0.1354
  547loPI    C1 8737  12.093   4.388  10.601  0.1057  0.0005 -0.0092
  547loPI    C2 8738  12.427   4.327  10.813  0.0750 -0.1108  0.0078
  547loPI    C3 8739  12.163   4.030  10.765 -0.0286 -0.0192  0.0061
  547loPI   PO4 8740  12.177   4.513  10.359 -0.0022  0.5041  0.1443
  547loPI   GL1 8741  12.457   4.549  10.039  0.1371  0.3074  0.2606
  547loPI   GL2 8742  12.746   4.724  10.024  0.2249  0.0912 -0.4667
  547loPI   C1A 8743  12.290   4.740   9.726  0.1406  0.0611 -0.0500
  547loPI   C2A 8744  12.077   4.773   9.341  0.1880 -0.2220 -0.3388
  547loPI   C3A 8745  12.106   5.084   8.980  0.0654 -0.0329 -0.0483
  547loPI   C4A 8746  11.974   5.456   8.750 -0.2222 -0.1676  0.3274
  547loPI   C5A 8747  11.804   5.599   8.493  0.0348  0.1252  0.0936
  547loPI   C6A 8748  11.544   5.298   8.249  0.2084  0.1251  0.0978
  547loPI   C1B 8749  12.835   4.645   9.616  0.1076 -0.1165  0.1418
  547loPI   C2B 8750  12.860   4.475   9.224  0.0475 -0.3069 -0.4175
  547loPI   C3B 8751  13.066   4.461   8.857 -0.2515 -0.0836 -0.2524
  547loPI   C4B 8752  12.967   4.180   8.482  0.1097  0.0002 -0.2044
  548loPI    C1 8753   6.661  14.553  11.452  0.2371 -0.2102  0.0437
  548loPI    C2 8754   6.391  14.320  11.270  0.0560  0.0770 -0.0626
  548loPI    C3 8755   6.385  14.360  11.668  0.2418 -0.2875 -0.0188
  548loPI   PO4 8756   6.656  14.729  11.385 -0.0439 -0.3519  0.0101
  548loPI   GL1 8757   6.734  14.857  10.928  0.3090 -0.0585 -0.0245
  548loPI   GL2 8758   6.789  15.090  10.762 -0.2414 -0.0343  0.2997
  548loPI   C1A 8759   6.573  14.724  10.458  0.0893  0.2436  0.3450
  548loPI   C2A 8760   6.477  14.769  10.053 -0.0384  0.0529 -0.0187
  548loPI   C3A 8761   6.604  14.888   9.640  0.0286  0.2966  0.1152
  548loPI   C4A 8762   6.619  14.946   9.248  0.1051  0.1378 -0.0446
  548loPI   C5A 8763   6.579  14.617   8.837  0.2322 -0.0855 -0.0402
  548loPI   C6A 8764   6.679  14.482   8.421  0.1196 -0.0513  0.1391
  548loPI   C1B 8765   6.788  15.170  10.282  0.0430  0.2854  0.1785
  548loPI   C2B 8766   7.022  15.199   9.909  0.0074  0.1988 -0.2508
  548loPI   C3B 8767   7.001  15.247   9.445 -0.0017 -0.5338 -0.0367
  548loPI   C4B 8768   7.029  15.179   9.021  0.1841  0.0892  0.1777
  549loPI    C1 8769   4.139   5.657  11.127 -0.2940  0.1085  0.1633
  549loPI    C2 8770   4.034   5.297  10.987  0.1790 -0.0439  0.1839
  549loPI    C3 8771   3.857   5.444  11.314  0.0077 -0.2730  0.1967
  549loPI   PO4 8772   4.136   5.772  10.921 -0.0896  0.0702  0.2379
  549loPI   GL1 8773   4.050   5.698  10.508 -0.2295  0.0716 -0.1285
  549loPI   GL2 8774   4.410   5.804  10.515 -0.2509 -0.0441  0.3711
  549loPI   C1A 8775   4.014   5.526  10.088  0.0446  0.0208  0.3031
  549loPI   C2A 8776   3.982   5.545   9.737 -0.3226  0.1318 -0.0896
  549loPI   C3A 8777   4.208   5.677   9.324  0.1392  0.0358 -0.1795
  549loPI   C4A 8778   4.131   5.670   8.939  0.2056  0.0422 -0.0219
  549loPI   C5A 8779   3.987   5.798   8.539 -0.0221  0.3170 -0.0232
  549loPI   C6A 8780   3.912   5.999   8.169 -0.0108 -0.3462  0.1579
  549loPI   C1B 8781   4.422   5.770  10.041  0.1547  0.2683  0.1168
  549loPI   C2B 8782   4.590   5.787   9.576  0.0430  0.0136 -0.0812
  549loPI   C3B 8783   4.652   5.927   9.170 -0.0978  0.0561 -0.0314
  549loPI   C4B 8784   4.533   5.926   8.687  0.0654 -0.1625 -0.0422
  550loPI    C1 8785  17.365  11.250  11.607  0.0986 -0.1992 -0.1482
  550loPI    C2 8786  17.575  10.996  11.833  0.1935 -0.0466 -0.0634
  550loPI    C3 8787  17.220  11.130  11.959  0.1187 -0.1781 -0.1329
  550loPI   PO4 8788  17.528  11.266  11.426  0.0688  0.1480 -0.0238
  550loPI   GL1 8789  17.527  11.365  10.953 -0.0382  0.0137 -0.1768
  550loPI   GL2 8790  17.285  11.636  10.903  0.1723 -0.0105 -0.1491
  550loPI   C1A 8791  17.241  11.175  10.610 -0.0838 -0.1100  0.3235
  550loPI   C2A 8792  17.058  11.298  10.170  0.4485  0.1485  0.0854
  550loPI   C3A 8793  16.925  11.296   9.842 -0.0724 -0.2539 -0.0411
  550loPI   C4A 8794  16.914  11.197   9.347  0.0312 -0.0404 -0.0674
  550loPI   C5A 8795  16.849  11.312   8.954 -0.0490 -0.0624 -0.1700
  550loPI   C6A 8796  16.886  11.717   8.752  0.0886 -0.0770  0.2435
  550loPI   C1B 8797  17.018  11.686  10.489 -0.2274  0.3613  0.1561
  550loPI   C2B 8798  16.946  11.770  10.076  0.1025 -0.1094 -0.0286
  550loPI   C3B 8799  16.792  11.777   9.658 -0.1523 -0.0303  0.3361
  550loPI   C4B 8800  16.905  11.761   9.312 -0.2574  0.0147 -0.0128
  551loPI    C1 8801  14.448  14.867  11.435 -0.1984 -0.2780  0.1673
  551loPI    C2 8802  14.770  14.634  11.389 -0.1268 -0.1383 -0.0540
  551loPI    C3 8803  14.675  14.774  11.751  0.2180  0.0402 -0.0285
  551loPI   PO4 8804  14.279  14.718  11.259  0.0949 -0.3566  0.2167
  551loPI   GL1 8805  14.284  14.408  10.907  0.1214 -0.3218 -0.0376
  551loPI   GL2 8806  14.418  14.573  10.766 -0.0703  0.0306 -0.0239
  551loPI   C1A 8807  14.449  14.031  10.582  0.1207 -0.1614 -0.1738
  551loPI   C2A 8808  14.422  13.947  10.127 -0.1021 -0.0230  0.1620
  551loPI   C3A 8809  14.507  13.938   9.671 -0.2096 -0.1306 -0.1105
  551loPI   C4A 8810  14.525  13.938   9.256 -0.0290 -0.1052  0.5354
  551loPI   C5A 8811  14.525  13.946   8.837  0.0601 -0.0001  0.2672
  551loPI   C6A 8812  14.595  14.176   8.495 -0.1118  0.0203  0.1841
  551loPI   C1B 8813  14.413  14.485  10.301  0.2145 -0.0152 -0.0332
  551loPI   C2B 8814  14.381  14.430   9.895 -0.0736  0.1036 -0.1835
  551loPI   C3B 8815  14.463  14.420   9.499  0.2240 -0.0880  0.1611
  551loPI   C4B 8816  14.466  14.463   9.078 -0.1481 -0.0411 -0.0230
  552loPI    C1 8817   6.366  16.933  10.923 -0.0037  0.0051 -0.0195
  552loPI    C2 8818   6.118  17.197  11.092  0.0195 -0.0755  0.1427
  552loPI    C3 8819   6.273  16.900  11.311  0.3365  0.0310  0.0674
  552loPI   PO4 8820   6.206  16.921  10.695 -0.2138  0.1494  0.0013
  552loPI   GL1 8821   6.009  16.865  10.255 -0.0334  0.1923  0.2582
  552loPI   GL2 8822   5.997  16.580  10.273  0.3185  0.1594  0.0115
  552loPI   C1A 8823   5.864  17.184   9.882 -0.3782 -0.0861 -0.0832
  552loPI   C2A 8824   5.695  17.569   9.804  0.0368 -0.1496  0.0584
  552loPI   C3A 8825   5.692  17.750   9.484  0.0831  0.5032 -0.1148
  552loPI   C4A 8826   5.633  17.786   8.976  0.2315  0.2406 -0.0917
  552loPI   C5A 8827   5.314  17.664   8.637 -0.1641  0.0489  0.1307
  552loPI   C6A 8828   4.927  17.953   8.410  0.4566 -0.0831 -0.2563
  552loPI   C1B 8829   5.965  16.703   9.789 -0.0136  0.0517 -0.0472
  552loPI   C2B 8830   5.759  16.713   9.354 -0.2909  0.0233  0.1639
  552loPI   C3B 8831   5.683  16.809   8.925 -0.0402 -0.1615 -0.3808
  552loPI   C4B 8832   5.951  16.921   8.668  0.3095  0.0472  0.0912
  553loPI    C1 8833   0.799   7.632  10.856 -0.1578 -0.1105  0.1066
  553loPI    C2 8834   0.865   7.678  11.248 -0.1469 -0.0375  0.0964
  553loPI    C3 8835   1.164   7.568  11.006 -0.1127  0.0831  0.0830
  553loPI   PO4 8836   0.578   7.563  10.831  0.0658 -0.0798  0.1774
  553loPI   GL1 8837   0.485   7.409  10.335  0.0004 -0.1163 -0.1498
  553loPI   GL2 8838   0.335   7.495  10.124 -0.0577 -0.1166 -0.2245
  553loPI   C1A 8839   0.793   7.402   9.969  0.1104  0.0794  0.2379
  553loPI   C2A 8840   0.806   7.317   9.585 -0.2290  0.0451  0.0050
  553loPI   C3A 8841   0.802   7.160   9.181  0.0881 -0.3535  0.2006
  553loPI   C4A 8842   0.939   7.185   8.839  0.0824 -0.0758 -0.1796
  553loPI   C5A 8843   0.835   7.346   8.442 -0.1155 -0.1446 -0.0410
  553loPI   C6A 8844   0.596   7.354   8.009 -0.0003 -0.2835 -0.0080
  553loPI   C1B 8845   0.356   7.518   9.662  0.1575 -0.0066 -0.0357
  553loPI   C2B 8846   0.359   7.472   9.234  0.2230  0.1117 -0.1812
  553loPI   C3B 8847   0.535   7.472   8.817  0.0248 -0.1690  0.2066
  553loPI   C4B 8848   0.288   7.460   8.379 -0.3133  0.1899  0.1394
  554loPI    C1 8849  10.933  12.606  11.385  0.3025  0.0135 -0.0799
  554loPI    C2 8850  11.174  12.701  11.690  0.0451  0.0624  0.1110
  554loPI    C3 8851  11.051  12.324  11.643  0.0431  0.0647  0.0979
  554loPI   PO4 8852  11.018  12.678  11.172  0.0293 -0.0190  0.1315
  554loPI   GL1 8853  11.131  12.486  10.844 -0.0544 -0.0178  0.0103
  554loPI   GL2 8854  10.905  12.639  10.623  0.1161 -0.1516 -0.0008
  554loPI   C1A 8855  11.204  12.229  10.465 -0.0596 -0.1050  0.0436
  554loPI   C2A 8856  11.141  12.235   9.990  0.0397 -0.1232  0.1043
  554loPI   C3A 8857  11.165  12.225   9.550  0.0433  0.2511  0.1180
  554loPI   C4A 8858  11.281  12.219   9.104  0.0172  0.2211 -0.1879
  554loPI   C5A 8859  11.324  12.379   8.655  0.0314 -0.2651  0.0932
  554loPI   C6A 8860  11.087  12.733   8.446 -0.1588  0.2797  0.1425
  554loPI   C1B 8861  11.020  12.668  10.247  0.3016 -0.1189  0.1444
  554loPI   C2B 8862  11.104  12.697   9.783  0.1214  0.1640  0.0807
  554loPI   C3B 8863  11.023  12.702   9.376  0.0098 -0.2319  0.1858
  554loPI   C4B 8864  11.015  12.719   8.932 -0.1026 -0.0700 -0.1421
  555loPI    C1 8865  13.838   8.110  10.843 -0.1628 -0.1361  0.1772
  555loPI    C2 8866  14.147   8.152  11.093 -0.0278 -0.2293  0.0282
  555loPI    C3 8867  14.166   7.886  10.795 -0.2603 -0.2495  0.0294
  555loPI   PO4 8868  13.613   8.120  10.930 -0.0581  0.1933 -0.1432
  555loPI   GL1 8869  13.259   8.178  10.669  0.1910  0.0589  0.4184
  555loPI   GL2 8870  13.153   7.893  10.732 -0.1685  0.0619  0.1519
  555loPI   C1A 8871  13.351   8.184  10.209 -0.0472  0.4463  0.3985
  555loPI   C2A 8872  13.319   8.155   9.731 -0.0474 -0.2393  0.0690
  555loPI   C3A 8873  13.445   8.190   9.259 -0.2370  0.1788 -0.0726
  555loPI   C4A 8874  13.480   8.277   8.892  0.2745 -0.0930 -0.1177
  555loPI   C5A 8875  13.841   8.325   8.547 -0.0006 -0.1238 -0.1889
  555loPI   C6A 8876  14.201   8.424   8.538 -0.4239 -0.2523 -0.1211
  555loPI   C1B 8877  13.023   7.799  10.316 -0.2399  0.0787 -0.0328
  555loPI   C2B 8878  12.933   7.840   9.837 -0.1799  0.1202  0.2712
  555loPI   C3B 8879  13.068   7.856   9.381  0.0238  0.1849 -0.2653
  555loPI   C4B 8880  13.060   8.046   8.920 -0.0642 -0.2728 -0.2178
  556loPI    C1 8881  11.988   2.863  10.760 -0.0133  0.0466  0.0055
  556loPI    C2 8882  12.095   2.620  11.059  0.1657 -0.0225 -0.1130
  556loPI    C3 8883  11.717   2.746  11.029  0.1340 -0.0609  0.1092
  556loPI   PO4 8884  12.113   2.839  10.588  0.0372 -0.0549  0.2798
  556loPI   GL1 8885  12.009   2.555  10.216  0.0304  0.1289 -0.1968
  556loPI   GL2 8886  11.792   2.815  10.066 -0.0950  0.0112  0.1325
  556loPI   C1A 8887  12.006   2.176   9.942 -0.3663  0.0131 -0.1304
  556loPI   C2A 8888  11.967   2.060   9.568  0.1592  0.0728 -0.0295
  556loPI   C3A 8889  11.943   2.148   9.119  0.0335 -0.2730 -0.0643
  556loPI   C4A 8890  12.131   2.179   8.693  0.1634 -0.4574  0.3783
  556loPI   C5A 8891  12.234   2.300   8.310 -0.4697  0.2207  0.1742
  556loPI   C6A 8892  12.398   2.298   7.919  0.2209 -0.1428 -0.1191
  556loPI   C1B 8893  11.856   2.561   9.677 -0.1667 -0.1097 -0.0583
  556loPI   C2B 8894  11.904   2.635   9.241 -0.0782  0.0342 -0.2651
  556loPI   C3B 8895  11.816   2.666   8.844 -0.0979  0.0687  0.0775
  556loPI   C4B 8896  11.724   2.576   8.399  0.2840 -0.1256 -0.2334
  557loPI    C1 8897   4.708   6.230  11.465 -0.0123 -0.0998 -0.1790
  557loPI    C2 8898   4.470   5.909  11.460  0.1120 -0.2086  0.3046
  557loPI    C3 8899   4.371   6.227  11.681  0.1206 -0.0145  0.0333
  557loPI   PO4 8900   4.838   6.244  11.296  0.0024 -0.0412  0.1935
  557loPI   GL1 8901   4.912   6.166  10.843 -0.2068  0.3318  0.2016
  557loPI   GL2 8902   5.260   6.207  10.642  0.0613  0.3005  0.2372
  557loPI   C1A 8903   4.593   6.278  10.488 -0.1059 -0.2281  0.0434
  557loPI   C2A 8904   4.553   6.241  10.002  0.3813 -0.1190 -0.0551
  557loPI   C3A 8905   4.634   6.305   9.525  0.0675 -0.1258 -0.0916
  557loPI   C4A 8906   4.645   6.436   9.124 -0.0897 -0.1892 -0.0044
  557loPI   C5A 8907   4.716   6.439   8.681  0.3137 -0.0659  0.1952
  557loPI   C6A 8908   4.879   6.554   8.338 -0.1015  0.0907 -0.0962
  557loPI   C1B 8909   5.504   6.100  10.354  0.2059 -0.1329  0.3462
  557loPI   C2B 8910   5.468   6.207   9.860  0.2544 -0.1160  0.1485
  557loPI   C3B 8911   5.510   6.253   9.443  0.1018 -0.0630 -0.2468
  557loPI   C4B 8912   5.552   6.285   8.930  0.0907  0.2402  0.3105
  558loPI    C1 8913  14.948   9.459  11.358  0.0677 -0.0504 -0.1755
  558loPI    C2 8914  14.946   9.765  11.615  0.1425 -0.0704 -0.1506
  558loPI    C3 8915  15.220   9.477  11.651  0.1867 -0.0459 -0.2858
  558loPI   PO4 8916  14.852   9.537  11.144 -0.0008 -0.1453  0.0611
  558loPI   GL1 8917  14.868   9.469  10.756 -0.1629  0.1508  0.1118
  558loPI   GL2 8918  14.978   9.755  10.735 -0.0063 -0.0746  0.0059
  558loPI   C1A 8919  14.976   9.523  10.312 -0.1414 -0.0387  0.1350
  558loPI   C2A 8920  15.046   9.560   9.804 -0.0951  0.2046 -0.0524
  558loPI   C3A 8921  15.104   9.483   9.373  0.1431  0.1507  0.1921
  558loPI   C4A 8922  15.011   9.424   8.889  0.1019 -0.0337  0.0791
  558loPI   C5A 8923  14.854   9.224   8.554 -0.0235 -0.0733  0.2920
  558loPI   C6A 8924  14.429   9.258   8.321  0.1123  0.2552 -0.1363
  558loPI   C1B 8925  14.846  10.012  10.431 -0.1205  0.0038 -0.0776
  558loPI   C2B 8926  14.860   9.992   9.974 -0.1578 -0.1599 -0.1370
  558loPI   C3B 8927  14.935  10.100   9.521 -0.1034  0.0489  0.1434
  558loPI   C4B 8928  14.861  10.244   9.081  0.2292  0.0038  0.2697
  559loPI    C1 8929  16.527   5.041  10.534 -0.2854 -0.2080  0.0121
  559loPI    C2 8930  16.717   5.109  10.879  0.1408 -0.3215 -0.1943
  559loPI    C3 8931  16.594   5.416  10.655 -0.1747 -0.2472  0.0737
  559loPI   PO4 8932  16.405   4.852  10.546  0.0034 -0.0350  0.0037
  559loPI   GL1 8933  16.232   4.705  10.183 -0.0857  0.3083  0.0152
  559loPI   GL2 8934  16.533   4.909  10.036  0.0578 -0.1476 -0.2007
  559loPI   C1A 8935  16.132   4.761   9.808 -0.0463 -0.1140 -0.1316
  559loPI   C2A 8936  16.116   4.673   9.367 -0.1560  0.0580  0.2015
  559loPI   C3A 8937  16.000   4.508   9.007 -0.0560  0.2051  0.0948
  559loPI   C4A 8938  15.932   4.322   8.692 -0.2054 -0.0775 -0.0002
  559loPI   C5A 8939  16.175   4.280   8.379  0.1706  0.3059  0.1442
  559loPI   C6A 8940  16.330   4.090   8.058 -0.2346 -0.0772 -0.2286
  559loPI   C1B 8941  16.596   4.831   9.595  0.0441 -0.1756 -0.0661
  559loPI   C2B 8942  16.575   4.749   9.163 -0.2290  0.0703  0.0754
  559loPI   C3B 8943  16.341   4.760   8.774  0.0384  0.0489  0.3253
  559loPI   C4B 8944  16.189   4.799   8.304  0.0584 -0.0219 -0.1066
  560loPI    C1 8945   2.696  10.821  11.288 -0.2980 -0.1967 -0.0620
  560loPI    C2 8946   2.922  10.596  11.529  0.1935  0.0612 -0.2675
  560loPI    C3 8947   2.858  10.981  11.616 -0.2214 -0.0219 -0.1834
  560loPI   PO4 8948   2.736  10.674  11.063 -0.0203  0.0665 -0.3060
  560loPI   GL1 8949   2.671  10.800  10.643 -0.1495  0.0187 -0.1432
  560loPI   GL2 8950   2.927  10.777  10.605  0.0675  0.0357  0.1044
  560loPI   C1A 8951   2.560  11.010  10.198  0.2184  0.0988  0.0638
  560loPI   C2A 8952   2.398  10.937   9.735 -0.4615 -0.2772 -0.1346
  560loPI   C3A 8953   2.330  11.134   9.358 -0.1139  0.1771 -0.4046
  560loPI   C4A 8954   2.285  11.083   8.950  0.0290  0.1349  0.0889
  560loPI   C5A 8955   2.474  11.192   8.494  0.0637  0.2063 -0.1458
  560loPI   C6A 8956   2.357  11.374   8.077  0.0665 -0.0310 -0.5365
  560loPI   C1B 8957   3.072  10.726  10.194  0.0891  0.2356  0.1002
  560loPI   C2B 8958   3.336  10.716   9.793  0.0220  0.0178  0.0092
  560loPI   C3B 8959   3.291  10.738   9.315  0.0282 -0.1253  0.1464
  560loPI   C4B 8960   3.228  10.748   8.864 -0.2228  0.0557  0.0472
  561loPI    C1 8961   4.211   1.553  10.723  0.3787 -0.2417  0.2047
  561loPI    C2 8962   4.331   1.927  10.644 -0.1227 -0.1410 -0.1269
  561loPI    C3 8963   4.296   1.804  11.023 -0.2178  0.2403 -0.0076
  561loPI   PO4 8964   4.291   1.374  10.503  0.0531 -0.2361 -0.0466
  561loPI   GL1 8965   4.384   1.123  10.223 -0.1758  0.1917 -0.1423
  561loPI   GL2 8966   4.640   0.925  10.239 -0.0551  0.0433  0.0938
  561loPI   C1A 8967   4.353   1.206   9.807 -0.1188  0.0218  0.0194
  561loPI   C2A 8968   4.262   1.250   9.309  0.0772 -0.1590 -0.2380
  561loPI   C3A 8969   4.455   1.356   8.994  0.0162 -0.5281  0.2725
  561loPI   C4A 8970   4.447   1.537   8.574 -0.0810  0.0811  0.0401
  561loPI   C5A 8971   4.185   1.765   8.352 -0.0516 -0.1072 -0.3031
  561loPI   C6A 8972   4.357   2.084   8.197 -0.0354 -0.0917  0.1260
  561loPI   C1B 8973   4.816   0.992   9.972  0.1454 -0.0501  0.0340
  561loPI   C2B 8974   4.718   1.079   9.494 -0.1051  0.3581  0.1257
  561loPI   C3B 8975   4.882   1.097   9.039 -0.0447  0.2376 -0.0489
  561loPI   C4B 8976   4.852   1.173   8.676  0.1659 -0.1593 -0.0286
  562loPI    C1 8977  17.195  14.066  11.382  0.0590  0.0022 -0.0712
  562loPI    C2 8978  17.027  14.296  11.661  0.0171 -0.0412 -0.0604
  562loPI    C3 8979  17.029  13.899  11.705  0.0194 -0.0474 -0.1170
  562loPI   PO4 8980  17.025  14.098  11.088 -0.1656 -0.2271  0.1666
  562loPI   GL1 8981  17.156  14.226  10.683 -0.0544 -0.1906  0.0894
  562loPI   GL2 8982  17.013  14.538  10.573 -0.2242  0.0799  0.4805
  562loPI   C1A 8983  16.978  14.027  10.287 -0.0950 -0.0426 -0.0477
  562loPI   C2A 8984  16.916  14.019   9.848  0.1104 -0.0334 -0.2497
  562loPI   C3A 8985  16.838  14.072   9.467  0.0286 -0.0085 -0.2882
  562loPI   C4A 8986  16.793  14.111   9.073  0.0504  0.1863 -0.0797
  562loPI   C5A 8987  16.832  14.255   8.641 -0.2132  0.0205 -0.1106
  562loPI   C6A 8988  16.947  14.650   8.422 -0.3470  0.0228  0.0177
  562loPI   C1B 8989  17.139  14.470  10.158  0.1536  0.2585  0.3479
  562loPI   C2B 8990  17.122  14.434   9.692  0.0019 -0.2277 -0.1901
  562loPI   C3B 8991  17.260  14.457   9.234  0.3361  0.0139  0.4815
  562loPI   C4B 8992  17.254  14.481   8.834  0.2878  0.1675  0.2003
  563loPI    C1 8993  14.102   2.328  10.756  0.0809  0.1809  0.1011
  563loPI    C2 8994  14.489   2.339  10.858  0.1051  0.1262  0.0161
  563loPI    C3 8995  14.207   2.396  11.136  0.1672 -0.1635  0.1421
  563loPI   PO4 8996  14.135   2.076  10.573 -0.4576  0.1243  0.2165
  563loPI   GL1 8997  14.152   1.926  10.193  0.2254 -0.1634 -0.1883
  563loPI   GL2 8998  13.781   1.931   9.994  0.0400  0.2883 -0.1638
  563loPI   C1A 8999  14.400   1.892   9.863 -0.0823 -0.0328 -0.0797
  563loPI   C2A 9000  14.734   1.949   9.551 -0.0433 -0.1445  0.1140
  563loPI   C3A 9001  14.789   1.999   9.093 -0.3348  0.0156  0.1539
  563loPI   C4A 9002  15.105   2.164   8.872  0.2625  0.1061 -0.2605
  563loPI   C5A 9003  15.128   2.318   8.466  0.1190 -0.1541 -0.0895
  563loPI   C6A 9004  15.062   2.406   8.134 -0.1096 -0.3551  0.0623
  563loPI   C1B 9005  13.740   1.949   9.551 -0.4071 -0.2430  0.0239
  563loPI   C2B 9006  13.649   2.142   9.102 -0.2679  0.1312  0.1739
  563loPI   C3B 9007  13.932   2.009   8.632  0.0811 -0.0280 -0.0843
  563loPI   C4B 9008  14.204   1.806   8.375  0.0522 -0.2572 -0.1658
  564loPI    C1 9009   9.890   6.716  11.073  0.0652  0.1684 -0.0755
  564loPI    C2 9010   9.799   6.877  11.428  0.0747  0.1133 -0.0479
  564loPI    C3 9011  10.153   6.699  11.374  0.0574  0.0861 -0.0729
  564loPI   PO4 9012   9.718   6.846  10.936  0.0311 -0.2373 -0.1580
  564loPI   GL1 9013   9.557   6.776  10.623 -0.2706 -0.0240 -0.2954
  564loPI   GL2 9014   9.262   6.876  10.572  0.0627  0.0543  0.1619
  564loPI   C1A 9015   9.651   7.031  10.230  0.0046 -0.1871  0.0297
  564loPI   C2A 9016   9.805   7.216   9.814  0.1387 -0.0861  0.0928
  564loPI   C3A 9017   9.816   7.695   9.556  0.1986  0.1322 -0.2500
  564loPI   C4A 9018   9.706   7.816   9.060 -0.0205 -0.0015 -0.0009
  564loPI   C5A 9019   9.539   7.998   8.769 -0.3350 -0.0553  0.1977
  564loPI   C6A 9020   9.703   8.453   8.486  0.0557  0.1703 -0.0653
  564loPI   C1B 9021   8.915   6.999  10.269  0.0690 -0.2748 -0.0277
  564loPI   C2B 9022   8.780   7.186   9.785 -0.0667 -0.0248  0.1086
  564loPI   C3B 9023   8.930   7.437   9.421 -0.2193  0.0531  0.1495
  564loPI   C4B 9024   8.696   7.586   9.065 -0.2675  0.2383 -0.1250
  565loPI    C1 9025   0.460   7.105  10.956 -0.0063 -0.1221 -0.1209
  565loPI    C2 9026   0.820   7.177  11.114 -0.0911  0.0897 -0.0199
  565loPI    C3 9027   0.552   6.962  11.318  0.0483 -0.2467 -0.1835
  565loPI   PO4 9028   0.474   7.027  10.704 -0.1932 -0.0750  0.3422
  565loPI   GL1 9029   0.465   6.922  10.320 -0.0823  0.0308 -0.1289
  565loPI   GL2 9030   0.782   6.854  10.198 -0.2789  0.3297 -0.2242
  565loPI   C1A 9031   0.434   7.021   9.974  0.2762 -0.1778 -0.0019
  565loPI   C2A 9032   0.426   7.027   9.525 -0.0142 -0.3169 -0.2412
  565loPI   C3A 9033   0.394   6.925   9.102  0.2300 -0.1423 -0.2399
  565loPI   C4A 9034   0.499   7.050   8.671  0.0076 -0.0109 -0.1227
  565loPI   C5A 9035   0.355   6.975   8.273  0.0739 -0.0715  0.2272
  565loPI   C6A 9036   0.103   7.004   8.039  0.0163 -0.0259  0.1531
  565loPI   C1B 9037   0.810   6.772   9.744  0.3178 -0.1036 -0.0314
  565loPI   C2B 9038   0.817   6.698   9.334  0.3839 -0.1997 -0.0212
  565loPI   C3B 9039   0.944   6.689   8.949  0.0468  0.1079 -0.2080
  565loPI   C4B 9040   0.899   6.774   8.552 -0.1783 -0.2195 -0.1754
  566loPI    C1 9041   5.050   2.205  10.824  0.1847  0.1336  0.0294
  566loPI    C2 9042   5.030   2.441  11.147 -0.0815 -0.0433  0.1461
  566loPI    C3 9043   5.244   2.102  11.159 -0.3262 -0.1972  0.2365
  566loPI   PO4 9044   5.160   2.270  10.585  0.1443 -0.1201  0.0114
  566loPI   GL1 9045   5.098   2.237  10.165 -0.1791  0.1518  0.1997
  566loPI   GL2 9046   4.942   2.531  10.203 -0.0944  0.0921 -0.0809
  566loPI   C1A 9047   5.237   2.292   9.684  0.0226 -0.1132 -0.1140
  566loPI   C2A 9048   5.318   2.351   9.207 -0.0744  0.1640  0.1098
  566loPI   C3A 9049   5.436   2.309   8.814  0.3108  0.0250  0.1250
  566loPI   C4A 9050   5.311   2.251   8.334  0.0994  0.0705 -0.0821
  566loPI   C5A 9051   5.480   2.162   7.936 -0.1160 -0.0624 -0.0306
  566loPI   C6A 9052   5.612   1.968   7.634 -0.0885  0.0333  0.1134
  566loPI   C1B 9053   4.752   2.596   9.839 -0.2434 -0.1053  0.1602
  566loPI   C2B 9054   4.850   2.575   9.454 -0.0249 -0.2917 -0.0418
  566loPI   C3B 9055   5.020   2.731   9.104  0.0126 -0.1945 -0.0162
  566loPI   C4B 9056   5.138   2.726   8.678 -0.1758  0.3031 -0.2736
  567loPI    C1 9057  13.937   1.148  10.672 -0.1260 -0.1390 -0.1073
  567loPI    C2 9058  13.939   0.814  10.891 -0.1742 -0.1478 -0.1203
  567loPI    C3 9059  14.002   1.168  11.066  0.0169 -0.1771 -0.1285
  567loPI   PO4 9060  13.806   1.122  10.445 -0.0629 -0.1356  0.4444
  567loPI   GL1 9061  13.910   0.955  10.108 -0.0618  0.2580  0.2796
  567loPI   GL2 9062  13.844   0.595   9.994 -0.0642 -0.0683  0.3703
  567loPI   C1A 9063  14.264   0.899   9.927  0.1484  0.1733 -0.0713
  567loPI   C2A 9064  14.539   0.957   9.561 -0.3046  0.3382 -0.2021
  567loPI   C3A 9065  14.706   1.018   9.160 -0.1122  0.1391  0.2387
  567loPI   C4A 9066  14.932   1.177   8.833  0.0979 -0.0383 -0.0052
  567loPI   C5A 9067  15.105   1.359   8.350 -0.3070  0.1079 -0.2705
  567loPI   C6A 9068  15.374   1.483   8.157 -0.0111  0.0777 -0.3946
  567loPI   C1B 9069  13.748   0.247   9.630  0.2601 -0.1846  0.0170
  567loPI   C2B 9070  13.549   0.193   9.282  0.0092 -0.0352 -0.0450
  567loPI   C3B 9071  13.253   0.261   8.931  0.1419  0.1678 -0.0224
  567loPI   C4B 9072  13.151   0.529   8.520 -0.0003 -0.0478 -0.0012
  568loPI    C1 9073  10.455  11.934  11.214 -0.0619 -0.3290  0.1316
  568loPI    C2 9074  10.222  12.232  11.343 -0.1675 -0.3955  0.0953
  568loPI    C3 9075  10.594  12.194  11.484 -0.1790 -0.2898  0.1546
  568loPI   PO4 9076  10.460  11.948  10.951 -0.1080 -0.1354  0.4160
  568loPI   GL1 9077  10.716  12.137  10.635 -0.1369 -0.0332  0.0798
  568loPI   GL2 9078  10.522  12.360  10.445 -0.0607  0.3323  0.1747
  568loPI   C1A 9079  10.673  11.860  10.274 -0.1301 -0.4832  0.0223
  568loPI   C2A 9080  10.801  11.845  10.028 -0.0234  0.2831 -0.0010
  568loPI   C3A 9081  10.782  11.909   9.612 -0.0319  0.1032 -0.2399
  568loPI   C4A 9082  10.765  11.894   9.143 -0.1205  0.1174 -0.1426
  568loPI   C5A 9083  10.648  11.892   8.645  0.0783  0.1337 -0.0757
  568loPI   C6A 9084  10.943  12.087   8.249  0.2759  0.1338  0.0886
  568loPI   C1B 9085  10.584  12.365  10.039 -0.2778  0.0251  0.1358
  568loPI   C2B 9086  10.696  12.494   9.671 -0.1458 -0.2564  0.0345
  568loPI   C3B 9087  10.661  12.402   9.202  0.0284  0.0803 -0.1894
  568loPI   C4B 9088  10.663  12.434   8.702  0.0378 -0.0384 -0.2483
  569loPI    C1 9089   6.431  10.066  11.099 -0.0129  0.1662 -0.0555
  569loPI    C2 9090   6.593  10.414  11.212  0.2435 -0.0374  0.2224
  569loPI    C3 9091   6.453  10.159  11.487 -0.1469 -0.0618  0.0091
  569loPI   PO4 9092   6.539   9.953  10.879  0.2074  0.2332 -0.0286
  569loPI   GL1 9093   6.760   9.682  10.636  0.0611 -0.1954  0.1067
  569loPI   GL2 9094   6.420   9.531  10.584 -0.0584  0.0074  0.0689
  569loPI   C1A 9095   6.717   9.620  10.167 -0.0591  0.0039 -0.1534
  569loPI   C2A 9096   6.782   9.615   9.771 -0.2542  0.1474 -0.1803
  569loPI   C3A 9097   6.861   9.771   9.356  0.2567 -0.0254  0.0955
  569loPI   C4A 9098   6.763   9.782   8.925  0.0445 -0.2536  0.1352
  569loPI   C5A 9099   6.438   9.949   8.650 -0.0658  0.1341  0.1935
  569loPI   C6A 9100   6.137   9.726   8.443 -0.5184  0.1701 -0.3022
  569loPI   C1B 9101   6.266   9.430  10.134  0.0278 -0.1738  0.0318
  569loPI   C2B 9102   6.257   9.520   9.692  0.1719 -0.2030 -0.0651
  569loPI   C3B 9103   6.378   9.569   9.270  0.1590  0.1429 -0.1589
  569loPI   C4B 9104   6.277   9.577   8.930 -0.0296 -0.1357 -0.1161
  570loPI    C1 9105  14.878  12.191  11.434  0.0134  0.0287 -0.0146
  570loPI    C2 9106  15.052  12.283  11.782  0.0723 -0.2400  0.0293
  570loPI    C3 9107  14.657  12.328  11.738  0.1043  0.0687  0.0340
  570loPI   PO4 9108  15.061  12.328  11.194 -0.0068 -0.1007  0.1129
  570loPI   GL1 9109  15.013  12.633  10.950  0.1223  0.0484  0.0800
  570loPI   GL2 9110  15.080  12.908  11.008 -0.1113 -0.2607  0.1116
  570loPI   C1A 9111  14.895  12.423  10.538 -0.0092 -0.0924  0.0559
  570loPI   C2A 9112  14.665  12.429  10.031 -0.3572  0.0728 -0.2826
  570loPI   C3A 9113  14.782  12.473   9.542 -0.0172 -0.1299 -0.1500
  570loPI   C4A 9114  14.811  12.449   9.088 -0.1550 -0.1940 -0.0028
  570loPI   C5A 9115  15.062  12.263   8.862 -0.0452  0.2714 -0.0390
  570loPI   C6A 9116  15.263  11.850   8.889  0.2671 -0.0938 -0.3247
  570loPI   C1B 9117  15.240  12.805  10.589  0.0685  0.0250  0.2830
  570loPI   C2B 9118  15.051  12.715  10.183  0.4024  0.0383  0.0563
  570loPI   C3B 9119  15.121  12.758   9.764  0.2770 -0.2056  0.1601
  570loPI   C4B 9120  15.184  12.694   9.281  0.1977  0.1529  0.3799
  571loPI    C1 9121  14.030  16.059  11.447  0.0610 -0.2816  0.1173
  571loPI    C2 9122  13.691  15.864  11.532 -0.1346 -0.0181 -0.0457
  571loPI    C3 9123  13.906  16.030  11.826 -0.0599 -0.3229  0.0748
  571loPI   PO4 9124  13.974  16.123  11.165  0.0883  0.2209 -0.2374
  571loPI   GL1 9125  14.091  15.906  10.777  0.0760 -0.0962 -0.0348
  571loPI   GL2 9126  13.984  16.051  10.442 -0.1695  0.0125 -0.1468
  571loPI   C1A 9127  14.268  15.611  10.454 -0.0828 -0.0179  0.0894
  571loPI   C2A 9128  14.078  15.491  10.036 -0.0657  0.0150 -0.0841
  571loPI   C3A 9129  14.201  15.512   9.600 -0.0092 -0.0641 -0.3352
  571loPI   C4A 9130  14.250  15.407   9.108 -0.3219  0.0594  0.1059
  571loPI   C5A 9131  14.098  15.361   8.775 -0.0572 -0.0282  0.0170
  571loPI   C6A 9132  14.023  14.951   8.505 -0.2156 -0.2637  0.1389
  571loPI   C1B 9133  13.975  16.080  10.116  0.1485  0.3544  0.1268
  571loPI   C2B 9134  14.106  16.037   9.697 -0.0473 -0.1996  0.0418
  571loPI   C3B 9135  14.206  15.982   9.309 -0.0148 -0.0090  0.0519
  571loPI   C4B 9136  14.292  15.986   8.901 -0.0475  0.0247 -0.2656
  572loPI    C1 9137   8.270  14.607  11.716  0.0858  0.1175 -0.0206
  572loPI    C2 9138   8.645  14.482  11.775  0.0765  0.2390  0.3204
  572loPI    C3 9139   8.338  14.242  11.866  0.0689  0.0763 -0.1131
  572loPI   PO4 9140   8.329  14.716  11.393 -0.3303 -0.0600  0.1386
  572loPI   GL1 9141   8.409  14.636  10.908  0.2513  0.1674 -0.1821
  572loPI   GL2 9142   8.087  14.667  10.882  0.1743  0.2054 -0.3218
  572loPI   C1A 9143   8.658  14.430  10.608 -0.2379 -0.1902 -0.2404
  572loPI   C2A 9144   8.880  14.428  10.188  0.0189  0.1235 -0.1431
  572loPI   C3A 9145   8.964  14.459   9.745  0.1493  0.0580  0.1996
  572loPI   C4A 9146   8.886  14.343   9.309 -0.0388  0.1295 -0.0162
  572loPI   C5A 9147   8.950  14.380   8.939 -0.0996 -0.3272 -0.2724
  572loPI   C6A 9148   8.852  14.323   8.501 -0.0979  0.0483  0.0890
  572loPI   C1B 9149   8.274  14.670  10.422  0.2324 -0.4045  0.0344
  572loPI   C2B 9150   8.387  14.657   9.995 -0.0649 -0.1476  0.2015
  572loPI   C3B 9151   8.450  14.616   9.638 -0.1494 -0.0631 -0.0100
  572loPI   C4B 9152   8.494  14.606   9.152 -0.0381 -0.1331 -0.0775
  573POPI    C1 9153  14.899   4.961  10.616 -0.0042  0.0132 -0.3330
  573POPI    C2 9154  15.255   5.138  10.660 -0.0473  0.0560 -0.1469
  573POPI    C3 9155  14.928   5.305  10.818 -0.1020 -0.1440 -0.0453
  573POPI   PO4 9156  14.901   4.895  10.305  0.3082  0.0764  0.5789
  573POPI   GL1 9157  14.643   4.660  10.003  0.0105 -0.0627  0.0546
  573POPI   GL2 9158  14.967   4.566   9.896  0.0941 -0.1381 -0.0762
  573POPI   C1A 9159  14.558   4.806   9.564  0.3512 -0.0482 -0.0021
  573POPI   D2A 9160  14.459   4.966   9.108 -0.3993 -0.2686  0.3016
  573POPI   C3A 9161  14.425   4.844   8.672 -0.0937 -0.1019  0.0808
  573POPI   C4A 9162  14.318   4.904   8.321  0.1715 -0.2960 -0.2435
  573POPI   C1B 9163  15.121   4.694   9.446  0.2171 -0.2229 -0.1900
  573POPI   C2B 9164  14.908   4.729   9.069 -0.0362  0.0676  0.0364
  573POPI   C3B 9165  14.948   4.763   8.596 -0.0509 -0.2306  0.3898
  573POPI   C4B 9166  14.880   4.786   8.205 -0.0520  0.1869  0.1209
  574POPI    C1 9167  13.384  15.270  11.212 -0.0314  0.0095 -0.0085
  574POPI    C2 9168  13.609  15.318  11.540  0.1602  0.2907 -0.1768
  574POPI    C3 9169  13.290  15.552  11.480 -0.0782  0.0113 -0.0268
  574POPI   PO4 9170  13.544  15.254  11.040 -0.1220  0.2117 -0.1718
  574POPI   GL1 9171  13.614  15.499  10.634 -0.2643  0.2427 -0.0886
  574POPI   GL2 9172  13.784  15.271  10.613 -0.3026  0.1474  0.0095
  574POPI   C1A 9173  13.709  15.705  10.239  0.1310  0.3614 -0.0940
  574POPI   D2A 9174  13.653  15.812   9.861  0.1077  0.1212  0.0589
  574POPI   C3A 9175  13.728  15.592   9.511 -0.0247  0.0951 -0.1069
  574POPI   C4A 9176  13.702  15.609   9.076 -0.3052  0.0690 -0.1320
  574POPI   C1B 9177  13.789  15.137  10.197 -0.0043 -0.0448  0.1237
  574POPI   C2B 9178  13.779  15.141   9.686 -0.2183 -0.1563  0.0136
  574POPI   C3B 9179  13.909  15.122   9.309  0.2110  0.0733  0.1040
  574POPI   C4B 9180  13.703  15.092   9.047  0.3791 -0.1334  0.0994
  575POPI    C1 9181   2.160   1.945  10.581  0.0705 -0.2526 -0.0021
  575POPI    C2 9182   2.486   1.818  10.773  0.0294 -0.1103  0.1640
  575POPI    C3 9183   2.134   1.828  10.962 -0.0310 -0.0660  0.0496
  575POPI   PO4 9184   2.141   1.689  10.347  0.0062 -0.2555 -0.1671
  575POPI   GL1 9185   2.267   1.583   9.969  0.0044  0.0236  0.0783
  575POPI   GL2 9186   2.550   1.539   9.784 -0.1996  0.1327 -0.2275
  575POPI   C1A 9187   2.030   1.812   9.568 -0.2531  0.1911  0.0580
  575POPI   D2A 9188   2.051   1.971   9.263 -0.0444  0.3073 -0.0334
  575POPI   C3A 9189   1.722   1.988   8.981  0.1908  0.0640  0.1185
  575POPI   C4A 9190   1.719   2.074   8.611  0.3351  0.0763 -0.2942
  575POPI   C1B 9191   2.454   1.571   9.344  0.1478  0.2406  0.0329
  575POPI   C2B 9192   2.639   1.456   8.918  0.0987 -0.2875  0.2304
  575POPI   C3B 9193   2.601   1.242   8.573 -0.0638 -0.0907 -0.2795
  575POPI   C4B 9194   2.406   1.106   8.229 -0.3521  0.0485  0.1123
  576POPI    C1 9195  16.409   8.770  11.116  0.2975  0.0444  0.1294
  576POPI    C2 9196  16.230   8.537  11.387 -0.0718 -0.0040 -0.1480
  576POPI    C3 9197  16.627   8.522  11.341 -0.0295 -0.1577  0.2301
  576POPI   PO4 9198  16.294   8.762  10.893 -0.1337  0.1132 -0.2893
  576POPI   GL1 9199  16.441   8.667  10.393 -0.2021  0.1885 -0.1784
  576POPI   GL2 9200  16.465   8.889  10.470  0.0651 -0.2005  0.0588
  576POPI   C1A 9201  16.604   8.540  10.006  0.0071  0.0677 -0.0229
  576POPI   D2A 9202  16.550   8.465   9.504  0.2936 -0.2299  0.0540
  576POPI   C3A 9203  16.604   8.463   9.153 -0.3217 -0.1604 -0.0295
  576POPI   C4A 9204  16.756   8.483   8.695  0.0167 -0.3192  0.0605
  576POPI   C1B 9205  16.533   9.141  10.114  0.1149  0.0926 -0.0824
  576POPI   C2B 9206  16.520   9.015   9.755 -0.0194 -0.0660  0.3232
  576POPI   C3B 9207  16.606   8.997   9.270  0.1824  0.1288 -0.2105
  576POPI   C4B 9208  16.580   8.934   8.853  0.1003 -0.1719  0.1901
  577POPI    C1 9209   7.654   3.254  11.036  0.1058 -0.0869  0.1914
  577POPI    C2 9210   7.642   3.550  11.306 -0.3174 -0.0442  0.1320
  577POPI    C3 9211   7.724   3.176  11.422  0.1502  0.0793  0.2178
  577POPI   PO4 9212   7.800   3.428  10.850 -0.2597 -0.0610  0.0073
  577POPI   GL1 9213   7.801   3.596  10.429  0.1011 -0.1563 -0.0835
  577POPI   GL2 9214   8.039   3.874  10.509 -0.1675 -0.0513  0.1043
  577POPI   C1A 9215   7.799   3.767  10.005 -0.2500 -0.0278  0.1405
  577POPI   D2A 9216   7.793   3.840   9.587 -0.1409  0.0042  0.3320
  577POPI   C3A 9217   7.885   3.942   9.188  0.3284 -0.0635 -0.0818
  577POPI   C4A 9218   7.804   3.911   8.703  0.2919 -0.1274  0.3298
  577POPI   C1B 9219   7.953   4.190  10.130  0.2886  0.0819 -0.0507
  577POPI   C2B 9220   7.961   4.318   9.722 -0.2172  0.4893  0.0464
  577POPI   C3B 9221   7.964   4.413   9.285 -0.0318  0.1559 -0.1135
  577POPI   C4B 9222   7.934   4.487   8.843 -0.2406 -0.0724  0.0213
  578POPI    C1 9223   6.341   0.567  11.078  0.1033 -0.2276  0.0216
  578POPI    C2 9224   6.680   0.761  11.164 -0.0834  0.0721  0.0988
  578POPI    C3 9225   6.486   0.561  11.451 -0.1124  0.1255  0.1165
  578POPI   PO4 9226   6.444   0.393  10.892  0.2930  0.0910 -0.1003
  578POPI   GL1 9227   6.410   0.212  10.468  0.1155  0.0176  0.1228
  578POPI   GL2 9228   6.683   0.400  10.393 -0.3253  0.3018 -0.1215
  578POPI   C1A 9229   6.596  -0.031  10.059  0.1176 -0.1234 -0.1636
  578POPI   D2A 9230   6.616   0.050   9.643  0.3856 -0.2549  0.1886
  578POPI   C3A 9231   6.537   0.325   9.309  0.1578 -0.1257 -0.0202
  578POPI   C4A 9232   6.509   0.384   8.887 -0.2815 -0.2591  0.1238
  578POPI   C1B 9233   6.499   0.523   9.976 -0.1805  0.2056 -0.2319
  578POPI   C2B 9234   6.637   0.716   9.623 -0.3318  0.0477  0.0433
  578POPI   C3B 9235   6.633   0.808   9.194  0.0591 -0.0660 -0.1239
  578POPI   C4B 9236   6.568   0.806   8.690 -0.1530  0.1365  0.2953
  579POPI    C1 9237   7.256   8.706  11.254 -0.0513  0.1748 -0.0904
  579POPI    C2 9238   7.591   8.716  11.472 -0.0717  0.0676 -0.0539
  579POPI    C3 9239   7.251   8.580  11.633 -0.0740 -0.0665 -0.1694
  579POPI   PO4 9240   7.302   8.634  11.014  0.2368  0.2366  0.3327
  579POPI   GL1 9241   7.225   8.658  10.691 -0.0011 -0.1118 -0.4997
  579POPI   GL2 9242   7.340   8.940  10.590  0.2575  0.0081 -0.1478
  579POPI   C1A 9243   7.071   8.750  10.218  0.4454 -0.0512  0.1464
  579POPI   D2A 9244   7.132   8.855   9.822 -0.1913 -0.1997  0.4035
  579POPI   C3A 9245   7.076   8.925   9.366 -0.0151 -0.0547  0.1817
  579POPI   C4A 9246   7.131   8.957   8.932 -0.0323  0.2449 -0.0614
  579POPI   C1B 9247   7.541   8.926  10.091 -0.1738 -0.0147 -0.1315
  579POPI   C2B 9248   7.599   8.999   9.681 -0.0809  0.1084 -0.1119
  579POPI   C3B 9249   7.522   9.113   9.264 -0.0547 -0.0624 -0.1152
  579POPI   C4B 9250   7.605   9.224   8.820 -0.2940  0.3069 -0.3582
  580POPI    C1 9251   5.583   4.211  11.127 -0.0699  0.1918  0.1070
  580POPI    C2 9252   5.420   4.096  11.474  0.2626  0.0031  0.2046
  580POPI    C3 9253   5.700   4.381  11.469 -0.0512  0.3161  0.0393
  580POPI   PO4 9254   5.449   4.281  10.953  0.0630 -0.1372  0.1107
  580POPI   GL1 9255   5.538   4.405  10.627  0.1195  0.2385 -0.1586
  580POPI   GL2 9256   5.707   4.295  10.405  0.1290 -0.0476  0.1056
  580POPI   C1A 9257   5.712   4.781  10.268 -0.0039 -0.3147  0.4405
  580POPI   D2A 9258   5.756   4.868   9.851  0.2195  0.0620  0.0436
  580POPI   C3A 9259   5.746   4.844   9.294 -0.0814 -0.0382 -0.0524
  580POPI   C4A 9260   5.818   4.990   8.909 -0.1515  0.1944 -0.2403
  580POPI   C1B 9261   5.589   4.350  10.038  0.0220  0.1334 -0.0125
  580POPI   C2B 9262   5.699   4.442   9.579  0.2364  0.1537  0.3248
  580POPI   C3B 9263   5.662   4.401   9.145  0.3801  0.0938  0.0779
  580POPI   C4B 9264   5.624   4.392   8.765 -0.2188 -0.2360  0.0219
  581POPI    C1 9265   8.827   9.904  11.185  0.0502 -0.1937  0.0469
  581POPI    C2 9266   8.701   9.591  11.400 -0.2873 -0.0950 -0.0002
  581POPI    C3 9267   8.708   9.957  11.563 -0.0179 -0.1040  0.0135
  581POPI   PO4 9268   8.754   9.880  10.955  0.0024  0.2121 -0.0025
  581POPI   GL1 9269   9.034   9.639  10.701  0.1676 -0.0571  0.0031
  581POPI   GL2 9270   9.235   9.275  10.596  0.0364 -0.1739 -0.1429
  581POPI   C1A 9271   8.984   9.617  10.245 -0.1368 -0.0178 -0.4713
  581POPI   D2A 9272   8.880   9.878   9.838  0.2455  0.0551 -0.0315
  581POPI   C3A 9273   8.726  10.133   9.464 -0.1165  0.1561  0.2654
  581POPI   C4A 9274   8.504  10.179   9.071  0.2190 -0.0436 -0.1950
  581POPI   C1B 9275   8.869   9.171  10.286  0.1159 -0.1716  0.1488
  581POPI   C2B 9276   8.795   9.277   9.831 -0.0473 -0.1205  0.0168
  581POPI   C3B 9277   8.721   9.625   9.430  0.0570  0.3447  0.0169
  581POPI   C4B 9278   8.634   9.674   9.059 -0.0079  0.0107  0.2800
  582POPI    C1 9279  11.303  12.247  11.233 -0.0910  0.1683 -0.1666
  582POPI    C2 9280  11.265  11.964  10.954  0.0366 -0.0224  0.0062
  582POPI    C3 9281  10.939  12.127  11.118 -0.0376 -0.0774 -0.0851
  582POPI   PO4 9282  11.569  12.340  11.101  0.0741 -0.0251 -0.2043
  582POPI   GL1 9283  11.670  12.168  10.694  0.0115  0.0994  0.2570
  582POPI   GL2 9284  11.742  11.857  10.908  0.1465  0.0872 -0.0372
  582POPI   C1A 9285  11.682  11.988  10.343 -0.0170  0.1092 -0.0137
  582POPI   D2A 9286  11.655  12.149   9.915 -0.3959 -0.1401  0.1596
  582POPI   C3A 9287  11.665  12.083   9.439  0.0805  0.2231  0.1758
  582POPI   C4A 9288  11.706  12.015   8.993 -0.3523 -0.1234 -0.4111
  582POPI   C1B 9289  11.700  11.549  10.588  0.1828  0.1575 -0.1335
  582POPI   C2B 9290  11.679  11.533  10.103  0.1454 -0.1439 -0.1969
  582POPI   C3B 9291  11.809  11.545   9.754 -0.0809  0.1242  0.0183
  582POPI   C4B 9292  11.776  11.640   9.322  0.2734 -0.0818  0.3117
  583POPI    C1 9293   7.343  13.412  11.465  0.0988 -0.2123  0.1004
  583POPI    C2 9294   7.618  13.132  11.542  0.2437 -0.0592  0.1479
  583POPI    C3 9295   7.641  13.489  11.721 -0.0177 -0.0631  0.1931
  583POPI   PO4 9296   7.328  13.380  11.166  0.0291  0.0025  0.1898
  583POPI   GL1 9297   7.331  13.506  10.720  0.1900  0.2261  0.1559
  583POPI   GL2 9298   7.403  13.272  10.607 -0.1041  0.3017  0.1243
  583POPI   C1A 9299   7.223  13.654  10.317 -0.5169 -0.0738 -0.3241
  583POPI   D2A 9300   7.345  13.661   9.907  0.0966 -0.1040 -0.3694
  583POPI   C3A 9301   7.234  13.608   9.596  0.2028 -0.2928 -0.0904
  583POPI   C4A 9302   7.277  13.377   9.210  0.0663  0.2407  0.2294
  583POPI   C1B 9303   7.658  13.331  10.264  0.1148  0.2196 -0.2991
  583POPI   C2B 9304   7.635  13.294   9.917  0.0267 -0.2302  0.3909
  583POPI   C3B 9305   7.673  13.448   9.503  0.1562 -0.1920 -0.0978
  583POPI   C4B 9306   7.871  13.389   9.029  0.1962 -0.2038  0.2040
  584POPI    C1 9307  11.674   5.104  11.104  0.1810  0.1842 -0.1184
  584POPI    C2 9308  11.946   5.390  11.168  0.0356  0.3104 -0.0578
  584POPI    C3 9309  11.631   5.355  11.412 -0.0957  0.2776 -0.2295
  584POPI   PO4 9310  11.702   5.058  10.862 -0.1520  0.1036  0.0763
  584POPI   GL1 9311  11.469   5.161  10.522  0.2148 -0.1837 -0.0229
  584POPI   GL2 9312  11.424   4.834  10.286 -0.1360 -0.0812  0.1952
  584POPI   C1A 9313  11.647   5.490  10.235  0.1420  0.3199 -0.2488
  584POPI   D2A 9314  11.923   5.832  10.123  0.0650  0.0540 -0.4273
  584POPI   C3A 9315  12.101   5.717   9.743  0.1398 -0.2928 -0.1251
  584POPI   C4A 9316  12.058   5.811   9.320  0.0971 -0.1577 -0.1036
  584POPI   C1B 9317  11.403   4.966   9.936  0.0062 -0.0772 -0.0127
  584POPI   C2B 9318  11.557   5.041   9.490  0.0344  0.1656  0.3001
  584POPI   C3B 9319  11.609   4.890   9.139 -0.0642 -0.0931 -0.0712
  584POPI   C4B 9320  11.588   5.138   8.776  0.0403  0.0840 -0.0162
  585POPI    C1 9321  10.390   5.265  10.705 -0.0133  0.0517 -0.1204
  585POPI    C2 9322  10.144   4.985  10.561 -0.1232  0.1405 -0.1069
  585POPI    C3 9323  10.214   5.006  10.954 -0.0094  0.0479 -0.1215
  585POPI   PO4 9324  10.310   5.504  10.609 -0.0019  0.1096 -0.0030
  585POPI   GL1 9325  10.427   5.748  10.168  0.1633  0.1689  0.0779
  585POPI   GL2 9326  10.777   5.603  10.099  0.1868 -0.2103  0.0006
  585POPI   C1A 9327  10.175   6.114  10.134 -0.0726  0.1044 -0.0094
  585POPI   D2A 9328  10.047   6.257   9.761 -0.0698 -0.1324 -0.0923
  585POPI   C3A 9329  10.138   6.205   9.373  0.0680  0.2181  0.0674
  585POPI   C4A 9330  10.052   6.069   8.994  0.1982  0.1928  0.2575
  585POPI   C1B 9331  10.586   5.436   9.719 -0.0098 -0.0903 -0.0876
  585POPI   C2B 9332  10.759   5.330   9.388  0.0186 -0.1671 -0.1673
  585POPI   C3B 9333  10.526   5.272   9.069  0.4797  0.4415  0.1026
  585POPI   C4B 9334  10.684   5.104   8.619  0.2061 -0.2341 -0.0087
  586POPI    C1 9335   1.823   0.105  10.969 -0.2168  0.0801  0.0438
  586POPI    C2 9336   1.529   0.047  11.234 -0.1996  0.5669  0.1789
  586POPI    C3 9337   1.860   0.243  11.342  0.1751  0.0422  0.0228
  586POPI   PO4 9338   1.746  -0.122  10.763 -0.1624 -0.0710 -0.0835
  586POPI   GL1 9339   1.874  -0.299  10.445 -0.1469 -0.2370 -0.1047
  586POPI   GL2 9340   2.048  -0.060  10.295 -0.0386 -0.1500  0.1565
  586POPI   C1A 9341   2.178  -0.551  10.192 -0.0032  0.2448 -0.4088
  586POPI   D2A 9342   2.573  -0.508  10.143  0.0879  0.0097 -0.1996
  586POPI   C3A 9343   2.779  -0.421   9.716  0.0261 -0.2263  0.2745
  586POPI   C4A 9344   2.780  -0.781   9.485 -0.0437  0.2717 -0.3693
  586POPI   C1B 9345   1.831  -0.178   9.912 -0.0470 -0.0026 -0.1921
  586POPI   C2B 9346   1.880  -0.096   9.541 -0.0469 -0.1520 -0.1095
  586POPI   C3B 9347   1.998   0.137   9.107  0.0043  0.3955  0.0891
  586POPI   C4B 9348   1.952   0.178   8.689  0.0629  0.1244  0.0479
  587POPI    C1 9349   2.394  17.272  10.933 -0.0118 -0.0225  0.2498
  587POPI    C2 9350   2.626  17.400  10.634 -0.0727 -0.1209  0.1596
  587POPI    C3 9351   2.318  17.622  10.757 -0.2594 -0.2388 -0.0861
  587POPI   PO4 9352   2.371  16.973  10.847 -0.3033  0.1963 -0.0112
  587POPI   GL1 9353   2.326  16.879  10.486 -0.0312 -0.1277 -0.2142
  587POPI   GL2 9354   2.649  16.831  10.459  0.1933  0.1630  0.1659
  587POPI   C1A 9355   2.138  16.785  10.075  0.5734  0.0450  0.1841
  587POPI   D2A 9356   1.960  16.733   9.663  0.0575  0.0383 -0.0751
  587POPI   C3A 9357   2.148  16.542   9.268  0.0671 -0.0714  0.1729
  587POPI   C4A 9358   2.212  16.303   8.918  0.2456 -0.1221 -0.3514
  587POPI   C1B 9359   2.624  16.885   9.997 -0.1179 -0.0520  0.1938
  587POPI   C2B 9360   2.368  17.148   9.770 -0.1700  0.1082  0.1489
  587POPI   C3B 9361   2.105  17.059   9.328  0.0478  0.0295 -0.2103
  587POPI   C4B 9362   2.210  17.264   8.936  0.1338  0.1449  0.2629
  588DPPI    C1 9363  10.156   3.102  11.191 -0.0378 -0.0908 -0.1112
  588DPPI    C2 9364  10.005   2.928  11.518  0.0222 -0.2247 -0.1541
  588DPPI    C3 9365  10.011   3.327  11.489 -0.2761 -0.2160 -0.1302
  588DPPI   PO4 9366  10.020   2.959  10.896  0.0350  0.1668 -0.1710
  588DPPI   GL1 9367  10.017   2.923  10.455  0.3166 -0.2201  0.2852
  588DPPI   GL2 9368  10.196   3.097  10.330  0.0717  0.0864  0.1473
  588DPPI   C1A 9369   9.624   2.920  10.194 -0.0643 -0.3214  0.1346
  588DPPI   C2A 9370   9.523   3.029   9.763 -0.2261  0.1264  0.0180
  588DPPI   C3A 9371   9.611   3.051   9.364  0.0244 -0.4125 -0.1020
  588DPPI   C4A 9372   9.621   3.244   9.052  0.1412  0.0698 -0.1906
  588DPPI   C1B 9373  10.081   3.174   9.969  0.2642 -0.0937  0.0743
  588DPPI   C2B 9374  10.036   3.315   9.591 -0.1328 -0.2508  0.3198
  588DPPI   C3B 9375  10.085   3.453   9.127  0.0095 -0.0333 -0.0011
  588DPPI   C4B 9376   9.851   3.520   8.732  0.0300  0.3339 -0.0388
  589DPPI    C1 9377   4.703  10.519  11.054 -0.1181 -0.1266 -0.1482
  589DPPI    C2 9378   4.688  10.255  11.354  0.2557 -0.0418 -0.0499
  589DPPI    C3 9379   4.615  10.642  11.425 -0.0970 -0.0859 -0.1566
  589DPPI   PO4 9380   4.961  10.430  10.900  0.3323 -0.0059  0.0711
  589DPPI   GL1 9381   4.947  10.276  10.421 -0.0852  0.1094 -0.2641
  589DPPI   GL2 9382   5.209  10.488  10.454  0.1544 -0.2242  0.0066
  589DPPI   C1A 9383   5.107  10.408   9.954  0.1143  0.0309 -0.1087
  589DPPI   C2A 9384   5.053  10.468   9.574 -0.0261 -0.0094  0.1583
  589DPPI   C3A 9385   5.043  10.469   9.164  0.0837  0.0250  0.4409
  589DPPI   C4A 9386   5.210  10.745   8.755  0.2656 -0.2532 -0.1491
  589DPPI   C1B 9387   5.119  10.808  10.229  0.0216 -0.0560 -0.0966
  589DPPI   C2B 9388   5.041  10.899   9.848  0.0323  0.3657 -0.0559
  589DPPI   C3B 9389   5.013  10.983   9.439 -0.2530  0.0516  0.1079
  589DPPI   C4B 9390   5.048  11.213   9.047 -0.0078 -0.2052 -0.0235
  590DPPI    C1 9391  13.357  14.606  11.244 -0.0723  0.0943  0.0742
  590DPPI    C2 9392  13.289  14.863  11.543  0.3150 -0.2657  0.4872
  590DPPI    C3 9393  13.098  14.511  11.534 -0.1881  0.0039 -0.0575
  590DPPI   PO4 9394  13.488  14.741  11.016  0.0394 -0.1476 -0.1717
  590DPPI   GL1 9395  13.403  14.849  10.620 -0.3184  0.0126  0.2903
  590DPPI   GL2 9396  13.040  14.920  10.418 -0.0665  0.0594 -0.1100
  590DPPI   C1A 9397  13.397  14.769  10.167 -0.1251  0.2163 -0.1436
  590DPPI   C2A 9398  13.393  14.828   9.807 -0.2805 -0.0737 -0.0425
  590DPPI   C3A 9399  13.405  14.806   9.322 -0.0739 -0.1847 -0.1243
  590DPPI   C4A 9400  13.031  15.005   9.081 -0.0996 -0.0798  0.2058
  590DPPI   C1B 9401  12.893  14.965   9.960  0.2107  0.2283 -0.1877
  590DPPI   C2B 9402  12.882  15.125   9.565 -0.1538 -0.0349  0.0359
  590DPPI   C3B 9403  12.736  15.416   9.346 -0.1304  0.1062 -0.2855
  590DPPI   C4B 9404  12.814  15.572   9.066  0.1473 -0.0436 -0.1986
  591DPPI    C1 9405   8.332   0.235  11.168  0.0027 -0.0368  0.0507
  591DPPI    C2 9406   8.708   0.350  11.239 -0.0579  0.1680  0.0455
  591DPPI    C3 9407   8.463   0.269  11.545  0.1442 -0.4896  0.0484
  591DPPI   PO4 9408   8.282   0.413  10.873  0.0045 -0.2187  0.1257
  591DPPI   GL1 9409   8.419   0.499  10.442  0.0511  0.1090  0.2252
  591DPPI   GL2 9410   8.570   0.230  10.349 -0.1546  0.0534  0.0089
  591DPPI   C1A 9411   8.361   0.630   9.906  0.2215 -0.0620 -0.4652
  591DPPI   C2A 9412   8.332   0.662   9.448 -0.1901 -0.1123  0.0675
  591DPPI   C3A 9413   8.319   0.742   9.015  0.0501 -0.0675  0.0312
  591DPPI   C4A 9414   8.252   0.735   8.621  0.1398 -0.0773 -0.4615
  591DPPI   C1B 9415   8.459   0.171   9.880  0.0185 -0.1029 -0.0171
  591DPPI   C2B 9416   8.372   0.170   9.451  0.1249 -0.0993  0.0994
  591DPPI   C3B 9417   8.292   0.221   9.014 -0.0945 -0.3303  0.1501
  591DPPI   C4B 9418   8.101   0.220   8.562  0.1316 -0.4015 -0.2032
  592DPPI    C1 9419   1.754  13.254  11.333 -0.2044  0.2100  0.0684
  592DPPI    C2 9420   1.583  13.418  11.656  0.0626  0.3389  0.1473
  592DPPI    C3 9421   1.976  13.342  11.655 -0.0227 -0.1298  0.0404
  592DPPI   PO4 9422   1.653  13.350  11.091 -0.1246 -0.0512  0.0813
  592DPPI   GL1 9423   1.656  13.173  10.733  0.1361  0.1023 -0.0605
  592DPPI   GL2 9424   1.501  13.441  10.616 -0.0894  0.1509 -0.0186
  592DPPI   C1A 9425   1.720  12.885  10.478 -0.1166  0.1226 -0.1316
  592DPPI   C2A 9426   1.675  12.798  10.075 -0.0189  0.0845 -0.0166
  592DPPI   C3A 9427   1.604  12.846   9.627  0.0900  0.0417 -0.0281
  592DPPI   C4A 9428   1.662  12.815   9.241 -0.4875 -0.2693  0.1170
  592DPPI   C1B 9429   1.525  13.354  10.125 -0.0786 -0.0551 -0.2279
  592DPPI   C2B 9430   1.576  13.424   9.742 -0.1772 -0.1692  0.0998
  592DPPI   C3B 9431   1.613  13.320   9.381 -0.0505 -0.3395  0.0679
  592DPPI   C4B 9432   1.462  13.338   8.949 -0.0217  0.0921  0.0351
  593DPPI    C1 9433   8.545  14.265  11.299  0.0856 -0.1717  0.1738
  593DPPI    C2 9434   8.690  13.974  11.066 -0.0595 -0.0211 -0.1111
  593DPPI    C3 9435   8.831  14.346  11.032 -0.0586 -0.0040  0.0677
  593DPPI   PO4 9436   8.227  14.210  11.325  0.1366 -0.2416 -0.1442
  593DPPI   GL1 9437   7.903  14.183  10.898  0.2088  0.0757 -0.0660
  593DPPI   GL2 9438   8.283  14.158  10.731 -0.1408  0.0289  0.1079
  593DPPI   C1A 9439   7.895  14.321  10.433  0.0665  0.1673 -0.1219
  593DPPI   C2A 9440   7.980  14.401  10.105  0.2294 -0.0003  0.3168
  593DPPI   C3A 9441   8.031  14.307   9.705 -0.0510  0.1536  0.1454
  593DPPI   C4A 9442   8.043  14.416   9.349 -0.3589  0.3481 -0.0365
  593DPPI   C1B 9443   8.409  14.169  10.292 -0.0744 -0.0571  0.0379
  593DPPI   C2B 9444   8.565  14.168   9.859  0.2955  0.2107 -0.0994
  593DPPI   C3B 9445   8.470  14.112   9.497  0.1406  0.1033  0.2949
  593DPPI   C4B 9446   8.501  14.089   9.031  0.4912  0.1512  0.0371
  594DPPI    C1 9447  12.943   1.430  10.015  0.1052 -0.0542  0.0830
  594DPPI    C2 9448  12.855   1.600  10.366  0.1726  0.1169  0.0183
  594DPPI    C3 9449  12.563   1.511  10.107  0.1002 -0.2164  0.2088
  594DPPI   PO4 9450  13.076   1.237  10.037  0.0048  0.3054  0.0833
  594DPPI   GL1 9451  13.520   1.237  10.066  0.2516  0.2763 -0.0056
  594DPPI   GL2 9452  13.430   0.898   9.937 -0.0835 -0.0129 -0.1740
  594DPPI   C1A 9453  13.677   1.265   9.642  0.0193  0.0530  0.1580
  594DPPI   C2A 9454  14.060   1.076   9.542  0.2044 -0.0731 -0.1698
  594DPPI   C3A 9455  14.092   0.596   9.541 -0.2623 -0.1815  0.1427
  594DPPI   C4A 9456  14.055   0.283   9.203  0.1745  0.2078  0.1931
  594DPPI   C1B 9457  13.584   0.777   9.605  0.0024  0.0343 -0.0469
  594DPPI   C2B 9458  13.802   0.728   9.109 -0.0098  0.0400  0.2851
  594DPPI   C3B 9459  13.905   0.555   8.719 -0.2486  0.3093  0.2136
  594DPPI   C4B 9460  13.843   0.741   8.297  0.0300  0.1840 -0.0499
  595DPPI    C1 9461   2.769   6.104  11.007 -0.0469  0.0719  0.1481
  595DPPI    C2 9462   2.822   6.480  11.134 -0.4389  0.2410 -0.1668
  595DPPI    C3 9463   2.554   6.244  11.313 -0.0092  0.0156  0.2006
  595DPPI   PO4 9464   2.732   6.174  10.718 -0.0609  0.1126  0.2487
  595DPPI   GL1 9465   2.933   6.424  10.387  0.0647  0.0606  0.0931
  595DPPI   GL2 9466   2.673   6.342  10.225 -0.1540 -0.0552 -0.1286
  595DPPI   C1A 9467   3.203   6.347   9.976  0.5548  0.0827 -0.2352
  595DPPI   C2A 9468   3.228   6.277   9.517 -0.1659 -0.0549  0.0960
  595DPPI   C3A 9469   3.143   6.314   8.941  0.1487 -0.1419  0.0773
  595DPPI   C4A 9470   3.194   6.065   8.448  0.2005 -0.1122  0.0044
  595DPPI   C1B 9471   2.744   6.212   9.827 -0.0676  0.0817  0.2440
  595DPPI   C2B 9472   2.766   6.055   9.378  0.2094 -0.0426 -0.2246
  595DPPI   C3B 9473   2.691   6.141   8.964  0.1797  0.0475  0.1194
  595DPPI   C4B 9474   2.675   6.162   8.510  0.0091 -0.0811  0.0868
  596DPPI    C1 9475  11.110   1.535  10.671  0.1727  0.0061 -0.2001
  596DPPI    C2 9476  11.034   1.164  10.799 -0.0077  0.0760 -0.1019
  596DPPI    C3 9477  11.320   1.381  10.975  0.0197  0.0255 -0.0838
  596DPPI   PO4 9478  11.023   1.571  10.456  0.1107 -0.0937  0.0636
  596DPPI   GL1 9479  10.945   1.743  10.188  0.1000  0.2036  0.0778
  596DPPI   GL2 9480  11.121   1.956  10.087 -0.1356 -0.1225 -0.0004
  596DPPI   C1A 9481  10.556   1.732   9.861 -0.4240 -0.0011  0.0168
  596DPPI   C2A 9482  10.528   1.641   9.422  0.2858 -0.0347 -0.2292
  596DPPI   C3A 9483  10.682   1.672   9.069 -0.0280  0.1309  0.3361
  596DPPI   C4A 9484  10.716   1.361   8.733 -0.0788 -0.1418 -0.3666
  596DPPI   C1B 9485  10.958   2.025   9.654 -0.4202  0.1291  0.4102
  596DPPI   C2B 9486  11.001   2.012   9.285  0.1772  0.1770 -0.3215
  596DPPI   C3B 9487  11.165   1.866   8.886  0.1361 -0.0962  0.1397
  596DPPI   C4B 9488  11.079   1.663   8.514  0.0817  0.1665 -0.4304
  597PYPI    C1 9489   1.865   8.997  10.602  0.1020 -0.0816  0.1939
  597PYPI    C2 9490   1.865   8.718  10.890  0.0946  0.0972  0.3693
  597PYPI    C3 9491   2.133   9.015  10.899  0.2844 -0.0581  0.0298
  597PYPI   PO4 9492   1.654   9.090  10.511  0.1539  0.0640 -0.1761
  597PYPI   GL1 9493   1.533   8.897  10.184  0.4183  0.0290  0.0471
  597PYPI   GL2 9494   1.548   8.539  10.018  0.2615 -0.0937 -0.2552
  597PYPI   C1A 9495   1.480   9.062   9.797  0.1439 -0.3279 -0.0591
  597PYPI   C2A 9496   1.479   9.095   9.315 -0.4765  0.1556  0.3575
  597PYPI   D3A 9497   1.646   9.154   8.991  0.1586  0.1360  0.0223
  597PYPI   C4A 9498   1.453   9.198   8.609  0.3881 -0.0079  0.0325
  597PYPI   C1B 9499   1.602   8.621   9.550  0.0387  0.0583  0.2459
  597PYPI   C2B 9500   1.607   8.654   9.112  0.2538 -0.0171 -0.0593
  597PYPI   C3B 9501   1.613   8.688   8.703  0.3391  0.0056  0.3805
  597PYPI   C4B 9502   1.472   8.854   8.235  0.1206 -0.2273 -0.1202
  598PYPI    C1 9503  10.070   9.590  11.191  0.0900  0.3778 -0.1101
  598PYPI    C2 9504  10.007   9.880  11.459  0.3035  0.2352  0.0979
  598PYPI    C3 9505  10.369   9.714  11.425  0.1472 -0.1123  0.0869
  598PYPI   PO4 9506   9.998   9.567  10.962 -0.2272  0.1172 -0.2132
  598PYPI   GL1 9507  10.028   9.521  10.578 -0.1131  0.0016 -0.1006
  598PYPI   GL2 9508   9.711   9.417  10.568  0.0975 -0.2859 -0.2769
  598PYPI   C1A 9509  10.325   9.455  10.358  0.2906 -0.3082 -0.0394
  598PYPI   C2A 9510  10.576   9.279  10.064  0.0698  0.0721  0.2017
  598PYPI   D3A 9511  10.858   9.288   9.743 -0.0923  0.1272 -0.2323
  598PYPI   C4A 9512  10.952   9.102   9.364 -0.2138  0.2161  0.0758
  598PYPI   C1B 9513   9.495   9.475  10.218 -0.0075 -0.0910  0.2390
  598PYPI   C2B 9514   9.294   9.553   9.847  0.0700  0.0142 -0.0879
  598PYPI   C3B 9515   9.198   9.703   9.393  0.2277 -0.1964  0.0480
  598PYPI   C4B 9516   9.576   9.785   9.083 -0.0029  0.0545 -0.0416
  599PYPI    C1 9517   0.445  12.227  11.026  0.0476  0.0048  0.0695
  599PYPI    C2 9518   0.834  12.140  11.062  0.0309 -0.0652  0.0824
  599PYPI    C3 9519   0.605  12.172  11.389  0.0711  0.1881  0.0879
  599PYPI   PO4 9520   0.373  12.123  10.862  0.3233 -0.1766  0.3144
  599PYPI   GL1 9521   0.069  12.213  10.584  0.0261  0.0336 -0.0804
  599PYPI   GL2 9522  -0.326  12.086  10.618  0.2700 -0.2314 -0.1005
  599PYPI   C1A 9523  -0.040  12.153  10.179  0.2143  0.0461  0.1966
  599PYPI   C2A 9524   0.022  11.869   9.826  0.4075 -0.0413  0.1468
  599PYPI   D3A 9525  -0.155  11.880   9.566 -0.0354  0.0048 -0.1760
  599PYPI   C4A 9526   0.008  11.968   9.242 -0.0225 -0.0734 -0.2065
  599PYPI   C1B 9527  -0.555  12.115  10.316  0.0123  0.1765  0.1713
  599PYPI   C2B 9528  -0.503  12.155   9.902 -0.0180  0.2315 -0.0267
  599PYPI   C3B 9529  -0.616  12.117   9.469 -0.0466  0.0088 -0.0991
  599PYPI   C4B 9530  -0.724  12.140   9.035 -0.1123  0.0488 -0.0947
  600PYPI    C1 9531   0.776   1.573  10.776  0.1596 -0.1609  0.0231
  600PYPI    C2 9532   0.575   1.404  11.077 -0.1251  0.1691  0.0249
  600PYPI    C3 9533   0.676   1.790  11.097  0.2050  0.0943 -0.1322
  600PYPI   PO4 9534   0.655   1.579  10.578  0.0834  0.0817  0.3697
  600PYPI   GL1 9535   0.608   1.538  10.198  0.2178 -0.0360 -0.1437
  600PYPI   GL2 9536   0.492   1.250  10.087  0.0354  0.0213 -0.0498
  600PYPI   C1A 9537   0.862   1.608   9.847  0.2525  0.0565 -0.0626
  600PYPI   C2A 9538   1.055   1.544   9.482 -0.2180 -0.2644  0.0916
  600PYPI   D3A 9539   1.101   1.495   9.082  0.0289  0.0460 -0.0030
  600PYPI   C4A 9540   0.878   1.525   8.693 -0.0248  0.1469 -0.1264
  600PYPI   C1B 9541   0.467   1.280   9.681 -0.1117  0.0994  0.1904
  600PYPI   C2B 9542   0.456   1.483   9.323  0.3504 -0.0080 -0.1658
  600PYPI   C3B 9543   0.115   1.483   9.053  0.0003  0.0552  0.0222
  600PYPI   C4B 9544   0.074   1.509   8.703 -0.1533 -0.1218 -0.4362
  601PYPI    C1 9545   0.494  15.403  11.070 -0.0138 -0.2134  0.0192
  601PYPI    C2 9546   0.441  15.240  11.431 -0.0475  0.2265  0.2199
  601PYPI    C3 9547   0.794  15.206  11.246 -0.1345 -0.2966  0.1335
  601PYPI   PO4 9548   0.288  15.276  10.867 -0.1835 -0.1367 -0.1000
  601PYPI   GL1 9549   0.175  14.924  10.533 -0.0565 -0.2292  0.3077
  601PYPI   GL2 9550   0.151  15.122  10.400 -0.1927  0.4985 -0.2757
  601PYPI   C1A 9551   0.023  14.688  10.125  0.1919 -0.0289 -0.1787
  601PYPI   C2A 9552  -0.033  14.459   9.873  0.0351 -0.4445 -0.1423
  601PYPI   D3A 9553  -0.153  14.347   9.582  0.1670  0.3236 -0.0891
  601PYPI   C4A 9554  -0.081  14.313   9.222 -0.2160 -0.1164  0.1127
  601PYPI   C1B 9555   0.428  15.025  10.145 -0.0507 -0.0523 -0.0677
  601PYPI   C2B 9556   0.436  14.785   9.823  0.0204 -0.2705  0.0989
  601PYPI   C3B 9557   0.215  14.718   9.445 -0.4173  0.0842 -0.0231
  601PYPI   C4B 9558   0.240  14.574   8.955  0.0414  0.2328  0.0475
  602PYPI    C1 9559   4.614   4.231  10.721  0.3365 -0.3362 -0.0582
  602PYPI    C2 9560   4.300   3.986  10.680  0.1439 -0.1000 -0.0184
  602PYPI    C3 9561   4.460   4.047  11.042 -0.1564  0.2514  0.0610
  602PYPI   PO4 9562   4.481   4.453  10.588 -0.1979 -0.0368  0.1252
  602PYPI   GL1 9563   4.197   4.363  10.364  0.1861 -0.0300 -0.1628
  602PYPI   GL2 9564   4.223   4.662  10.175 -0.0812  0.1296 -0.0599
  602PYPI   C1A 9565   4.326   4.185   9.957  0.1338 -0.0311  0.0066
  602PYPI   C2A 9566   4.233   4.247   9.542  0.4014  0.1506 -0.1001
  602PYPI   D3A 9567   4.307   4.288   9.173 -0.0577 -0.3324  0.2404
  602PYPI   C4A 9568   4.210   4.473   8.812  0.0149  0.4387 -0.1923
  602PYPI   C1B 9569   4.351   4.716   9.771  0.1052  0.2406 -0.1851
  602PYPI   C2B 9570   4.382   4.720   9.406  0.3286  0.0091  0.3705
  602PYPI   C3B 9571   4.451   4.813   9.047  0.1636 -0.3516  0.2264
  602PYPI   C4B 9572   4.365   4.867   8.607 -0.2918 -0.2973 -0.1848
  603ERGO   ROH 9573   3.397  16.339  10.393  0.1673 -0.1430  0.0065
  603ERGO    R1 9574   3.485  16.323  10.125  0.0736 -0.0159 -0.0329
  603ERGO    R2 9575   3.421  16.111   9.959  0.1195  0.0015 -0.0727
  603ERGO    R3 9576   3.330  16.308   9.796 -0.0442  0.0048  0.0211
  603ERGO    R4 9577   3.274  16.061   9.651  0.1866  0.0254 -0.1088
  603ERGO    R5 9578   3.384  16.233   9.576  0.0400  0.1628 -0.0140
  603ERGO    C1 9579   3.103  16.217   9.318  0.0720  0.0424 -0.0415
  603ERGO    C2 9580   2.809  16.123   9.086 -0.1357 -0.0147 -0.0025
  604ERGO   ROH 9581   8.467   4.845  10.433 -0.1339  0.0586 -0.1845
  604ERGO    R1 9582   8.453   5.002  10.197  0.0192  0.0043 -0.2325
  604ERGO    R2 9583   8.652   5.001  10.005  0.0830 -0.1468 -0.1743
  604ERGO    R3 9584   8.446   4.940   9.839  0.1022 -0.0907 -0.2168
  604ERGO    R4 9585   8.632   5.093   9.673  0.0937 -0.0054 -0.1354
  604ERGO    R5 9586   8.420   5.135   9.702  0.0929 -0.0376 -0.1339
  604ERGO    C1 9587   8.426   5.090   9.323  0.1181  0.1297 -0.1528
  604ERGO    C2 9588   8.521   5.169   9.050 -0.0362  0.0289  0.1890
  605ERGO   ROH 9589  10.202  11.872  10.436  0.0112  0.1078 -0.1030
  605ERGO    R1 9590  10.122  11.894  10.165 -0.0199  0.0657 -0.0987
  605ERGO    R2 9591  10.171  12.120  10.014 -0.0292  0.0439 -0.1461
  605ERGO    R3 9592  10.286  11.942   9.844 -0.0523  0.0076 -0.1218
  605ERGO    R4 9593  10.206  12.166   9.673 -0.1872 -0.1019 -0.1823
  605ERGO    R5 9594  10.155  11.956   9.645 -0.1363 -0.1219 -0.0699
  605ERGO    C1 9595  10.335  12.025   9.316 -0.3008 -0.2209 -0.1805
  605ERGO    C2 9596  10.264  12.016   8.938  0.0198 -0.2135  0.0898
  606ERGO   ROH 9597  17.467   9.700  10.411  0.0781 -0.4037 -0.0010
  606ERGO    R1 9598  17.357   9.655  10.154  0.1465 -0.2200 -0.0642
  606ERGO    R2 9599  17.248   9.858  10.002  0.1100 -0.1238  0.0866
  606ERGO    R3 9600  17.424   9.769   9.815  0.1792  0.0955  0.0447
  606ERGO    R4 9601  17.191   9.854   9.661  0.1451  0.0703  0.0780
  606ERGO    R5 9602  17.288   9.660   9.651  0.2538  0.1277 -0.0406
  606ERGO    C1 9603  17.323   9.768   9.287  0.2306  0.3891  0.0337
  606ERGO    C2 9604  17.356   9.715   8.932 -0.4820 -0.4232  0.1746
  607ERGO   ROH 9605  10.156   2.325  10.229  0.1074 -0.0202  0.1046
  607ERGO    R1 9606   9.988   2.424  10.024  0.1287  0.0313  0.1129
  607ERGO    R2 9607  10.017   2.677   9.917  0.2152  0.0127  0.0979
  607ERGO    R3 9608  10.029   2.542   9.682  0.1443 -0.0028  0.1024
  607ERGO    R4 9609  10.040   2.825   9.606  0.3384 -0.0073  0.0965
  607ERGO    R5 9610   9.901   2.676   9.530  0.2431  0.0811  0.0889
  607ERGO    C1 9611  10.065   2.785   9.203  0.3437 -0.0335  0.0999
  607ERGO    C2 9612  10.036   2.934   8.928 -0.3515  0.3391 -0.0626
  608ERGO   ROH 9613   7.640   9.424  10.613 -0.0863  0.1973  0.1023
  608ERGO    R1 9614   7.597   9.501  10.344  0.0071  0.1433  0.0715
  608ERGO    R2 9615   7.606   9.764  10.261 -0.0223  0.1327  0.0324
  608ERGO    R3 9616   7.788   9.668  10.083  0.0756  0.1475  0.1242
  608ERGO    R4 9617   7.714   9.931   9.978 -0.0318  0.0641 -0.0114
  608ERGO    R5 9618   7.708   9.741   9.870  0.0948  0.0130  0.0697
  608ERGO    C1 9619   7.947   9.937   9.647  0.0547  0.0380  0.0491
  608ERGO    C2 9620   8.267   9.952   9.401  0.0506 -0.0212  0.2434
  609ERGO   ROH 9621  10.658   3.277  10.372  0.0381  0.0705 -0.1353
  609ERGO    R1 9622  10.576   3.372  10.118 -0.0939 -0.0602 -0.1430
  609ERGO    R2 9623  10.710   3.574   9.985 -0.3692  0.1157 -0.1595
  609ERGO    R3 9624  10.721   3.391   9.785 -0.1178  0.1107 -0.1445
  609ERGO    R4 9625  10.701   3.649   9.648 -0.4136  0.0788 -0.1668
  609ERGO    R5 9626  10.572   3.476   9.618 -0.2005 -0.0828 -0.1721
  609ERGO    C1 9627  10.707   3.521   9.263 -0.2034  0.0526 -0.1571
  609ERGO    C2 9628  10.889   3.467   8.995 -0.0208  0.0008  0.3311
  610ERGO   ROH 9629  10.480   5.230  10.228  0.0489  0.0334 -0.2298
  610ERGO    R1 9630  10.258   5.175  10.062  0.0704  0.1488 -0.2967
  610ERGO    R2 9631   9.997   5.194  10.150  0.0693 -0.1540 -0.2392
  610ERGO    R3 9632   9.970   5.358   9.935 -0.0605  0.1650  0.0097
  610ERGO    R4 9633   9.700   5.256   9.984  0.0665 -0.4247 -0.3415
  610ERGO    R5 9634   9.809   5.248   9.796  0.2333  0.0854 -0.2908
  610ERGO    C1 9635   9.502   5.446   9.686 -0.0569 -0.2828 -0.1674
  610ERGO    C2 9636   9.357   5.644   9.458 -0.0620 -0.3073  0.1914
  611ERGO   ROH 9637   0.873   5.590  10.061  0.1741  0.1107  0.0839
  611ERGO    R1 9638   0.831   5.519   9.791  0.1334  0.0278  0.1125
  611ERGO    R2 9639   0.881   5.693   9.582  0.0180 -0.0073  0.0598
  611ERGO    R3 9640   1.034   5.487   9.491  0.0701  0.0263  0.0682
  611ERGO    R4 9641   1.011   5.669   9.262 -0.1448 -0.0773 -0.0028
  611ERGO    R5 9642   0.963   5.456   9.264 -0.0417 -0.1045  0.1162
  611ERGO    C1 9643   1.229   5.463   8.990 -0.1907 -0.0865 -0.0313
  611ERGO    C2 9644   1.172   5.375   8.638  0.3144  0.0623 -0.1440
  612ERGO   ROH 9645   5.016  17.808  10.290 -0.0731 -0.1289  0.0048
  612ERGO    R1 9646   5.072  17.955  10.055 -0.1074 -0.0415  0.0516
  612ERGO    R2 9647   5.235  17.858   9.855 -0.0682  0.0718  0.0331
  612ERGO    R3 9648   5.021  17.911   9.697 -0.0731  0.0514  0.0344
  612ERGO    R4 9649   5.254  17.975   9.530 -0.0769  0.1875  0.0735
  612ERGO    R5 9650   5.085  18.106   9.573 -0.1265  0.1164  0.1053
  612ERGO    C1 9651   5.063  18.093   9.193 -0.0865  0.2357  0.0983
  612ERGO    C2 9652   5.155  18.159   8.841  0.2967 -0.0259  0.0746
  613ERGO   ROH 9653   3.606   7.818   9.971  0.2519 -0.2750 -0.0477
  613ERGO    R1 9654   3.725   7.969   9.764  0.0799 -0.0874 -0.0128
  613ERGO    R2 9655   3.884   7.855   9.568  0.1670  0.1319 -0.0750
  613ERGO    R3 9656   3.709   7.978   9.400  0.0240  0.0213 -0.0076
  613ERGO    R4 9657   3.921   7.875   9.225  0.0890  0.2740 -0.0752
  613ERGO    R5 9658   3.848   8.081   9.234 -0.1010  0.2028 -0.0002
  613ERGO    C1 9659   3.778   8.003   8.868 -0.0907  0.2530 -0.0122
  613ERGO    C2 9660   3.884   8.135   8.541  0.0425 -0.2409 -0.0468
  614ERGO   ROH 9661  16.011   9.023  10.569  0.2886  0.2866 -0.1052
  614ERGO    R1 9662  15.907   9.083  10.312  0.1732  0.1867 -0.0828
  614ERGO    R2 9663  16.022   9.271  10.146  0.0457  0.1870 -0.1710
  614ERGO    R3 9664  16.025   9.065   9.968  0.0539  0.1445 -0.1221
  614ERGO    R4 9665  16.115   9.298   9.814  0.1388  0.0938 -0.1532
  614ERGO    R5 9666  15.951   9.163   9.763  0.1262  0.1118 -0.1649
  614ERGO    C1 9667  16.171   9.120   9.454  0.2006 -0.0002 -0.0969
  614ERGO    C2 9668  16.154   9.187   9.031  0.3621 -0.0550 -0.0587
  615ERGO   ROH 9669  12.874  14.400  10.390  0.1669  0.3426 -0.0447
  615ERGO    R1 9670  12.949  14.525  10.148 -0.0754  0.2885 -0.1499
  615ERGO    R2 9671  13.103  14.398   9.956  0.0361  0.3700 -0.1116
  615ERGO    R3 9672  12.897  14.465   9.792 -0.1068 -0.0116 -0.0977
  615ERGO    R4 9673  13.124  14.424   9.612 -0.0183  0.4582 -0.1090
  615ERGO    R5 9674  12.997  14.601   9.623 -0.3714  0.2146 -0.0818
  615ERGO    C1 9675  12.943  14.502   9.258 -0.1841  0.1514 -0.0944
  615ERGO    C2 9676  13.112  14.416   9.053  0.0036  0.1429 -0.1552
  616ERGO   ROH 9677   1.072   8.774  10.067 -0.3044  0.2455  0.0779
  616ERGO    R1 9678   1.144   8.668   9.815 -0.1471  0.1644  0.1550
  616ERGO    R2 9679   0.961   8.630   9.611 -0.0213  0.1056  0.0487
  616ERGO    R3 9680   1.136   8.781   9.469  0.0734  0.0575  0.1140
  616ERGO    R4 9681   0.968   8.651   9.267  0.0377  0.2008  0.0556
  616ERGO    R5 9682   1.186   8.647   9.276  0.0331  0.0889  0.0838
  616ERGO    C1 9683   1.138   8.805   8.932  0.1609  0.2111  0.1211
  616ERGO    C2 9684   1.122   8.812   8.611  0.1069  0.0296 -0.0076
  617ERGO   ROH 9685   0.822  11.926  10.481 -0.0375 -0.1640 -0.0879
  617ERGO    R1 9686   0.819  12.107  10.263 -0.2427 -0.0109  0.0391
  617ERGO    R2 9687   0.997  12.089  10.053 -0.1557  0.4001  0.0752
  617ERGO    R3 9688   0.770  12.086   9.903 -0.1120  0.1726  0.0079
  617ERGO    R4 9689   0.981  12.166   9.716 -0.1439  0.5115  0.0990
  617ERGO    R5 9690   0.794  12.271   9.754 -0.2947  0.2673  0.0874
  617ERGO    C1 9691   0.758  12.208   9.380 -0.0960  0.3628  0.0498
  617ERGO    C2 9692   0.908  12.292   9.065  0.4251 -0.0175 -0.0108
  618ERGO   ROH 9693  14.823  15.703  10.691 -0.2433 -0.1964  0.0784
  618ERGO    R1 9694  14.912  15.804  10.442 -0.2332 -0.1577  0.0978
  618ERGO    R2 9695  15.127  15.696  10.305 -0.2593 -0.1655  0.0684
  618ERGO    R3 9696  14.947  15.676  10.103 -0.2660 -0.0877  0.0665
  618ERGO    R4 9697  15.208  15.666   9.971 -0.2591 -0.0458  0.0575
  618ERGO    R5 9698  15.044  15.802   9.924 -0.2611 -0.0215  0.1103
  618ERGO    C1 9699  15.086  15.630   9.586 -0.2653  0.0972  0.0493
  618ERGO    C2 9700  15.158  15.568   9.231 -0.0749  0.0666 -0.3806
  619ERGO   ROH 9701   2.207  10.250  10.368  0.1105  0.0255  0.0176
  619ERGO    R1 9702   2.265  10.199  10.096  0.1704  0.0481  0.0257
  619ERGO    R2 9703   2.089  10.262   9.893  0.1268 -0.1238  0.0085
  619ERGO    R3 9704   2.302  10.397   9.792  0.0171  0.0521  0.0086
  619ERGO    R4 9705   2.158  10.298   9.556  0.2646 -0.3395  0.0121
  619ERGO    R5 9706   2.370  10.268   9.602  0.2812 -0.0389  0.1585
  619ERGO    C1 9707   2.399  10.446   9.266  0.2418 -0.3001  0.0144
  619ERGO    C2 9708   2.336  10.583   8.965  0.1515  0.1285 -0.0544
  620ERGO   ROH 9709   4.645   3.943  10.212 -0.0693 -0.0794  0.0828
  620ERGO    R1 9710   4.730   3.931   9.942  0.0333 -0.1302  0.1171
  620ERGO    R2 9711   4.652   3.729   9.770 -0.0155 -0.0853  0.0859
  620ERGO    R3 9712   4.573   3.938   9.615  0.1691 -0.0382  0.0528
  620ERGO    R4 9713   4.687   3.745   9.426  0.0197 -0.1604  0.0861
  620ERGO    R5 9714   4.742   3.954   9.446  0.1949 -0.2026  0.0611
  620ERGO    C1 9715   4.633   3.949   9.081  0.2137 -0.1599  0.0550
  620ERGO    C2 9716   4.635   4.074   8.816  0.1969  0.2688  0.0540
  621ERGO   ROH 9717  15.706   6.210  10.088  0.1157 -0.0854  0.1662
  621ERGO    R1 9718  15.610   6.013   9.909  0.0317  0.0141  0.1001
  621ERGO    R2 9719  15.409   6.063   9.726  0.0908  0.1770  0.0766
  621ERGO    R3 9720  15.592   5.972   9.547  0.0695  0.1159  0.0864
  621ERGO    R4 9721  15.353   6.029   9.387  0.0625  0.0928  0.0898
  621ERGO    R5 9722  15.464   5.841   9.393  0.0478  0.0860  0.1302
  621ERGO    C1 9723  15.492   5.922   9.022  0.0261 -0.0136  0.1067
  621ERGO    C2 9724  15.449   5.975   8.710 -0.0339 -0.1008  0.4630
  622ERGO   ROH 9725   2.079   8.830  10.131  0.0992  0.0428 -0.1795
  622ERGO    R1 9726   2.009   8.753   9.867  0.2569 -0.2152 -0.1504
  622ERGO    R2 9727   1.953   8.937   9.669 -0.2236 -0.4004 -0.2026
  622ERGO    R3 9728   2.144   8.801   9.533  0.1141  0.0256 -0.1762
  622ERGO    R4 9729   1.966   8.903   9.325 -0.0478 -0.3130 -0.2055
  622ERGO    R5 9730   2.027   8.696   9.353  0.3857 -0.1954 -0.2299
  622ERGO    C1 9731   2.153   8.755   8.998  0.3716  0.1378 -0.1825
  622ERGO    C2 9732   2.108   8.693   8.660  0.0283 -0.1114 -0.2603
  623ERGO   ROH 9733   4.149   1.811  10.116  0.0657 -0.0497  0.0558
  623ERGO    R1 9734   4.302   1.880   9.888 -0.0389  0.1022  0.0286
  623ERGO    R2 9735   4.410   1.690   9.718  0.1726  0.2026  0.0419
  623ERGO    R3 9736   4.277   1.831   9.529 -0.0223  0.0182  0.0393
  623ERGO    R4 9737   4.511   1.724   9.390  0.2214  0.4725  0.0839
  623ERGO    R5 9738   4.449   1.933   9.397 -0.1563  0.3650  0.1225
  623ERGO    C1 9739   4.444   1.877   9.020  0.0669  0.4567  0.1057
  623ERGO    C2 9740   4.487   1.998   8.709 -0.2839  0.1096  0.2368
  624ERGO   ROH 9741   4.056  10.310  10.237  0.1425  0.2148 -0.0686
  624ERGO    R1 9742   4.177  10.234   9.993  0.0868  0.1176 -0.0655
  624ERGO    R2 9743   4.062  10.051   9.821  0.0203  0.0944  0.0080
  624ERGO    R3 9744   4.093  10.251   9.639  0.0361  0.0330 -0.0588
  624ERGO    R4 9745   4.054  10.010   9.478 -0.1221 -0.0012  0.0215
  624ERGO    R5 9746   4.219  10.151   9.462 -0.0674 -0.0706 -0.0779
  624ERGO    C1 9747   4.078  10.173   9.108 -0.1902 -0.1146 -0.0333
  624ERGO    C2 9748   4.004  10.108   8.707  0.0135  0.1155 -0.2916
  625ERGO   ROH 9749   9.914  11.479  10.349 -0.1726 -0.0399  0.0784
  625ERGO    R1 9750   9.953  11.226  10.230 -0.0841 -0.0425  0.1114
  625ERGO    R2 9751   9.808  11.140  10.011 -0.0660 -0.1287  0.1306
  625ERGO    R3 9752  10.055  11.100   9.904 -0.0564 -0.0486  0.1229
  625ERGO    R4 9753   9.886  10.896   9.778 -0.0357  0.0294 -0.0266
  625ERGO    R5 9754  10.073  10.862   9.884 -0.0445 -0.0338 -0.0351
  625ERGO    C1 9755  10.164  10.717   9.543 -0.0092  0.1968 -0.1252
  625ERGO    C2 9756  10.238  10.702   9.256  0.0781  0.2107 -0.2062
  626ERGO   ROH 9757   5.726   7.283  10.675  0.0751 -0.0700  0.0911
  626ERGO    R1 9758   5.674   7.164  10.424 -0.0418 -0.1174  0.1387
  626ERGO    R2 9759   5.466   7.246  10.260 -0.0112 -0.0370  0.1495
  626ERGO    R3 9760   5.665   7.272  10.077 -0.0266 -0.2270  0.1022
  626ERGO    R4 9761   5.420   7.240   9.918 -0.1723  0.4186  0.1559
  626ERGO    R5 9762   5.602   7.122   9.900 -0.3981  0.0717 -0.0395
  626ERGO    C1 9763   5.579   7.261   9.546 -0.2806  0.5055  0.1152
  626ERGO    C2 9764   5.608   7.316   9.174 -0.1591  0.2204 -0.0756
  627ERGO   ROH 9765   4.358   0.437  10.427  0.0577 -0.0499 -0.0489
  627ERGO    R1 9766   4.269   0.464  10.160  0.0779  0.0071 -0.0492
  627ERGO    R2 9767   4.160   0.699  10.062  0.1346  0.0414 -0.0197
  627ERGO    R3 9768   4.354   0.672   9.873  0.1361  0.0290 -0.0176
  627ERGO    R4 9769   4.116   0.757   9.724  0.1243  0.0015 -0.0260
  627ERGO    R5 9770   4.239   0.582   9.683  0.1350 -0.0004 -0.0068
  627ERGO    C1 9771   4.272   0.765   9.350  0.1197 -0.0334 -0.0276
  627ERGO    C2 9772   4.353   0.810   9.069  0.1467  0.0224 -0.2389
  628ERGO   ROH 9773   1.264   7.101  10.151  0.1083 -0.0318  0.1363
  628ERGO    R1 9774   1.196   7.101   9.876  0.0166 -0.0388  0.1585
  628ERGO    R2 9775   1.353   7.222   9.684 -0.1123  0.0691  0.1181
  628ERGO    R3 9776   1.343   6.977   9.567 -0.0170  0.0750  0.0967
  628ERGO    R4 9777   1.374   7.165   9.344 -0.0592  0.1020  0.1159
  628ERGO    R5 9778   1.219   7.013   9.365 -0.0088  0.0479  0.0879
  628ERGO    C1 9779   1.377   6.902   9.036  0.0612  0.1267  0.0946
  628ERGO    C2 9780   1.406   6.953   8.615  0.2916  0.1532  0.1335
  629ERGO   ROH 9781  17.213   4.520  10.120  0.1627 -0.1298  0.0331
  629ERGO    R1 9782  17.121   4.584   9.860  0.0913 -0.0779  0.0713
  629ERGO    R2 9783  17.282   4.567   9.637  0.0431  0.0160  0.0327
  629ERGO    R3 9784  17.082   4.409   9.543  0.0546  0.0016  0.0306
  629ERGO    R4 9785  17.233   4.488   9.304  0.1422 -0.1046  0.0453
  629ERGO    R5 9786  17.019   4.511   9.335  0.1320 -0.0680 -0.0304
  629ERGO    C1 9787  17.017   4.295   9.021  0.2106 -0.1885  0.0506
  629ERGO    C2 9788  17.050   4.324   8.675 -0.2328  0.0807  0.0370
  630ERGO   ROH 9789   7.793  13.650  10.714  0.0130  0.2019  0.1480
  630ERGO    R1 9790   7.852  13.797  10.480  0.0730  0.1807  0.1500
  630ERGO    R2 9791   8.094  13.776  10.348  0.0012 -0.0469  0.0534
  630ERGO    R3 9792   7.936  13.720  10.134 -0.1396  0.1514  0.1030
  630ERGO    R4 9793   8.187  13.820  10.018 -0.1237  0.0349  0.0286
  630ERGO    R5 9794   7.986  13.894   9.977 -0.0964  0.1887  0.1555
  630ERGO    C1 9795   8.092  13.793   9.625 -0.3286  0.2686  0.0607
  630ERGO    C2 9796   8.129  13.795   9.251 -0.4183  0.2983 -0.0423
  631ERGO   ROH 9797  14.908   1.541  10.095 -0.0611 -0.2501  0.1632
  631ERGO    R1 9798  15.063   1.488   9.864 -0.0339  0.1002  0.0958
  631ERGO    R2 9799  14.954   1.384   9.633  0.0679  0.0226  0.0814
  631ERGO    R3 9800  15.071   1.602   9.519 -0.3128  0.2669  0.1420
  631ERGO    R4 9801  15.041   1.410   9.299  0.2685  0.1592  0.1419
  631ERGO    R5 9802  15.224   1.511   9.359  0.0137  0.5718  0.2695
  631ERGO    C1 9803  15.200   1.630   8.998  0.0277  0.4680  0.2341
  631ERGO    C2 9804  15.312   1.735   8.642 -0.0269 -0.3143 -0.0209
  632ERGO   ROH 9805  16.299  11.678  10.937  0.1383 -0.4311 -0.1588
  632ERGO    R1 9806  16.251  11.844  10.712  0.2637 -0.1803 -0.0056
  632ERGO    R2 9807  16.453  11.937  10.549  0.3182 -0.3939 -0.0659
  632ERGO    R3 9808  16.303  11.825  10.353 -0.0018 -0.0058 -0.0561
  632ERGO    R4 9809  16.488  12.002  10.211  0.2575 -0.2669 -0.0483
  632ERGO    R5 9810  16.271  12.000  10.193  0.2387  0.1484  0.0618
  632ERGO    C1 9811  16.367  11.933   9.830 -0.0783  0.1714 -0.0288
  632ERGO    C2 9812  16.368  11.839   9.414 -0.0919 -0.1939  0.0588
  633ERGO   ROH 9813   8.388  12.388  10.579  0.2771 -0.0621  0.0268
  633ERGO    R1 9814   8.315  12.240  10.350  0.2154 -0.0332  0.0278
  633ERGO    R2 9815   8.165  12.347  10.144  0.1670 -0.0053  0.0786
  633ERGO    R3 9816   8.372  12.261   9.991  0.1254  0.0067  0.0152
  633ERGO    R4 9817   8.154  12.311   9.801  0.1087  0.1422  0.0640
  633ERGO    R5 9818   8.269  12.126   9.822  0.0665  0.1029 -0.0280
  633ERGO    C1 9819   8.343  12.209   9.457  0.0356  0.2393 -0.0040
  633ERGO    C2 9820   8.280  12.396   9.123 -0.0121  0.1262  0.0473
  634PSPI    C1 9821  12.290  15.678   6.130  0.0526  0.1428 -0.0259
  634PSPI    C2 9822  12.636  15.600   6.316 -0.0244  0.2453  0.1627
  634PSPI    C3 9823  12.634  15.820   5.981  0.1370 -0.1131 -0.0799
  634PSPI   PO4 9824  12.166  15.394   6.172  0.1623 -0.0254  0.3080
  634PSPI   GL1 9825  12.153  15.179   6.539  0.0561 -0.0401 -0.3446
  634PSPI   GL2 9826  12.290  15.496   6.671  0.0185 -0.0573 -0.1558
  634PSPI   C1A 9827  12.076  15.250   7.022 -0.1473  0.1810  0.5996
  634PSPI   C2A 9828  11.965  15.250   7.437  0.4301  0.1291  0.0983
  634PSPI   C3A 9829  11.831  15.125   7.866  0.0058 -0.1278  0.0502
  634PSPI   C4A 9830  11.928  15.285   8.275  0.0722 -0.1300 -0.1262
  634PSPI   C1B 9831  12.270  15.676   7.080 -0.1169 -0.0614  0.0304
  634PSPI   C2B 9832  12.228  15.693   7.491 -0.1744 -0.0037 -0.0585
  634PSPI   C3B 9833  12.336  15.886   7.797  0.1057  0.2357  0.2536
  634PSPI   C4B 9834  12.246  15.748   8.276 -0.2296  0.1861  0.2747
  635PSPI    C1 9835  12.881   1.841   5.611 -0.0899  0.0699 -0.1244
  635PSPI    C2 9836  12.664   1.741   5.290  0.0484 -0.0836 -0.1714
  635PSPI    C3 9837  13.059   1.676   5.293  0.0946  0.1894 -0.0846
  635PSPI   PO4 9838  12.637   1.790   5.803  0.0201 -0.1963  0.2197
  635PSPI   GL1 9839  12.602   1.671   6.311 -0.1459  0.2585  0.0004
  635PSPI   GL2 9840  12.600   2.089   6.287  0.1075  0.1370 -0.1290
  635PSPI   C1A 9841  12.614   1.650   6.781  0.2745  0.1475 -0.0551
  635PSPI   C2A 9842  12.774   1.831   7.275  0.0892 -0.0811 -0.0390
  635PSPI   C3A 9843  12.779   2.077   7.680 -0.1016  0.1633 -0.0596
  635PSPI   C4A 9844  12.884   2.486   7.894  0.0716 -0.1165 -0.1288
  635PSPI   C1B 9845  12.718   2.150   6.638 -0.1921  0.0826  0.1789
  635PSPI   C2B 9846  12.783   2.225   7.044 -0.0090 -0.2041  0.1189
  635PSPI   C3B 9847  13.110   2.319   7.343 -0.1481 -0.1380 -0.0398
  635PSPI   C4B 9848  13.321   2.239   7.667  0.0699 -0.0309  0.0937
  636PSPI    C1 9849   1.204  14.602   6.184 -0.2118  0.1050 -0.1331
  636PSPI    C2 9850   1.440  14.733   5.889 -0.0597 -0.0099 -0.0634
  636PSPI    C3 9851   1.491  14.365   6.038 -0.2276 -0.0040  0.0106
  636PSPI   PO4 9852   1.230  14.945   6.291 -0.2193  0.1172 -0.1005
  636PSPI   GL1 9853   0.997  15.253   6.580  0.1060  0.1174  0.2925
  636PSPI   GL2 9854   0.972  15.545   6.479 -0.1687 -0.0429 -0.3010
  636PSPI   C1A 9855   0.892  15.307   6.957 -0.1206 -0.3126  0.2237
  636PSPI   C2A 9856   1.069  15.323   7.363 -0.4259 -0.1190 -0.0151
  636PSPI   C3A 9857   1.229  15.249   7.840  0.0631  0.0256  0.2054
  636PSPI   C4A 9858   1.127  14.869   8.227  0.1590 -0.1275 -0.0235
  636PSPI   C1B 9859   0.935  15.793   6.787  0.0011 -0.3103 -0.2489
  636PSPI   C2B 9860   1.100  15.896   7.191 -0.0129  0.2100  0.0272
  636PSPI   C3B 9861   0.922  15.710   7.622  0.0949  0.0014  0.1432
  636PSPI   C4B 9862   0.998  15.621   7.994  0.2490 -0.1589 -0.0804
  637PSPI    C1 9863   9.759   6.475   6.107  0.0652 -0.0961 -0.0031
  637PSPI    C2 9864   9.484   6.456   5.816  0.1346  0.1470 -0.0866
  637PSPI    C3 9865   9.757   6.166   5.853  0.1561  0.1391 -0.2962
  637PSPI   PO4 9866   9.592   6.442   6.333  0.1782 -0.1623  0.3920
  637PSPI   GL1 9867   9.565   6.616   6.683  0.0979  0.1269 -0.1628
  637PSPI   GL2 9868   9.310   6.762   6.586 -0.1212  0.0594  0.0746
  637PSPI   C1A 9869   9.577   6.662   7.160 -0.0919 -0.0882  0.1740
  637PSPI   C2A 9870   9.486   6.653   7.630  0.1454 -0.0124  0.1101
  637PSPI   C3A 9871   9.554   6.498   8.091 -0.0314 -0.2508  0.0619
  637PSPI   C4A 9872   9.648   6.711   8.549 -0.0672  0.0921 -0.0978
  637PSPI   C1B 9873   9.571   7.115   6.913  0.2127  0.0052 -0.0888
  637PSPI   C2B 9874   9.686   7.109   7.376 -0.0389 -0.0868  0.0918
  637PSPI   C3B 9875   9.607   7.441   7.698 -0.0177  0.2755  0.3442
  637PSPI   C4B 9876   9.415   7.521   8.031  0.1052  0.2260 -0.3667
  638PSPI    C1 9877  14.003   7.641   5.854  0.2324  0.0976 -0.0264
  638PSPI    C2 9878  13.648   7.497   5.741  0.1272  0.1412  0.2414
  638PSPI    C3 9879  13.850   7.743   5.499  0.0697 -0.0438  0.0019
  638PSPI   PO4 9880  13.918   7.749   6.221 -0.1071  0.1761 -0.1260
  638PSPI   GL1 9881  13.948   7.915   6.704 -0.1615  0.2714 -0.0219
  638PSPI   GL2 9882  14.058   7.698   6.886 -0.1641 -0.3635  0.0778
  638PSPI   C1A 9883  13.950   8.144   7.054 -0.3188 -0.1650 -0.1445
  638PSPI   C2A 9884  13.871   8.246   7.559 -0.2132 -0.2965  0.0073
  638PSPI   C3A 9885  14.065   8.224   8.016 -0.0461  0.3389  0.1196
  638PSPI   C4A 9886  14.305   7.891   8.261 -0.4279 -0.0241 -0.0916
  638PSPI   C1B 9887  14.086   7.720   7.331 -0.3159  0.5775 -0.2448
  638PSPI   C2B 9888  14.327   7.776   7.663  0.3497  0.0186 -0.2584
  638PSPI   C3B 9889  14.663   7.871   7.932  0.3801  0.0720 -0.0373
  638PSPI   C4B 9890  14.904   7.967   8.323 -0.0051 -0.0383 -0.3474
  639PSPI    C1 9891   5.831   0.750   5.573  0.1349 -0.1878 -0.0376
  639PSPI    C2 9892   6.153   0.978   5.508 -0.0546  0.0588 -0.1265
  639PSPI    C3 9893   6.125   0.618   5.337  0.2306 -0.0195 -0.0141
  639PSPI   PO4 9894   5.727   0.804   5.877 -0.2544  0.1839 -0.3832
  639PSPI   GL1 9895   5.575   0.490   6.294 -0.1290 -0.1066  0.1648
  639PSPI   GL2 9896   5.806   0.353   6.584 -0.0702  0.1431  0.0288
  639PSPI   C1A 9897   5.302   0.840   6.414 -0.1641 -0.0360  0.1909
  639PSPI   C2A 9898   5.191   1.034   6.669  0.0092  0.0694  0.2011
  639PSPI   C3A 9899   4.851   0.833   6.869 -0.0835 -0.3947 -0.1770
  639PSPI   C4A 9900   4.651   1.045   7.150  0.1012  0.0588 -0.0987
  639PSPI   C1B 9901   5.683   0.218   7.052  0.3223  0.3213  0.3631
  639PSPI   C2B 9902   5.669   0.088   7.522 -0.2058  0.4449  0.0429
  639PSPI   C3B 9903   5.546   0.136   7.919  0.0873  0.0062 -0.0953
  639PSPI   C4B 9904   5.360   0.197   8.251  0.0325 -0.0051  0.3085
  640PSPI    C1 9905   6.631  16.377   5.780 -0.0300 -0.1312 -0.0838
  640PSPI    C2 9906   6.913  16.140   5.624 -0.2102 -0.1675 -0.3612
  640PSPI    C3 9907   6.818  16.483   5.443 -0.2497 -0.0891 -0.1939
  640PSPI   PO4 9908   6.757  16.421   6.041 -0.1511  0.0315  0.1013
  640PSPI   GL1 9909   6.605  16.668   6.368 -0.2137 -0.0871  0.2293
  640PSPI   GL2 9910   6.644  16.490   6.626 -0.1128 -0.0880  0.0079
  640PSPI   C1A 9911   6.541  16.930   6.732  0.4167 -0.0196 -0.1538
  640PSPI   C2A 9912   6.567  16.995   7.124  0.1961 -0.0427 -0.0819
  640PSPI   C3A 9913   6.648  17.204   7.505  0.1098  0.0427  0.2853
  640PSPI   C4A 9914   6.453  17.263   7.923  0.2043  0.0291 -0.0392
  640PSPI   C1B 9915   6.778  16.553   7.018  0.2620 -0.2173  0.1292
  640PSPI   C2B 9916   6.763  16.635   7.423 -0.1621 -0.1365  0.2108
  640PSPI   C3B 9917   6.849  16.812   7.859  0.0099  0.0706  0.1072
  640PSPI   C4B 9918   6.656  16.914   8.243 -0.0908 -0.1975  0.1245
  641PSPI    C1 9919   3.317   1.562   5.817  0.1324  0.0916 -0.0770
  641PSPI    C2 9920   3.147   1.762   5.516  0.0683 -0.0944 -0.1663
  641PSPI    C3 9921   3.298   1.397   5.453  0.1111 -0.1084  0.0133
  641PSPI   PO4 9922   3.373   1.814   6.011 -0.1410  0.2615  0.2364
  641PSPI   GL1 9923   3.234   1.758   6.388  0.0001  0.0170  0.2513
  641PSPI   GL2 9924   2.901   1.674   6.626  0.3607  0.2371  0.1721
  641PSPI   C1A 9925   3.309   1.877   6.842 -0.0246  0.0426  0.2073
  641PSPI   C2A 9926   3.570   1.832   7.203  0.1639 -0.0570 -0.2016
  641PSPI   C3A 9927   3.746   1.573   7.596 -0.0635 -0.0982  0.0773
  641PSPI   C4A 9928   4.066   1.460   7.783 -0.1714  0.1856  0.1103
  641PSPI   C1B 9929   2.630   1.530   6.831  0.0598 -0.0327 -0.2641
  641PSPI   C2B 9930   2.865   1.624   7.279  0.3410  0.2082  0.2272
  641PSPI   C3B 9931   2.919   1.882   7.699 -0.0837  0.2679 -0.2009
  641PSPI   C4B 9932   2.743   2.013   8.201 -0.2592  0.0213 -0.1688
  642PSPI    C1 9933  11.952   7.164   6.393  0.0790 -0.1482  0.2755
  642PSPI    C2 9934  11.971   7.105   5.998  0.0624 -0.1716  0.2782
  642PSPI    C3 9935  11.665   7.309   6.156  0.1471 -0.0319  0.2635
  642PSPI   PO4 9936  12.042   6.807   6.418 -0.0152 -0.1995 -0.3251
  642PSPI   GL1 9937  12.052   6.557   6.817 -0.0773 -0.3848 -0.0720
  642PSPI   GL2 9938  11.785   6.640   7.015  0.0001  0.1318 -0.3349
  642PSPI   C1A 9939  12.291   6.762   7.122 -0.0571 -0.3344 -0.2706
  642PSPI   C2A 9940  12.533   6.645   7.440 -0.0562 -0.0808 -0.1342
  642PSPI   C3A 9941  12.725   6.763   7.784 -0.2118 -0.2523 -0.0225
  642PSPI   C4A 9942  12.863   6.576   8.178 -0.1217  0.2325  0.1427
  642PSPI   C1B 9943  11.867   6.781   7.380  0.2576 -0.1189  0.1120
  642PSPI   C2B 9944  11.805   7.043   7.627  0.0999  0.1638  0.1833
  642PSPI   C3B 9945  11.599   7.060   8.043 -0.0893  0.1164  0.2112
  642PSPI   C4B 9946  11.542   7.309   8.429  0.3507  0.1073 -0.1040
  643PSPI    C1 9947   6.738   9.565   6.213 -0.0118 -0.1363  0.1627
  643PSPI    C2 9948   7.071   9.382   6.086  0.0172  0.0085  0.0266
  643PSPI    C3 9949   6.805   9.520   5.821 -0.1147 -0.0387  0.1333
  643PSPI   PO4 9950   6.702   9.362   6.425 -0.3882 -0.2670 -0.3192
  643PSPI   GL1 9951   6.938   9.086   6.621  0.1078 -0.1517  0.2862
  643PSPI   GL2 9952   7.175   9.165   6.862 -0.0262  0.0169  0.0354
  643PSPI   C1A 9953   6.754   9.244   7.022  0.2338  0.0815  0.0471
  643PSPI   C2A 9954   6.820   9.152   7.430 -0.5844  0.1126  0.1252
  643PSPI   C3A 9955   6.913   9.213   7.875 -0.1079  0.1686  0.1548
  643PSPI   C4A 9956   7.082   9.318   8.173 -0.1448  0.3119 -0.2147
  643PSPI   C1B 9957   7.193   9.019   7.180  0.1686 -0.1120  0.0299
  643PSPI   C2B 9958   7.214   8.819   7.623 -0.2496  0.2883  0.2919
  643PSPI   C3B 9959   6.878   8.692   7.832 -0.1541  0.1129 -0.1109
  643PSPI   C4B 9960   6.646   8.413   8.040  0.0321 -0.2283 -0.1147
  644PSPI    C1 9961   3.726  11.628   6.104 -0.0371  0.0392  0.2366
  644PSPI    C2 9962   3.502  11.958   6.130 -0.2034 -0.0623  0.1175
  644PSPI    C3 9963   3.683  11.866   5.786  0.0456  0.0330  0.2208
  644PSPI   PO4 9964   3.899  11.612   6.251 -0.0103  0.2091  0.0935
  644PSPI   GL1 9965   4.138  11.813   6.485 -0.1269  0.0132  0.0803
  644PSPI   GL2 9966   4.351  12.143   6.607 -0.0666 -0.0134 -0.1035
  644PSPI   C1A 9967   4.023  11.675   6.876  0.0508  0.1088 -0.1797
  644PSPI   C2A 9968   4.213  11.522   7.288  0.0559  0.0478  0.0487
  644PSPI   C3A 9969   4.055  11.501   7.678  0.0237 -0.2252 -0.1799
  644PSPI   C4A 9970   3.772  11.355   8.017 -0.1202  0.0024  0.2282
  644PSPI   C1B 9971   4.030  12.173   7.080 -0.1838  0.0774  0.1553
  644PSPI   C2B 9972   3.787  11.965   7.401  0.1350  0.0379  0.0982
  644PSPI   C3B 9973   3.592  11.731   7.737 -0.2757  0.0454  0.1496
  644PSPI   C4B 9974   3.432  11.886   8.159 -0.1591 -0.0364  0.1204
  645PSPI    C1 9975   7.575   3.643   5.671  0.0414 -0.0908  0.1955
  645PSPI    C2 9976   7.953   3.646   5.800  0.1351 -0.0281 -0.0734
  645PSPI    C3 9977   7.871   3.746   5.422 -0.1456 -0.0962 -0.0323
  645PSPI   PO4 9978   7.439   3.700   5.920  0.4035  0.2507 -0.0331
  645PSPI   GL1 9979   7.182   3.472   6.204 -0.2288  0.0586 -0.0702
  645PSPI   GL2 9980   6.855   3.593   6.398  0.1460 -0.0410  0.0150
  645PSPI   C1A 9981   7.273   3.247   6.514 -0.1618 -0.4686  0.1311
  645PSPI   C2A 9982   7.283   3.048   6.967 -0.2014  0.2178  0.0264
  645PSPI   C3A 9983   7.120   2.744   7.137  0.0989  0.1709 -0.0853
  645PSPI   C4A 9984   7.224   2.711   7.557 -0.4073 -0.3008  0.0480
  645PSPI   C1B 9985   7.041   3.514   6.863 -0.0547  0.2084 -0.0581
  645PSPI   C2B 9986   7.315   3.437   7.237 -0.0581  0.2300 -0.3226
  645PSPI   C3B 9987   7.662   3.095   7.372 -0.1698 -0.1716 -0.0594
  645PSPI   C4B 9988   7.855   2.785   7.503 -0.1356 -0.2009  0.2993
  646PSPI    C1 9989  11.138   6.361   6.159 -0.0269  0.0065 -0.0147
  646PSPI    C2 9990  11.499   6.290   6.002 -0.1243 -0.2203 -0.1410
  646PSPI    C3 9991  11.267   6.579   5.850  0.0845  0.0655  0.0726
  646PSPI   PO4 9992  11.266   6.336   6.440  0.0012  0.2510 -0.3353
  646PSPI   GL1 9993  11.297   6.089   6.862 -0.1930 -0.1970  0.2142
  646PSPI   GL2 9994  11.500   6.271   6.930 -0.0024  0.1092 -0.1153
  646PSPI   C1A 9995  11.221   5.960   7.261  0.1878  0.3610 -0.2924
  646PSPI   C2A 9996  11.165   5.790   7.675 -0.0771  0.2138 -0.1191
  646PSPI   C3A 9997  11.155   5.507   8.059 -0.0573  0.2243  0.2083
  646PSPI   C4A 9998  11.287   5.657   8.464  0.1850  0.1431 -0.2067
  646PSPI   C1B 9999  11.578   6.284   7.383 -0.1242  0.2185 -0.0236
  646PSPI   C2B10000  11.361   6.204   7.782  0.0859  0.4310  0.0431
  646PSPI   C3B10001  11.032   6.035   8.072  0.2155 -0.0951 -0.0431
  646PSPI   C4B10002  10.852   5.951   8.457 -0.1545 -0.2014 -0.4332
  647PSPI    C110003  12.060   2.833   6.131 -0.1654  0.0031  0.1235
  647PSPI    C210004  12.256   2.491   6.204  0.0679  0.1163  0.0373
  647PSPI    C310005  12.095   2.557   5.843 -0.0157  0.0789  0.0677
  647PSPI   PO410006  11.920   2.792   6.410  0.1909  0.0320  0.0067
  647PSPI   GL110007  11.504   2.648   6.549 -0.2438 -0.0419  0.0796
  647PSPI   GL210008  11.348   2.371   6.823 -0.0963  0.0094  0.1811
  647PSPI   C1A10009  11.597   2.691   7.020  0.0275  0.2505  0.0759
  647PSPI   C2A10010  11.694   2.811   7.484 -0.1636 -0.0389 -0.0514
  647PSPI   C3A10011  11.506   2.512   7.681 -0.0291  0.3684  0.4308
  647PSPI   C4A10012  11.263   2.496   8.119 -0.3679  0.0951  0.1259
  647PSPI   C1B10013  11.232   2.384   7.272 -0.2080 -0.0168 -0.1758
  647PSPI   C2B10014  11.334   2.078   7.506  0.0120  0.0840  0.1875
  647PSPI   C3B10015  11.361   1.978   7.856  0.1750  0.2321 -0.3043
  647PSPI   C4B10016  11.449   1.941   8.263  0.0990 -0.1609 -0.1019
  648PSPI    C110017   7.358   4.623   6.370  0.3411  0.0248 -0.2272
  648PSPI    C210018   7.367   4.434   6.017 -0.2248  0.0235 -0.2503
  648PSPI    C310019   7.162   4.776   6.056  0.1216  0.2096 -0.0048
  648PSPI   PO410020   7.270   4.382   6.494 -0.2492  0.1806 -0.1426
  648PSPI   GL110021   7.494   4.193   6.795 -0.0879 -0.0514 -0.2064
  648PSPI   GL210022   7.685   4.185   6.915 -0.1047 -0.0273  0.4710
  648PSPI   C1A10023   7.268   4.001   7.076 -0.0238 -0.1352 -0.0701
  648PSPI   C2A10024   7.378   3.863   7.466  0.2215 -0.4094 -0.1465
  648PSPI   C3A10025   7.344   3.669   7.884  0.0383  0.0439 -0.1091
  648PSPI   C4A10026   7.187   3.312   8.154 -0.1013  0.0506  0.1341
  648PSPI   C1B10027   7.822   4.021   7.246  0.2317 -0.2664  0.1662
  648PSPI   C2B10028   7.805   4.012   7.701  0.1655 -0.0715  0.3617
  648PSPI   C3B10029   7.832   3.863   8.113 -0.0927 -0.2444 -0.0158
  648PSPI   C4B10030   7.654   3.444   8.233 -0.0441 -0.1415 -0.0274
  649PSPI    C110031  11.238   0.492   5.984 -0.2220 -0.1493 -0.1545
  649PSPI    C210032  10.854   0.512   5.874 -0.2658 -0.0526  0.0131
  649PSPI    C310033  11.142   0.560   5.601 -0.3713 -0.2720 -0.1405
  649PSPI   PO410034  11.142   0.485   6.285 -0.1215 -0.2007 -0.4430
  649PSPI   GL110035  11.134   0.463   6.708 -0.1517  0.1303  0.1335
  649PSPI   GL210036  10.845   0.579   6.729 -0.0470 -0.0933 -0.0478
  649PSPI   C1A10037  11.231   0.248   7.040  0.0483  0.0203 -0.1314
  649PSPI   C2A10038  11.231   0.268   7.498 -0.1594  0.0207  0.0776
  649PSPI   C3A10039  11.375  -0.046   7.827 -0.0092  0.0783 -0.0365
  649PSPI   C4A10040  11.249  -0.095   8.285  0.0790 -0.0595 -0.0226
  649PSPI   C1B10041  10.805   0.455   7.197  0.1328  0.0462 -0.0888
  649PSPI   C2B10042  10.665   0.664   7.597  0.2066 -0.0835  0.1897
  649PSPI   C3B10043  10.868   0.912   7.934 -0.4125  0.2887 -0.0227
  649PSPI   C4B10044  10.968   1.119   8.375  0.2207  0.0394  0.1161
  650PSPI    C110045   3.987   3.252   5.601  0.2644 -0.0010  0.2366
  650PSPI    C210046   4.173   3.600   5.538  0.2756 -0.0354  0.0747
  650PSPI    C310047   3.808   3.595   5.700  0.2247  0.0590 -0.0353
  650PSPI   PO410048   4.109   3.109   5.713  0.2071 -0.1845  0.2292
  650PSPI   GL110049   4.068   2.981   6.131 -0.1837  0.3071  0.2533
  650PSPI   GL210050   3.687   3.006   6.242 -0.0441 -0.0848  0.5224
  650PSPI   C1A10051   4.064   2.928   6.518  0.0767 -0.1916  0.1952
  650PSPI   C2A10052   4.158   2.923   6.950 -0.1793  0.1281  0.1365
  650PSPI   C3A10053   4.191   3.054   7.276 -0.0962  0.2791 -0.1181
  650PSPI   C4A10054   4.135   3.092   7.733  0.2065 -0.1035 -0.3508
  650PSPI   C1B10055   3.593   2.899   6.660 -0.0982 -0.1242  0.1287
  650PSPI   C2B10056   3.652   2.799   7.117  0.0709  0.3376 -0.2855
  650PSPI   C3B10057   3.915   2.716   7.540 -0.0805 -0.1459  0.0345
  650PSPI   C4B10058   4.135   2.482   7.882  0.0122  0.2139 -0.0263
  651PSPI    C110059  16.376  15.799   6.459 -0.1341  0.0268  0.0178
  651PSPI    C210060  15.977  15.777   6.442 -0.1314 -0.1008  0.1059
  651PSPI    C310061  16.199  15.625   6.146 -0.1497  0.0578  0.0094
  651PSPI   PO410062  16.485  16.133   6.452  0.2266  0.0962  0.0275
  651PSPI   GL110063  16.255  16.530   6.532  0.5592  0.0711  0.0521
  651PSPI   GL210064  16.391  16.712   6.696 -0.1999  0.2739  0.2160
  651PSPI   C1A10065  16.023  16.475   6.845  0.1569 -0.1573 -0.1243
  651PSPI   C2A10066  15.951  16.362   7.247  0.0428  0.2123  0.0458
  651PSPI   C3A10067  15.820  16.230   7.627  0.0670  0.0409 -0.0137
  651PSPI   C4A10068  15.661  15.899   7.923  0.1363 -0.4998 -0.0398
  651PSPI   C1B10069  16.340  16.688   7.262 -0.3369 -0.1643  0.0540
  651PSPI   C2B10070  16.318  16.385   7.680 -0.0813  0.0159 -0.0427
  651PSPI   C3B10071  16.096  16.301   8.029 -0.1512 -0.2602 -0.0779
  651PSPI   C4B10072  16.063  16.573   8.411  0.2950  0.0491 -0.3402
  652PSPI    C110073  12.079   8.187   6.272 -0.2231 -0.1797  0.2121
  652PSPI    C210074  11.906   8.130   5.915 -0.0917  0.0665  0.1062
  652PSPI    C310075  12.269   7.977   5.989 -0.0634  0.1245  0.0881
  652PSPI   PO410076  11.916   8.070   6.475  0.0882  0.0776  0.1009
  652PSPI   GL110077  12.126   7.964   6.796 -0.0813 -0.1935  0.1528
  652PSPI   GL210078  12.382   7.959   6.735 -0.0465 -0.0880  0.1176
  652PSPI   C1A10079  12.184   7.922   7.269 -0.1112  0.0024 -0.2279
  652PSPI   C2A10080  12.187   7.996   7.691 -0.0504 -0.0000 -0.0086
  652PSPI   C3A10081  12.001   8.085   8.092 -0.0867 -0.2844 -0.2115
  652PSPI   C4A10082  11.714   8.179   8.427 -0.0053  0.3847  0.1477
  652PSPI   C1B10083  12.589   7.849   7.034 -0.2343 -0.1440 -0.1450
  652PSPI   C2B10084  12.595   7.812   7.507  0.1397  0.1248  0.1074
  652PSPI   C3B10085  12.868   7.773   7.896  0.0143  0.0557 -0.0277
  652PSPI   C4B10086  13.131   7.489   8.162 -0.2689 -0.2371  0.0723
  653PSPI    C110087  15.708  10.777   6.428  0.0506 -0.1584 -0.0913
  653PSPI    C210088  15.661  10.997   6.097 -0.0566  0.0433  0.0557
  653PSPI    C310089  15.445  10.664   6.148 -0.1144  0.0675 -0.0298
  653PSPI   PO410090  15.946  10.788   6.517 -0.0914  0.0602  0.0810
  653PSPI   GL110091  16.244  10.997   6.704 -0.0429 -0.0940  0.1609
  653PSPI   GL210092  16.136  11.249   7.019  0.0680 -0.0477  0.0544
  653PSPI   C1A10093  16.319  10.696   7.036  0.3475  0.0858 -0.1953
  653PSPI   C2A10094  16.534  10.625   7.419  0.0837 -0.0450  0.0029
  653PSPI   C3A10095  16.616  10.684   7.875  0.3438  0.2174  0.0859
  653PSPI   C4A10096  16.591  10.763   8.391 -0.2280 -0.0721  0.0497
  653PSPI   C1B10097  16.404  11.189   7.354 -0.1954 -0.3771  0.1078
  653PSPI   C2B10098  16.375  11.076   7.694 -0.0295  0.3044  0.1142
  653PSPI   C3B10099  16.559  11.203   8.030  0.0050 -0.0347 -0.1223
  653PSPI   C4B10100  16.587  11.267   8.452 -0.3462 -0.4584  0.0564
  654POPI    C110101   0.333  15.327   6.176  0.2196  0.1582 -0.0128
  654POPI    C210102   0.455  15.069   5.897 -0.1093  0.0063 -0.0217
  654POPI    C310103   0.375  15.448   5.798 -0.0713 -0.0062 -0.1015
  654POPI   PO410104   0.462  15.315   6.376 -0.4518 -0.0243  0.0231
  654POPI   GL110105   0.511  15.128   6.735 -0.1851  0.0837  0.0856
  654POPI   GL210106   0.347  14.803   6.766  0.0576  0.0505  0.0519
  654POPI   C1A10107   0.339  15.016   7.208 -0.1560 -0.2514  0.1797
  654POPI   D2A10108   0.344  14.722   7.594 -0.1348  0.1031  0.1697
  654POPI   C3A10109   0.413  14.896   7.995 -0.0115  0.1642  0.1866
  654POPI   C4A10110   0.722  15.210   8.053 -0.1753  0.1485 -0.2866
  654POPI   C1B10111   0.429  14.550   7.127 -0.3268  0.4278 -0.0646
  654POPI   C2B10112   0.478  14.246   7.353 -0.1061  0.1404  0.0846
  654POPI   C3B10113   0.713  14.103   7.610 -0.2773  0.0745  0.2014
  654POPI   C4B10114   1.017  13.871   7.591  0.4180 -0.0043 -0.0328
  655POPI    C110115   3.115  15.983   6.024  0.0744 -0.0719 -0.0332
  655POPI    C210116   3.281  16.075   5.672  0.1478  0.3513  0.1055
  655POPI    C310117   2.883  16.086   5.715  0.1078 -0.1224 -0.0752
  655POPI   PO410118   3.143  16.178   6.223  0.1906 -0.0826  0.1413
  655POPI   GL110119   3.336  16.177   6.501 -0.1318 -0.4854 -0.0123
  655POPI   GL210120   3.303  16.336   6.633  0.2495  0.2700  0.0410
  655POPI   C1A10121   3.522  15.899   6.647 -0.1592  0.3131 -0.3162
  655POPI   D2A10122   3.459  15.445   6.752  0.0127 -0.0082 -0.3043
  655POPI   C3A10123   3.786  15.249   7.024  0.1274 -0.0076 -0.0993
  655POPI   C4A10124   3.929  15.367   7.385  0.1456 -0.0528  0.1820
  655POPI   C1B10125   3.470  16.216   7.014  0.1204  0.0285 -0.1053
  655POPI   C2B10126   3.656  15.856   7.210  0.0028 -0.0781 -0.0115
  655POPI   C3B10127   3.865  15.839   7.542  0.3377  0.0004 -0.0768
  655POPI   C4B10128   4.161  15.674   7.757  0.0736  0.2131  0.1349
  656POPI    C110129   9.219  10.138   5.896 -0.0785  0.1792 -0.3945
  656POPI    C210130   9.469  10.279   5.617  0.1678  0.2345 -0.1512
  656POPI    C310131   9.382  10.501   5.938  0.1099  0.0596 -0.0442
  656POPI   PO410132   9.243   9.876   5.971 -0.0791  0.1130 -0.1089
  656POPI   GL110133   9.355   9.758   6.404 -0.0939 -0.1598 -0.2016
  656POPI   GL210134   9.110   9.968   6.445  0.1197  0.2369 -0.0595
  656POPI   C1A10135   9.490   9.689   6.773 -0.1397 -0.1272 -0.0315
  656POPI   D2A10136   9.769   9.462   6.908  0.2098  0.1375 -0.0373
  656POPI   C3A10137   9.874   9.464   7.306  0.2558 -0.0972  0.1165
  656POPI   C4A10138   9.854   9.181   7.665  0.1238 -0.1413 -0.2537
  656POPI   C1B10139   9.241  10.110   6.838  0.0549 -0.0094 -0.1978
  656POPI   C2B10140   9.319  10.053   7.255 -0.1047 -0.1898 -0.1651
  656POPI   C3B10141   9.188   9.977   7.660  0.0507  0.0456  0.1451
  656POPI   C4B10142   9.358   9.962   8.010  0.4980  0.0979 -0.1028
  657POPI    C110143  14.363   6.943   5.973 -0.2655  0.0900 -0.1252
  657POPI    C210144  14.383   7.336   6.045  0.0247  0.0748 -0.1112
  657POPI    C310145  14.542   7.186   5.710  0.0806 -0.0535 -0.0279
  657POPI   PO410146  14.412   6.844   6.247  0.0225  0.0082  0.2805
  657POPI   GL110147  14.151   6.624   6.433  0.4262 -0.1960  0.2430
  657POPI   GL210148  13.990   6.873   6.507  0.1142  0.1646 -0.0467
  657POPI   C1A10149  14.407   6.676   6.796  0.3900  0.1508  0.0245
  657POPI   D2A10150  14.508   6.455   7.150  0.0371 -0.0947  0.2086
  657POPI   C3A10151  14.330   6.338   7.590 -0.2426  0.1718  0.4526
  657POPI   C4A10152  14.171   6.051   7.925 -0.2717  0.2972 -0.0582
  657POPI   C1B10153  13.929   6.576   6.914 -0.1348  0.1375 -0.3177
  657POPI   C2B10154  13.884   6.605   7.381  0.1492 -0.0068 -0.0615
  657POPI   C3B10155  13.870   6.446   7.800  0.1621 -0.0648  0.0898
  657POPI   C4B10156  13.860   6.334   8.133  0.0261 -0.1403  0.0355
  658POPI    C110157  17.737   2.936   5.539  0.4529 -0.0448 -0.1832
  658POPI    C210158  17.460   2.694   5.383  0.3352 -0.1794  0.2225
  658POPI    C310159  17.495   3.069   5.250  0.0326 -0.1952  0.0902
  658POPI   PO410160  17.698   2.877   5.854 -0.1629  0.0653  0.0903
  658POPI   GL110161  17.417   2.968   6.156  0.2288 -0.0299  0.3447
  658POPI   GL210162  17.465   3.335   6.201  0.0029 -0.0159 -0.0655
  658POPI   C1A10163  17.606   2.858   6.515 -0.0307 -0.1830 -0.1298
  658POPI   D2A10164  17.690   2.728   6.939 -0.1991 -0.1218 -0.1076
  658POPI   C3A10165  17.379   2.867   7.228  0.0418  0.1388  0.1868
  658POPI   C4A10166  17.198   2.724   7.633  0.1152  0.0407 -0.0617
  658POPI   C1B10167  17.448   3.429   6.624  0.2342  0.0904 -0.1440
  658POPI   C2B10168  17.453   3.338   6.997  0.1059 -0.1567 -0.0555
  658POPI   C3B10169  17.333   3.321   7.313 -0.2976 -0.3540 -0.3197
  658POPI   C4B10170  17.241   3.206   7.711  0.3339 -0.0453 -0.2603
  659POPI    C110171   3.966  12.178   6.091  0.0876  0.1009  0.0640
  659POPI    C210172   3.750  12.400   5.837  0.0782 -0.0552 -0.0662
  659POPI    C310173   4.060  12.186   5.703  0.0711 -0.1419  0.0533
  659POPI   PO410174   3.841  12.304   6.305  0.1238 -0.0153 -0.0383
  659POPI   GL110175   3.982  12.555   6.625 -0.1174 -0.1027 -0.4759
  659POPI   GL210176   3.587  12.505   6.755 -0.1574  0.3019  0.0333
  659POPI   C1A10177   3.941  12.758   6.926 -0.2041  0.0109 -0.0930
  659POPI   D2A10178   4.033  12.819   7.357 -0.0516 -0.0414  0.0667
  659POPI   C3A10179   3.851  13.178   7.565 -0.1414  0.1228 -0.0667
  659POPI   C4A10180   3.845  13.485   7.912 -0.2012  0.3031 -0.1456
  659POPI   C1B10181   3.683  12.463   7.183  0.2041 -0.0665 -0.0422
  659POPI   C2B10182   3.973  12.348   7.579  0.1060 -0.1272  0.1424
  659POPI   C3B10183   4.081  12.466   8.048 -0.1196 -0.1332  0.4239
  659POPI   C4B10184   4.432  12.669   8.239  0.1732 -0.1165 -0.0820
  660POPI    C110185  12.102  14.381   6.117  0.0799 -0.0770  0.0362
  660POPI    C210186  11.792  14.439   5.870  0.0519 -0.1510  0.0541
  660POPI    C310187  12.112  14.233   5.746  0.0620 -0.1393  0.0605
  660POPI   PO410188  11.994  14.282   6.356 -0.0011 -0.0395  0.1486
  660POPI   GL110189  12.133  14.239   6.797 -0.0522 -0.6373  0.2451
  660POPI   GL210190  12.420  14.317   6.733  0.0106  0.0103 -0.0892
  660POPI   C1A10191  11.714  14.487   6.955 -0.1758  0.4158  0.0379
  660POPI   D2A10192  11.562  14.750   7.258 -0.0651 -0.1447 -0.3968
  660POPI   C3A10193  11.602  14.696   7.681 -0.2694  0.0480 -0.3069
  660POPI   C4A10194  11.304  14.612   7.964 -0.3034  0.0400 -0.2259
  660POPI   C1B10195  12.395  14.256   7.242 -0.1685 -0.3977  0.0880
  660POPI   C2B10196  12.267  14.128   7.510 -0.1178  0.3354  0.1764
  660POPI   C3B10197  12.233  14.129   7.922 -0.0257  0.0212 -0.0018
  660POPI   C4B10198  11.988  14.089   8.300 -0.0843 -0.0305  0.0756
  661POPI    C110199  16.763   1.151   5.976  0.1151  0.1199  0.0473
  661POPI    C210200  16.508   1.355   5.744  0.2016  0.1084 -0.0592
  661POPI    C310201  16.746   1.550   5.999  0.2353  0.1355 -0.1111
  661POPI   PO410202  16.567   0.892   6.066  0.2080  0.0220  0.1870
  661POPI   GL110203  16.348   0.735   6.469  0.0727 -0.1183 -0.0491
  661POPI   GL210204  16.459   0.984   6.688 -0.2295  0.0771 -0.0280
  661POPI   C1A10205  15.994   0.691   6.719  0.1541  0.1522 -0.0214
  661POPI   D2A10206  15.772   0.787   7.102  0.0193 -0.2056 -0.2998
  661POPI   C3A10207  16.027   0.478   7.326  0.3657 -0.0046 -0.1961
  661POPI   C4A10208  15.985   0.368   7.668  0.0580  0.1896 -0.3606
  661POPI   C1B10209  16.571   1.235   7.171 -0.3225  0.1632 -0.2827
  661POPI   C2B10210  16.598   1.256   7.664 -0.2733 -0.4514 -0.0266
  661POPI   C3B10211  16.446   1.168   8.131  0.0018  0.0062  0.0414
  661POPI   C4B10212  16.296   1.622   8.354 -0.0622 -0.1678 -0.1185
  662POPI    C110213   1.737   8.359   5.641 -0.0196  0.0671  0.1214
  662POPI    C210214   1.957   8.507   5.940  0.1916 -0.0835  0.0427
  662POPI    C310215   1.877   8.733   5.620  0.4148 -0.0968 -0.0248
  662POPI   PO410216   1.618   8.111   5.837 -0.0112 -0.1991 -0.1650
  662POPI   GL110217   1.540   8.169   6.280  0.4627 -0.0133 -0.0138
  662POPI   GL210218   1.529   7.768   6.197  0.0019  0.0561 -0.0598
  662POPI   C1A10219   1.399   8.258   6.586 -0.2718 -0.0683  0.2443
  662POPI   D2A10220   1.379   8.690   6.800  0.0173 -0.0474  0.0410
  662POPI   C3A10221   1.394   8.784   7.198 -0.1644 -0.0196 -0.0128
  662POPI   C4A10222   1.380   8.408   7.436  0.0761 -0.3020 -0.0817
  662POPI   C1B10223   1.612   7.706   6.628  0.1279 -0.1722 -0.0866
  662POPI   C2B10224   1.639   7.707   7.113 -0.0727  0.1481  0.0748
  662POPI   C3B10225   1.768   7.553   7.472  0.0901 -0.4271  0.3170
  662POPI   C4B10226   1.776   7.689   7.829  0.0473  0.0791 -0.1012
  663POPI    C110227  15.415  12.430   6.580 -0.1310  0.0626  0.1340
  663POPI    C210228  15.033  12.549   6.585 -0.1965 -0.1440  0.0989
  663POPI    C310229  15.149  12.256   6.338  0.0294  0.0641 -0.0455
  663POPI   PO410230  15.554  12.341   6.780 -0.0132 -0.0398 -0.0095
  663POPI   GL110231  15.448  12.382   7.216 -0.1204  0.3940  0.2270
  663POPI   GL210232  15.351  12.732   7.004  0.2678 -0.1223  0.1184
  663POPI   C1A10233  15.426  12.242   7.590 -0.1141 -0.0848  0.1210
  663POPI   D2A10234  15.470  12.275   8.009 -0.2425 -0.3786 -0.1339
  663POPI   C3A10235  15.792  12.153   8.249  0.0814 -0.1548 -0.3257
  663POPI   C4A10236  15.982  11.957   8.425  0.0703 -0.1192  0.0348
  663POPI   C1B10237  15.342  12.790   7.473 -0.3941  0.0398  0.5327
  663POPI   C2B10238  15.433  12.761   7.972 -0.0349  0.0234 -0.5945
  663POPI   C3B10239  15.167  12.842   8.326 -0.4069 -0.1479 -0.0110
  663POPI   C4B10240  14.847  12.686   8.590 -0.1278 -0.0069  0.1268
  664POPI    C110241  12.822  14.278   6.417  0.1607 -0.1629  0.2985
  664POPI    C210242  12.811  14.130   6.045  0.0824 -0.0320  0.2482
  664POPI    C310243  12.492  14.095   6.284 -0.0646  0.3572  0.1166
  664POPI   PO410244  12.831  14.604   6.362 -0.1227  0.0827  0.0671
  664POPI   GL110245  12.987  14.819   6.687 -0.2398  0.0607  0.0025
  664POPI   GL210246  13.229  14.606   6.674 -0.1958  0.1835 -0.1718
  664POPI   C1A10247  12.775  14.576   6.995  0.0440 -0.1832  0.3640
  664POPI   D2A10248  12.680  14.662   7.401  0.2036  0.3002 -0.1937
  664POPI   C3A10249  12.612  14.815   7.772 -0.2628 -0.0357  0.0829
  664POPI   C4A10250  12.311  14.963   8.060 -0.2122  0.2009 -0.0288
  664POPI   C1B10251  13.212  14.714   7.137 -0.2548  0.0128 -0.2641
  664POPI   C2B10252  13.164  14.494   7.484 -0.1274 -0.1463 -0.0753
  664POPI   C3B10253  13.092  14.704   7.829  0.2006 -0.1148 -0.0044
  664POPI   C4B10254  13.271  14.664   8.227  0.3127 -0.1387 -0.1653
  665POPI    C110255  15.123  17.393   5.990  0.0119 -0.2110 -0.0037
  665POPI    C210256  14.882  17.384   5.670 -0.0175  0.1136  0.0055
  665POPI    C310257  14.751  17.538   6.015 -0.0187 -0.3232  0.2072
  665POPI   PO410258  15.231  17.179   5.998  0.1706 -0.2669  0.0054
  665POPI   GL110259  15.505  17.109   6.248 -0.3021  0.1120 -0.0848
  665POPI   GL210260  15.809  17.097   6.358 -0.0314 -0.0888  0.2686
  665POPI   C1A10261  15.469  17.218   6.686 -0.3743  0.0396  0.2830
  665POPI   D2A10262  15.266  17.091   7.135 -0.3538 -0.1301  0.0294
  665POPI   C3A10263  15.331  17.149   7.498 -0.1431 -0.1427 -0.2631
  665POPI   C4A10264  15.624  17.112   7.706  0.0568  0.0918  0.0401
  665POPI   C1B10265  15.909  16.939   6.770  0.2633 -0.0666  0.0180
  665POPI   C2B10266  15.929  16.960   7.180 -0.0169 -0.3470 -0.2318
  665POPI   C3B10267  15.931  16.750   7.561 -0.0946  0.2175 -0.0924
  665POPI   C4B10268  15.942  16.862   8.016  0.1513  0.0560  0.1503
  666POPI    C110269  11.066  16.752   5.808 -0.0045  0.0577 -0.1065
  666POPI    C210270  11.465  16.787   5.805  0.0013  0.0001 -0.0322
  666POPI    C310271  11.284  16.538   5.549  0.0089  0.0664 -0.1025
  666POPI   PO410272  10.963  16.673   6.078 -0.1809 -0.0196 -0.1384
  666POPI   GL110273  10.723  16.715   6.465 -0.2213  0.1884 -0.1903
  666POPI   GL210274  11.038  16.862   6.540  0.1180  0.2217 -0.0654
  666POPI   C1A10275  10.510  16.582   6.781 -0.0095  0.0457 -0.0484
  666POPI   D2A10276  10.385  16.636   7.172  0.0500 -0.3472 -0.0071
  666POPI   C3A10277  10.440  16.995   7.337  0.0507  0.2323 -0.1418
  666POPI   C4A10278  10.696  17.203   7.517  0.2191 -0.2357 -0.1422
  666POPI   C1B10279  11.375  16.735   6.791 -0.0350  0.0186 -0.0797
  666POPI   C2B10280  11.457  16.738   7.209  0.1508  0.2488 -0.2388
  666POPI   C3B10281  11.551  16.973   7.612  0.3578 -0.5049 -0.0468
  666POPI   C4B10282  11.562  17.000   8.114  0.2032  0.1950  0.0474
  667POPI    C110283   7.407   9.017   6.306 -0.1670 -0.0386  0.1149
  667POPI    C210284   7.649   9.001   5.988 -0.0002  0.0635  0.2350
  667POPI    C310285   7.490   8.665   6.135  0.1030 -0.0095  0.1811
  667POPI   PO410286   7.560   9.126   6.505  0.1969  0.0366 -0.2076
  667POPI   GL110287   7.694   8.968   6.872 -0.0809  0.0696  0.0968
  667POPI   GL210288   7.682   8.700   6.689 -0.0761  0.0437 -0.0056
  667POPI   C1A10289   7.741   8.927   7.207 -0.2331 -0.0081  0.3306
  667POPI   D2A10290   7.907   9.182   7.620  0.1002  0.0646  0.0296
  667POPI   C3A10291   8.024   9.246   8.008  0.1196 -0.0140 -0.0091
  667POPI   C4A10292   8.017   9.212   8.479 -0.2710 -0.2218 -0.0140
  667POPI   C1B10293   7.924   8.492   7.007 -0.0874 -0.0338 -0.0572
  667POPI   C2B10294   7.964   8.539   7.441 -0.0498  0.0821  0.0358
  667POPI   C3B10295   7.942   8.747   7.905 -0.1052 -0.2024  0.0950
  667POPI   C4B10296   7.943   8.758   8.344 -0.0594 -0.1014 -0.1749
  668POPI    C110297  10.993   0.002   5.992  0.0991 -0.3138  0.3869
  668POPI    C210298  10.953  -0.271   5.702  0.1242  0.1226 -0.0396
  668POPI    C310299  10.689   0.029   5.733  0.1689  0.1279  0.3437
  668POPI   PO410300  11.110  -0.097   6.174 -0.0615 -0.1065  0.2392
  668POPI   GL110301  11.305  -0.354   6.425  0.1211  0.1926  0.1028
  668POPI   GL210302  11.340  -0.594   6.687  0.0929 -0.0451  0.0101
  668POPI   C1A10303  11.468  -0.183   6.907  0.1078 -0.1483 -0.0485
  668POPI   D2A10304  11.452  -0.162   7.306  0.0619 -0.3944  0.2657
  668POPI   C3A10305  11.698  -0.369   7.610 -0.1406 -0.0350 -0.1567
  668POPI   C4A10306  11.998  -0.652   7.756 -0.1007 -0.1844 -0.0858
  668POPI   C1B10307  11.152  -0.720   7.061 -0.2613 -0.1773 -0.1075
  668POPI   C2B10308  11.173  -0.620   7.463  0.0408 -0.1061 -0.0115
  668POPI   C3B10309  11.245  -0.525   7.871  0.1156 -0.1906  0.2417
  668POPI   C4B10310  11.595  -0.380   8.153 -0.1667 -0.3235 -0.1335
  669POPI    C110311  11.989  16.297   5.955 -0.1514  0.0114 -0.1054
  669POPI    C210312  11.989  16.109   5.601 -0.2033 -0.1435 -0.0241
  669POPI    C310313  11.643  16.186   5.786 -0.1759 -0.0684 -0.0039
  669POPI   PO410314  12.210  16.191   6.033  0.1809  0.0604 -0.1481
  669POPI   GL110315  12.368  16.015   6.525 -0.2214  0.0384 -0.0658
  669POPI   GL210316  12.655  16.140   6.472 -0.1994 -0.0835 -0.1659
  669POPI   C1A10317  12.435  16.148   6.907  0.0831 -0.3620  0.2751
  669POPI   D2A10318  12.358  16.188   7.340  0.2987 -0.0574 -0.0315
  669POPI   C3A10319  12.429  16.429   7.703  0.0052 -0.0073  0.1203
  669POPI   C4A10320  12.550  16.316   8.150  0.0603 -0.0675  0.2514
  669POPI   C1B10321  12.415  16.545   6.639  0.1608 -0.0357  0.4647
  669POPI   C2B10322  12.398  16.686   7.101  0.0492  0.0806  0.2038
  669POPI   C3B10323  12.776  16.872   7.315 -0.1205  0.2786 -0.1580
  669POPI   C4B10324  12.926  16.789   7.759  0.2605  0.2633  0.0268
  670POPI    C110325  17.203   2.325   5.615  0.0531  0.1915  0.1248
  670POPI    C210326  16.891   2.543   5.491  0.0217  0.1801  0.1834
  670POPI    C310327  16.877   2.144   5.471  0.0652  0.1822  0.1093
  670POPI   PO410328  17.296   2.413   5.825 -0.0983 -0.0375 -0.0997
  670POPI   GL110329  17.315   2.317   6.229  0.1611 -0.1019  0.0877
  670POPI   GL210330  17.059   2.124   6.414 -0.0266 -0.0831  0.0857
  670POPI   C1A10331  17.402   2.371   6.671 -0.1096  0.0196 -0.1895
  670POPI   D2A10332  17.607   2.066   6.915 -0.2385  0.0704  0.1122
  670POPI   C3A10333  17.731   2.281   7.221 -0.1257  0.0479  0.0896
  670POPI   C4A10334  17.931   2.716   7.377 -0.2237 -0.3013  0.3357
  670POPI   C1B10335  16.846   2.327   6.656  0.4856  0.0244 -0.6108
  670POPI   C2B10336  16.740   2.150   7.035 -0.1871  0.1075 -0.0658
  670POPI   C3B10337  16.498   2.130   7.310 -0.3144  0.2568  0.0141
  670POPI   C4B10338  16.360   2.128   7.787 -0.1354 -0.0469 -0.2197
  671POPI    C110339  14.163  13.112   6.364 -0.2092 -0.0472 -0.3002
  671POPI    C210340  14.074  12.724   6.326  0.1668 -0.1360 -0.3119
  671POPI    C310341  14.435  12.858   6.220  0.1936  0.1413  0.1038
  671POPI   PO410342  14.131  13.180   6.632  0.2596  0.2106  0.1556
  671POPI   GL110343  14.064  13.413   7.026  0.0354  0.0957  0.1208
  671POPI   GL210344  13.828  13.502   6.974 -0.1114 -0.2796 -0.1281
  671POPI   C1A10345  14.205  13.429   7.428 -0.3005 -0.0774  0.4415
  671POPI   D2A10346  14.376  13.502   7.765  0.0527 -0.0474  0.1854
  671POPI   C3A10347  14.314  13.725   8.135  0.0407 -0.1633  0.3626
  671POPI   C4A10348  14.250  13.619   8.550  0.2292  0.1498  0.2765
  671POPI   C1B10349  13.478  13.536   7.300 -0.0463 -0.2068  0.3160
  671POPI   C2B10350  13.475  13.612   7.659  0.0216  0.0467  0.0006
  671POPI   C3B10351  13.389  13.707   8.126  0.0630 -0.0518  0.1948
  671POPI   C4B10352  13.397  13.400   8.566  0.1197  0.2858  0.2001
  672POPI    C110353   9.209   4.862   6.284  0.2929 -0.0552 -0.2438
  672POPI    C210354   9.095   5.132   6.012  0.0952  0.0107 -0.0981
  672POPI    C310355   9.463   4.977   5.998  0.1916  0.2455 -0.2168
  672POPI   PO410356   9.099   5.007   6.531  0.1106 -0.0866  0.0384
  672POPI   GL110357   9.257   4.960   6.913 -0.1399  0.1563  0.0279
  672POPI   GL210358   8.962   4.940   7.108 -0.1156 -0.0570  0.2773
  672POPI   C1A10359   9.461   4.922   7.354  0.1699 -0.1232 -0.2208
  672POPI   D2A10360   9.374   4.844   7.648  0.1638  0.4703  0.0860
  672POPI   C3A10361   9.607   4.567   7.922 -0.1502  0.0371  0.0551
  672POPI   C4A10362   9.768   4.540   8.390  0.0030  0.1423 -0.0715
  672POPI   C1B10363   8.882   4.977   7.514  0.1565 -0.0095 -0.1070
  672POPI   C2B10364   8.944   4.822   7.850  0.0758  0.1865  0.0110
  672POPI   C3B10365   8.786   4.718   8.212 -0.1007  0.0465  0.1937
  672POPI   C4B10366   8.857   4.688   8.578  0.0374 -0.0465 -0.3769
  673POPI    C110367   2.180   7.568   5.562 -0.0211  0.1779  0.1803
  673POPI    C210368   1.933   7.728   5.833 -0.0752  0.0160  0.2274
  673POPI    C310369   1.920   7.852   5.453 -0.2628 -0.0244  0.2197
  673POPI   PO410370   2.376   7.449   5.761  0.1262 -0.2592  0.2875
  673POPI   GL110371   2.177   7.396   6.137 -0.0532  0.0889  0.1077
  673POPI   GL210372   2.014   7.544   6.378  0.0946  0.1618  0.0433
  673POPI   C1A10373   2.349   7.246   6.558 -0.0560  0.2276  0.1605
  673POPI   D2A10374   2.560   7.167   6.951  0.0612  0.2095  0.0571
  673POPI   C3A10375   2.902   7.337   7.126  0.1214 -0.2895  0.4934
  673POPI   C4A10376   3.170   7.611   7.371  0.2147  0.0689  0.1182
  673POPI   C1B10377   1.998   7.468   6.823 -0.0618  0.2854 -0.1795
  673POPI   C2B10378   2.196   7.512   7.246  0.0341  0.1247  0.2544
  673POPI   C3B10379   2.228   7.677   7.650  0.1069  0.1680 -0.1229
  673POPI   C4B10380   2.180   7.473   8.080  0.1957  0.0725  0.0716
  674POPI    C110381  13.301  16.267   5.959  0.1240 -0.1664 -0.0074
  674POPI    C210382  13.026  16.029   6.125  0.1263 -0.1325  0.0449
  674POPI    C310383  13.083  16.023   5.729 -0.0655 -0.0194  0.0142
  674POPI   PO410384  13.239  16.500   6.079 -0.1690 -0.2608 -0.0813
  674POPI   GL110385  13.097  16.443   6.478 -0.2992 -0.1598  0.1885
  674POPI   GL210386  13.002  16.737   6.411  0.0733 -0.1552 -0.2421
  674POPI   C1A10387  12.935  16.372   6.840 -0.1236  0.3775 -0.0273
  674POPI   D2A10388  12.785  16.379   7.207  0.0982 -0.1479  0.2344
  674POPI   C3A10389  13.063  16.348   7.529  0.1005  0.2187 -0.1990
  674POPI   C4A10390  13.014  16.329   7.918  0.1305  0.1956  0.1545
  674POPI   C1B10391  12.810  16.853   6.829  0.1591  0.1985  0.0237
  674POPI   C2B10392  12.488  17.091   6.898  0.3407  0.2593  0.0337
  674POPI   C3B10393  12.089  17.163   7.161 -0.3337 -0.1983 -0.1101
  674POPI   C4B10394  11.655  17.215   7.152 -0.0765 -0.0394  0.1022
  675POPI    C110395   5.717   6.553   5.533 -0.1064  0.0150  0.2122
  675POPI    C210396   5.892   6.230   5.375 -0.0871 -0.0296  0.3240
  675POPI    C310397   6.052   6.592   5.318 -0.0326 -0.0553  0.3134
  675POPI   PO410398   5.567   6.398   5.713  0.0507 -0.0877  0.0928
  675POPI   GL110399   5.181   6.548   6.056  0.0192  0.2158  0.1947
  675POPI   GL210400   5.452   6.598   6.232  0.0546  0.2740 -0.1799
  675POPI   C1A10401   5.018   6.740   6.422  0.2224 -0.0792 -0.0324
  675POPI   D2A10402   5.171   7.182   6.588  0.1415 -0.0870  0.2422
  675POPI   C3A10403   5.012   7.424   6.938  0.3760  0.3094  0.2106
  675POPI   C4A10404   4.943   7.592   7.394  0.2362  0.1342  0.0854
  675POPI   C1B10405   5.532   6.324   6.554  0.2310  0.0723 -0.0415
  675POPI   C2B10406   5.660   6.472   6.937 -0.3258 -0.3194 -0.1301
  675POPI   C3B10407   5.717   6.695   7.299 -0.0164  0.3317  0.2050
  675POPI   C4B10408   5.753   6.860   7.802 -0.0559  0.0001  0.0598
  676POPI    C110409   3.862  11.075   6.153 -0.1899 -0.0706  0.2299
  676POPI    C210410   3.690  10.853   5.868 -0.0486 -0.1929  0.2385
  676POPI    C310411   3.519  11.195   5.986 -0.1385 -0.1714  0.0494
  676POPI   PO410412   4.138  11.133   6.099  0.0413  0.0960 -0.0696
  676POPI   GL110413   4.395  11.027   6.379 -0.1463 -0.0578 -0.1352
  676POPI   GL210414   4.110  11.268   6.557  0.1431  0.1917 -0.0656
  676POPI   C1A10415   4.420  10.912   6.865 -0.1404 -0.3298 -0.2278
  676POPI   D2A10416   4.531  10.780   7.359  0.2021 -0.1163 -0.1046
  676POPI   C3A10417   4.818  10.919   7.578  0.1127  0.1175 -0.2958
  676POPI   C4A10418   5.026  11.303   7.564  0.0547 -0.1957  0.0413
  676POPI   C1B10419   4.017  11.157   6.959  0.1364  0.1304 -0.0578
  676POPI   C2B10420   4.115  11.035   7.333 -0.1563 -0.0510  0.0345
  676POPI   C3B10421   4.300  11.127   7.676  0.1378 -0.0839  0.1287
  676POPI   C4B10422   4.217  11.031   8.128  0.2430  0.0552 -0.1165
  677POPI    C110423   6.459   0.255   5.932  0.0280 -0.2531 -0.0556
  677POPI    C210424   6.351   0.609   5.782  0.2824 -0.0402  0.2509
  677POPI    C310425   6.549   0.347   5.553 -0.2820 -0.1678 -0.1111
  677POPI   PO410426   6.564   0.284   6.149 -0.1135 -0.0760  0.1212
  677POPI   GL110427   6.903   0.432   6.443 -0.3749  0.0820  0.0542
  677POPI   GL210428   7.109   0.183   6.547  0.0580 -0.0845  0.1107
  677POPI   C1A10429   6.642   0.606   6.804  0.1348 -0.1356 -0.2427
  677POPI   D2A10430   6.633   0.737   7.230 -0.0813 -0.2400  0.1186
  677POPI   C3A10431   6.698   0.433   7.569  0.1890  0.0483  0.0581
  677POPI   C4A10432   6.768   0.464   8.089  0.1933  0.2174 -0.0860
  677POPI   C1B10433   7.268   0.076   7.017  0.2428  0.4794 -0.1536
  677POPI   C2B10434   7.221   0.084   7.463 -0.1202  0.0719  0.0842
  677POPI   C3B10435   7.235  -0.015   7.929  0.2509 -0.1770 -0.0487
  677POPI   C4B10436   7.127  -0.099   8.377 -0.0123  0.0670 -0.2144
  678POPI    C110437   7.633   9.983   6.166  0.1796 -0.0420 -0.1085
  678POPI    C210438   7.584  10.361   6.043 -0.0319 -0.0597 -0.0836
  678POPI    C310439   7.906  10.260   6.259  0.0708  0.0862 -0.1670
  678POPI   PO410440   7.504   9.966   6.350 -0.1036  0.1690 -0.2072
  678POPI   GL110441   7.699  10.048   6.832  0.1907  0.0721 -0.0690
  678POPI   GL210442   7.324   9.967   6.887  0.2410  0.1456 -0.0253
  678POPI   C1A10443   7.906  10.119   7.209 -0.0769 -0.1105  0.1108
  678POPI   D2A10444   7.870  10.161   7.642  0.1312 -0.0814 -0.1183
  678POPI   C3A10445   7.741  10.166   8.059 -0.1110 -0.0041  0.2643
  678POPI   C4A10446   7.726   9.892   8.544 -0.2895 -0.0401 -0.0467
  678POPI   C1B10447   7.396   9.920   7.319  0.1658 -0.2851  0.0341
  678POPI   C2B10448   7.440   9.908   7.788  0.0092 -0.2846 -0.0627
  678POPI   C3B10449   7.582   9.697   8.043 -0.0935 -0.1314  0.0186
  678POPI   C4B10450   7.530   9.402   8.340  0.1214 -0.1691  0.0314
  679POPI    C110451   2.400   0.507   6.225 -0.2684 -0.0418 -0.0594
  679POPI    C210452   2.255   0.634   5.875 -0.1742 -0.1476 -0.1376
  679POPI    C310453   2.648   0.577   5.919 -0.1646  0.0479  0.0440
  679POPI   PO410454   2.382   0.671   6.399  0.1228  0.0212 -0.0996
  679POPI   GL110455   2.530   0.820   6.720  0.1886 -0.0507 -0.1304
  679POPI   GL210456   2.760   0.645   6.755  0.1535  0.0927 -0.1056
  679POPI   C1A10457   2.745   1.101   7.062 -0.0613  0.3916 -0.1178
  679POPI   D2A10458   2.833   1.212   7.510  0.1124 -0.3504  0.0780
  679POPI   C3A10459   2.669   1.267   7.841  0.2096 -0.0633 -0.0277
  679POPI   C4A10460   2.600   1.537   8.070 -0.0944 -0.1093 -0.1030
  679POPI   C1B10461   2.666   0.557   7.173 -0.2546  0.0736  0.0413
  679POPI   C2B10462   2.464   0.820   7.450  0.4001 -0.3046  0.0589
  679POPI   C3B10463   2.231   1.039   7.788 -0.2804  0.0786 -0.0190
  679POPI   C4B10464   1.886   1.049   8.170  0.4062  0.1191  0.0462
  680POPI    C110465  14.908   2.808   6.044 -0.0740  0.0445  0.1478
  680POPI    C210466  14.668   3.079   6.213 -0.1585 -0.0112  0.1172
  680POPI    C310467  14.707   3.067   5.815  0.0771  0.1506  0.1331
  680POPI   PO410468  15.064   2.745   6.271 -0.0180  0.3331  0.2701
  680POPI   GL110469  14.925   3.100   6.613  0.0564 -0.0678  0.0491
  680POPI   GL210470  14.918   2.837   6.718 -0.0401 -0.0016 -0.0576
  680POPI   C1A10471  14.862   3.308   7.002  0.1474  0.1197 -0.0861
  680POPI   D2A10472  15.045   3.532   7.426 -0.1043  0.2050  0.2811
  680POPI   C3A10473  14.986   3.754   7.746  0.0312  0.0961 -0.2285
  680POPI   C4A10474  14.877   3.941   8.050  0.1209 -0.1204 -0.0328
  680POPI   C1B10475  14.917   2.714   7.135 -0.0462 -0.0280  0.2888
  680POPI   C2B10476  14.899   2.949   7.430 -0.1153  0.2739 -0.1104
  680POPI   C3B10477  14.815   3.215   7.717  0.2569 -0.0616 -0.0551
  680POPI   C4B10478  15.220   3.347   7.951 -0.4437  0.1010  0.0531
  681POPI    C110479   8.869   2.775   6.218 -0.1456 -0.0606  0.1359
  681POPI    C210480   9.082   2.613   5.921 -0.0489  0.2514  0.0314
  681POPI    C310481   8.888   2.377   6.179  0.1308 -0.0290 -0.0846
  681POPI   PO410482   9.087   3.066   6.303  0.1535 -0.0759  0.5051
  681POPI   GL110483   9.194   3.262   6.692  0.2785  0.1466  0.1503
  681POPI   GL210484   9.164   3.619   6.813  0.2609  0.1636  0.2894
  681POPI   C1A10485   9.277   2.910   6.992  0.2327  0.0180  0.0762
  681POPI   D2A10486   9.285   2.576   7.410  0.0748 -0.0032  0.2521
  681POPI   C3A10487   9.490   2.568   7.795  0.2592 -0.0566  0.2348
  681POPI   C4A10488   9.521   2.349   8.145 -0.1271 -0.4408 -0.1656
  681POPI   C1B10489   9.011   3.682   7.159 -0.1472 -0.2291 -0.2297
  681POPI   C2B10490   8.928   3.531   7.625  0.1984  0.1355  0.0195
  681POPI   C3B10491   8.650   3.274   7.892  0.0606 -0.3164 -0.0630
  681POPI   C4B10492   8.477   2.985   8.150 -0.0415  0.1746 -0.1238
  682POPI    C110493   4.977   9.460   5.700  0.1842  0.1639 -0.1013
  682POPI    C210494   5.149   9.104   5.637  0.0408  0.0997 -0.1334
  682POPI    C310495   4.953   9.288   5.340 -0.2228  0.0212 -0.0113
  682POPI   PO410496   4.766   9.390   5.938  0.3662  0.1059 -0.2684
  682POPI   GL110497   4.707   9.404   6.285 -0.0967 -0.0061 -0.0530
  682POPI   GL210498   4.843   9.685   6.391 -0.0338 -0.0044 -0.2508
  682POPI   C1A10499   4.556   9.386   6.699  0.2350 -0.0580 -0.3896
  682POPI   D2A10500   4.516   9.290   7.083 -0.1713 -0.1925 -0.2683
  682POPI   C3A10501   4.404   9.096   7.389 -0.3559  0.0521 -0.2182
  682POPI   C4A10502   4.350   9.081   7.781  0.3532  0.0684 -0.0708
  682POPI   C1B10503   5.009   9.639   6.789  0.0243  0.2106  0.1298
  682POPI   C2B10504   4.955   9.480   7.224  0.0348  0.2909 -0.1979
  682POPI   C3B10505   5.017   9.236   7.553 -0.2594 -0.0412 -0.4589
  682POPI   C4B10506   5.346   8.917   7.681  0.2887 -0.2874 -0.0282
  683POPI    C110507   3.100  17.271   6.229 -0.0583  0.0904  0.3427
  683POPI    C210508   3.073  17.668   6.192 -0.3981  0.0526  0.1314
  683POPI    C310509   2.882  17.430   5.933 -0.0169 -0.2525  0.1212
  683POPI   PO410510   3.311  17.253   6.406  0.2707  0.0361 -0.1014
  683POPI   GL110511   3.595  17.073   6.587  0.3382  0.0940  0.0408
  683POPI   GL210512   3.604  16.747   6.504 -0.0014 -0.0717  0.0899
  683POPI   C1A10513   3.393  17.240   7.048  0.4525 -0.1637  0.1036
  683POPI   D2A10514   3.281  17.308   7.440 -0.4123 -0.2559 -0.2048
  683POPI   C3A10515   3.468  17.063   7.700 -0.0719  0.2115  0.3418
  683POPI   C4A10516   3.513  16.646   7.876 -0.2086  0.4024  0.2190
  683POPI   C1B10517   3.590  16.650   6.887 -0.4008  0.0944 -0.0594
  683POPI   C2B10518   3.596  16.550   7.306 -0.0967 -0.1297  0.1567
  683POPI   C3B10519   3.577  16.250   7.578  0.0936  0.0219  0.2655
  683POPI   C4B10520   3.791  16.202   7.880 -0.1922  0.1809  0.0011
  684POPI    C110521  10.218   2.456   5.911  0.1972  0.2483  0.1174
  684POPI    C210522  10.081   2.427   5.537  0.1673 -0.0659  0.1503
  684POPI    C310523  10.172   2.786   5.689  0.0739  0.0747 -0.1185
  684POPI   PO410524  10.068   2.192   6.067  0.0669 -0.0106 -0.1347
  684POPI   GL110525   9.836   1.959   6.450 -0.0155  0.1717 -0.2556
  684POPI   GL210526   9.557   1.698   6.450  0.0136  0.2846  0.0808
  684POPI   C1A10527   9.949   2.224   6.807 -0.0571  0.1511 -0.1720
  684POPI   D2A10528   9.952   2.517   7.268  0.2716 -0.3480  0.0674
  684POPI   C3A10529   9.884   2.273   7.616 -0.3174  0.1443 -0.2003
  684POPI   C4A10530   9.770   1.937   7.885  0.0134  0.1616 -0.2087
  684POPI   C1B10531   9.509   1.884   6.837 -0.3016 -0.1455 -0.2566
  684POPI   C2B10532   9.530   2.039   7.246 -0.1611 -0.0681 -0.0464
  684POPI   C3B10533   9.352   2.043   7.661 -0.2886 -0.1315 -0.0593
  684POPI   C4B10534   9.295   1.813   7.968  0.2009 -0.1168 -0.0157
  685POPI    C110535   5.463  12.051   5.984  0.1795 -0.3657  0.0544
  685POPI    C210536   5.281  11.781   5.752  0.0334 -0.0967 -0.1497
  685POPI    C310537   5.599  11.981   5.614  0.1018 -0.1176 -0.0231
  685POPI   PO410538   5.438  11.905   6.212 -0.3534  0.2622  0.2489
  685POPI   GL110539   5.279  11.980   6.604 -0.1095  0.0055 -0.1744
  685POPI   GL210540   5.463  11.806   6.770 -0.0501  0.0118 -0.1733
  685POPI   C1A10541   4.988  12.122   6.922  0.1332 -0.2098  0.3750
  685POPI   D2A10542   4.529  12.397   7.003 -0.0440  0.1570  0.1521
  685POPI   C3A10543   4.395  12.503   7.383  0.0828  0.1418  0.0384
  685POPI   C4A10544   4.381  12.673   7.739 -0.0797  0.0228 -0.1725
  685POPI   C1B10545   5.475  12.066   7.180 -0.2237 -0.0875  0.2462
  685POPI   C2B10546   5.319  12.102   7.595 -0.0996 -0.0668 -0.1504
  685POPI   C3B10547   5.449  12.330   7.947  0.0687  0.3397 -0.4016
  685POPI   C4B10548   5.565  12.612   8.269 -0.2689  0.3920  0.1352
  686POPI    C110549   8.301  16.265   6.101  0.1893 -0.0210 -0.1842
  686POPI    C210550   7.967  16.463   6.199 -0.0234 -0.4763  0.0389
  686POPI    C310551   8.189  16.585   5.889 -0.1457  0.1029  0.1693
  686POPI   PO410552   8.373  16.252   6.330  0.1523 -0.0981  0.0997
  686POPI   GL110553   8.788  16.437   6.550 -0.0447 -0.0707  0.1796
  686POPI   GL210554   9.079  16.313   6.525  0.0154  0.0800 -0.1066
  686POPI   C1A10555   8.477  16.320   6.957 -0.3027 -0.0255 -0.0543
  686POPI   D2A10556   8.495  16.366   7.257 -0.0568  0.1852 -0.3460
  686POPI   C3A10557   8.558  16.741   7.497  0.0417 -0.0133 -0.1334
  686POPI   C4A10558   8.788  16.821   7.912  0.2316 -0.3779 -0.3019
  686POPI   C1B10559   8.956  16.155   6.979 -0.1225 -0.2534 -0.0107
  686POPI   C2B10560   8.987  16.335   7.388 -0.1329  0.1024  0.1401
  686POPI   C3B10561   8.770  16.352   7.732  0.2010 -0.0074 -0.0660
  686POPI   C4B10562   8.373  16.459   7.899 -0.0720  0.0996 -0.0121
  687POPI    C110563   9.923  10.451   6.116  0.1396  0.1893 -0.1303
  687POPI    C210564   9.865  10.825   5.987  0.3186  0.1707 -0.2683
  687POPI    C310565   9.944  10.533   5.725  0.0270  0.0052 -0.1762
  687POPI   PO410566  10.146  10.473   6.409  0.0031 -0.1242  0.0273
  687POPI   GL110567  10.082  10.555   6.833  0.1108  0.0750 -0.1021
  687POPI   GL210568  10.261  10.277   6.916  0.2201 -0.1317 -0.2137
  687POPI   C1A10569  10.125  10.656   7.261 -0.0411 -0.2083 -0.1782
  687POPI   D2A10570  10.098  10.989   7.453  0.0832 -0.2635  0.2840
  687POPI   C3A10571  10.163  10.931   7.868 -0.2460  0.1802 -0.1549
  687POPI   C4A10572  10.082  10.860   8.296  0.2419 -0.0948 -0.0111
  687POPI   C1B10573  10.231  10.187   7.390 -0.0122  0.0859  0.5037
  687POPI   C2B10574  10.027  10.463   7.721  0.1949  0.0838 -0.3274
  687POPI   C3B10575   9.878  10.372   8.106  0.2226 -0.1600 -0.0266
  687POPI   C4B10576   9.801  10.407   8.458 -0.0714 -0.0458 -0.1940
  688POPI    C110577  17.249  16.373   6.181  0.2120 -0.0679 -0.2221
  688POPI    C210578  16.895  16.217   6.079  0.1989 -0.1319 -0.0796
  688POPI    C310579  16.999  16.579   5.945  0.1605 -0.1933 -0.2777
  688POPI   PO410580  17.256  16.326   6.440 -0.0370  0.2143  0.1853
  688POPI   GL110581  17.543  16.614   6.719 -0.1123  0.1568 -0.0124
  688POPI   GL210582  17.215  16.644   6.836  0.0994 -0.1969  0.2737
  688POPI   C1A10583  17.442  16.235   7.090 -0.1180  0.0894 -0.3202
  688POPI   D2A10584  17.468  16.260   7.480  0.2357 -0.0281 -0.0169
  688POPI   C3A10585  17.345  16.605   7.724 -0.0847 -0.0734 -0.1298
  688POPI   C4A10586  17.361  16.647   8.150 -0.1211  0.2396  0.1714
  688POPI   C1B10587  17.192  16.726   7.241  0.2104  0.0188  0.1079
  688POPI   C2B10588  17.284  17.080   7.484  0.0107  0.0912  0.2098
  688POPI   C3B10589  17.429  17.112   7.822  0.2479 -0.0416  0.1493
  688POPI   C4B10590  17.219  17.425   8.096 -0.0805  0.0592 -0.0450
  689POPI    C110591   4.773   4.334   5.867  0.0216  0.3454  0.0559
  689POPI    C210592   4.887   4.213   5.504  0.1672  0.1854  0.1533
  689POPI    C310593   4.509   4.161   5.621  0.1704  0.0443  0.1030
  689POPI   PO410594   4.903   4.181   6.108  0.4435  0.1517  0.0186
  689POPI   GL110595   4.816   4.258   6.450 -0.0461  0.1852  0.1916
  689POPI   GL210596   5.036   4.114   6.612 -0.2027 -0.0180 -0.1135
  689POPI   C1A10597   4.514   4.361   6.775  0.0255  0.1917  0.0446
  689POPI   D2A10598   4.151   4.469   6.979 -0.0770  0.3462  0.1156
  689POPI   C3A10599   4.240   4.576   7.433 -0.0697 -0.0832  0.2206
  689POPI   C4A10600   3.963   4.822   7.799 -0.1204 -0.3522  0.0921
  689POPI   C1B10601   5.122   4.007   7.020 -0.1306  0.0289 -0.0327
  689POPI   C2B10602   5.168   4.022   7.355 -0.3915  0.2026 -0.1547
  689POPI   C3B10603   4.990   4.012   7.749  0.0408  0.5697 -0.2394
  689POPI   C4B10604   5.101   3.919   8.190  0.2410 -0.3032 -0.3703
  690POPI    C110605   4.060   2.015   5.380 -0.0215 -0.0975  0.0431
  690POPI    C210606   4.201   2.367   5.255 -0.1588 -0.1269 -0.2005
  690POPI    C310607   3.812   2.325   5.334 -0.0962 -0.1476  0.1070
  690POPI   PO410608   4.243   1.911   5.625 -0.3750 -0.2589  0.0876
  690POPI   GL110609   4.496   2.120   6.067  0.0775  0.3932  0.0778
  690POPI   GL210610   4.189   1.903   6.205 -0.2189 -0.1316 -0.2714
  690POPI   C1A10611   4.658   1.740   6.149 -0.2250 -0.0790  0.1068
  690POPI   D2A10612   4.493   1.377   6.272 -0.3580  0.0977  0.0893
  690POPI   C3A10613   4.685   0.970   6.283 -0.3100  0.0267 -0.3016
  690POPI   C4A10614   4.946   0.533   6.448 -0.1034 -0.0732  0.0103
  690POPI   C1B10615   4.377   1.765   6.590  0.3816 -0.2425 -0.2187
  690POPI   C2B10616   4.604   1.689   7.058  0.1856 -0.1979  0.4020
  690POPI   C3B10617   4.666   1.575   7.478  0.0237  0.1705  0.0911
  690POPI   C4B10618   4.514   1.746   7.906  0.0876  0.0624  0.3250
  691POPI    C110619   9.592  16.769   6.030 -0.0527  0.4509 -0.4228
  691POPI    C210620   9.966  16.708   5.899  0.0111  0.1822 -0.1287
  691POPI    C310621   9.660  16.515   5.729  0.0363  0.2035 -0.1984
  691POPI   PO410622   9.695  16.695   6.329 -0.0380 -0.1797  0.3005
  691POPI   GL110623   9.583  16.574   6.686 -0.2940 -0.2636  0.1685
  691POPI   GL210624   9.832  16.385   6.733 -0.3170  0.1731 -0.0596
  691POPI   C1A10625   9.296  16.574   6.985 -0.1587  0.0251  0.1010
  691POPI   D2A10626   8.894  16.659   6.983 -0.0905  0.2475 -0.1992
  691POPI   C3A10627   8.806  16.965   7.132  0.0106 -0.1290  0.5339
  691POPI   C4A10628   8.522  17.133   7.105  0.1442 -0.0466  0.1290
  691POPI   C1B10629   9.857  16.490   7.162 -0.1252  0.2946  0.1203
  691POPI   C2B10630   9.540  16.652   7.531  0.2759  0.0170 -0.1016
  691POPI   C3B10631   9.317  16.665   7.924  0.2574  0.1903  0.1728
  691POPI   C4B10632   9.178  16.509   8.307 -0.2092  0.1383  0.0516
  692POPI    C110633   0.687  17.389   6.355  0.0564  0.0004  0.0008
  692POPI    C210634   0.596  17.065   6.571  0.0803 -0.1685 -0.2395
  692POPI    C310635   0.858  17.038   6.270  0.2343  0.1182 -0.1348
  692POPI   PO410636   0.651  17.610   6.612 -0.2911  0.3314 -0.2696
  692POPI   GL110637   0.727  17.476   6.999 -0.1277 -0.6021  0.1437
  692POPI   GL210638   0.530  17.131   7.080 -0.0075  0.4066  0.0103
  692POPI   C1A10639   0.714  17.501   7.414 -0.1440  0.0629  0.2561
  692POPI   D2A10640   0.791  17.594   7.849 -0.1486 -0.0252 -0.1122
  692POPI   C3A10641   0.650  17.873   8.175 -0.0251  0.1816  0.1540
  692POPI   C4A10642   0.454  18.138   8.494  0.3778  0.2204  0.1067
  692POPI   C1B10643   0.435  17.064   7.459 -0.1448  0.2561  0.0940
  692POPI   C2B10644   0.435  16.786   7.773  0.0501  0.2054  0.0722
  692POPI   C3B10645   0.339  16.404   8.051  0.1387 -0.2969  0.2303
  692POPI   C4B10646   0.480  16.139   8.329 -0.3005 -0.0005 -0.0324
  693POPI    C110647   5.054   5.444   6.110 -0.1754 -0.1430  0.2234
  693POPI    C210648   4.696   5.532   5.955  0.0431  0.2556 -0.0772
  693POPI    C310649   4.984   5.385   5.720  0.0784 -0.0749  0.1653
  693POPI   PO410650   5.169   5.691   6.151  0.0151 -0.1026 -0.2096
  693POPI   GL110651   5.263   5.817   6.515  0.0433  0.3352 -0.1342
  693POPI   GL210652   5.473   5.541   6.625 -0.0400 -0.0870  0.2768
  693POPI   C1A10653   5.445   5.929   6.869  0.0167 -0.0367 -0.0433
  693POPI   D2A10654   5.545   6.092   7.343 -0.2736 -0.2917  0.0599
  693POPI   C3A10655   5.391   6.055   7.652 -0.1942 -0.1406  0.1641
  693POPI   C4A10656   5.053   6.238   7.957  0.0332 -0.0989  0.1819
  693POPI   C1B10657   5.530   5.417   7.008 -0.1108 -0.1380 -0.1062
  693POPI   C2B10658   5.450   5.554   7.362  0.3634 -0.0177 -0.1569
  693POPI   C3B10659   5.241   5.423   7.782  0.2725  0.0126  0.0460
  693POPI   C4B10660   5.149   5.707   8.142  0.0194 -0.0647  0.4123
  694POPI    C110661  12.556   8.908   6.004 -0.0215  0.0794 -0.2682
  694POPI    C210662  12.719   8.764   5.669  0.2574  0.2289 -0.1995
  694POPI    C310663  12.926   9.017   5.900  0.0777  0.1089  0.0995
  694POPI   PO410664  12.513   8.668   6.201 -0.0051 -0.1725  0.2068
  694POPI   GL110665  12.514   8.783   6.604  0.0763  0.0158 -0.2565
  694POPI   GL210666  12.413   8.460   6.673  0.0929 -0.1064 -0.1334
  694POPI   C1A10667  12.536   9.196   6.859  0.1694  0.0158  0.0197
  694POPI   D2A10668  12.708   9.547   7.108 -0.0645 -0.0168  0.1329
  694POPI   C3A10669  13.112   9.555   7.423  0.0594 -0.0234 -0.1694
  694POPI   C4A10670  13.083   9.503   7.934 -0.0113 -0.1596  0.2707
  694POPI   C1B10671  12.486   8.344   7.046  0.2551  0.4479 -0.0783
  694POPI   C2B10672  12.514   8.300   7.417  0.0942 -0.0342  0.2311
  694POPI   C3B10673  12.627   8.305   7.765 -0.3974 -0.2056  0.0491
  694POPI   C4B10674  12.701   8.473   8.250 -0.2866 -0.0460 -0.1565
  695POPI    C110675  10.414   1.772   5.940 -0.1812  0.0372 -0.0220
  695POPI    C210676  10.679   1.785   5.641  0.0268 -0.1058  0.1533
  695POPI    C310677  10.382   2.053   5.656  0.1291  0.0237 -0.0735
  695POPI   PO410678  10.499   1.484   5.963  0.2089  0.3121  0.0296
  695POPI   GL110679  10.754   1.277   6.246  0.2213 -0.4153 -0.1360
  695POPI   GL210680  11.039   1.471   6.363  0.3529 -0.2669 -0.1586
  695POPI   C1A10681  10.570   1.491   6.596  0.1684 -0.4033  0.0629
  695POPI   D2A10682  10.394   1.394   6.950 -0.0879  0.1134 -0.1605
  695POPI   C3A10683  10.081   1.281   7.169  0.3569  0.0636 -0.0226
  695POPI   C4A10684  10.138   1.247   7.567  0.1102  0.0646  0.2503
  695POPI   C1B10685  11.084   1.405   6.890 -0.0023 -0.2911 -0.2106
  695POPI   C2B10686  11.347   1.252   7.275  0.1989  0.2446 -0.1672
  695POPI   C3B10687  11.290   1.223   7.693 -0.2412  0.0737 -0.2429
  695POPI   C4B10688  11.265   1.496   8.011  0.0677  0.0474  0.2211
  696POPI    C110689   3.953  17.620   5.857 -0.0398  0.0777  0.1248
  696POPI    C210690   4.134  17.906   5.643 -0.0301 -0.2806 -0.3621
  696POPI    C310691   3.734  17.890   5.658 -0.0314 -0.0802 -0.1016
  696POPI   PO410692   4.248  17.634   6.123  0.3219 -0.0787 -0.0123
  696POPI   GL110693   4.357  17.869   6.555 -0.0537 -0.1123  0.1560
  696POPI   GL210694   4.699  17.906   6.348  0.2751  0.0460 -0.4012
  696POPI   C1A10695   4.272  17.954   7.021 -0.0993 -0.2443  0.0445
  696POPI   D2A10696   4.251  17.949   7.507  0.0082  0.1451  0.0028
  696POPI   C3A10697   4.403  18.139   7.775 -0.0995 -0.0166 -0.2926
  696POPI   C4A10698   4.626  18.173   8.042 -0.2653  0.2492  0.1259
  696POPI   C1B10699   4.852  17.654   6.660 -0.0124  0.1982  0.1440
  696POPI   C2B10700   4.806  17.837   7.009  0.0099  0.3241 -0.1001
  696POPI   C3B10701   4.707  17.855   7.414 -0.0190 -0.3817 -0.0503
  696POPI   C4B10702   4.858  18.089   7.526  0.0734 -0.1774  0.4212
  697POPI    C110703  16.513   6.313   5.540  0.0667  0.1693  0.2946
  697POPI    C210704  16.200   6.546   5.628  0.0227  0.1737  0.1295
  697POPI    C310705  16.340   6.531   5.253  0.1245  0.0550  0.1714
  697POPI   PO410706  16.744   6.386   5.782  0.2450 -0.2682  0.0915
  697POPI   GL110707  16.788   6.282   6.218  0.0757  0.0732  0.0554
  697POPI   GL210708  16.776   5.907   6.302  0.2438  0.4169  0.2179
  697POPI   C1A10709  16.920   6.292   6.650 -0.2561  0.0786 -0.1193
  697POPI   D2A10710  17.067   6.276   7.085 -0.0803  0.0805  0.1341
  697POPI   C3A10711  17.287   6.061   7.433 -0.0366 -0.0102 -0.1715
  697POPI   C4A10712  17.614   6.192   7.713  0.1294 -0.0120 -0.1283
  697POPI   C1B10713  16.686   5.822   6.665  0.0451  0.0318 -0.1187
  697POPI   C2B10714  16.740   5.912   7.005 -0.0525 -0.3050  0.0914
  697POPI   C3B10715  16.855   5.898   7.312 -0.1370 -0.3974 -0.0032
  697POPI   C4B10716  16.959   5.849   7.789  0.1576  0.0242  0.3038
  698POPI    C110717   4.397   4.627   5.773  0.1597 -0.1930  0.1340
  698POPI    C210718   4.200   4.506   5.447  0.0081 -0.2409  0.2426
  698POPI    C310719   4.589   4.596   5.423 -0.0605  0.0025 -0.0067
  698POPI   PO410720   4.182   4.769   5.872  0.2577 -0.2097  0.1913
  698POPI   GL110721   4.194   4.730   6.310  0.0376  0.2236 -0.4396
  698POPI   GL210722   4.359   4.867   6.643 -0.1923 -0.1365 -0.0335
  698POPI   C1A10723   4.023   4.321   6.455 -0.0476  0.0804 -0.0541
  698POPI   D2A10724   3.692   4.106   6.627 -0.0533  0.1396 -0.0459
  698POPI   C3A10725   3.652   4.295   7.034  0.0814  0.0304  0.0485
  698POPI   C4A10726   3.665   4.448   7.455  0.1034  0.0321  0.2503
  698POPI   C1B10727   4.399   4.872   7.051 -0.0669 -0.1569  0.2427
  698POPI   C2B10728   4.488   5.041   7.442  0.2156 -0.1677  0.2736
  698POPI   C3B10729   4.390   5.222   7.807 -0.0144  0.0758  0.1868
  698POPI   C4B10730   4.218   5.128   8.240  0.0344 -0.1066 -0.0247
  699POPI    C110731  13.236  15.570   6.294  0.1537 -0.1497 -0.1282
  699POPI    C210732  13.359  15.708   5.940 -0.0273 -0.0239 -0.1434
  699POPI    C310733  13.011  15.513   5.969 -0.1375  0.1900  0.0058
  699POPI   PO410734  13.505  15.447   6.360 -0.0797  0.1070 -0.0062
  699POPI   GL110735  13.887  15.414   6.564  0.0845 -0.0048  0.2431
  699POPI   GL210736  13.986  15.179   6.737 -0.4494 -0.2253  0.1301
  699POPI   C1A10737  13.832  15.720   6.975  0.0089 -0.0602 -0.0801
  699POPI   D2A10738  13.617  15.891   7.352  0.1554 -0.2736  0.0544
  699POPI   C3A10739  13.290  15.891   7.630 -0.2406 -0.0433 -0.0788
  699POPI   C4A10740  13.348  15.938   8.131 -0.1163  0.2742 -0.0222
  699POPI   C1B10741  13.914  15.288   7.224 -0.0948 -0.1294  0.0285
  699POPI   C2B10742  13.811  15.461   7.612 -0.1827  0.0381 -0.2363
  699POPI   C3B10743  13.631  15.538   7.970  0.1454 -0.3042  0.1498
  699POPI   C4B10744  13.710  15.387   8.522  0.1876 -0.1531  0.1766
  700POPI    C110745  15.475  15.885   5.979 -0.0675 -0.3036 -0.3275
  700POPI    C210746  15.856  15.862   5.861  0.0556 -0.1663  0.0290
  700POPI    C310747  15.667  16.214   5.855  0.1216 -0.1199  0.4002
  700POPI   PO410748  15.497  15.714   6.223 -0.0531 -0.0089  0.0366
  700POPI   GL110749  15.627  15.323   6.493  0.2009 -0.3088 -0.1306
  700POPI   GL210750  15.552  15.093   6.577 -0.0674 -0.3781 -0.1077
  700POPI   C1A10751  15.807  15.389   6.824 -0.1291  0.2333 -0.0910
  700POPI   D2A10752  16.253  15.377   7.139  0.1443 -0.0077  0.3321
  700POPI   C3A10753  16.256  15.396   7.541 -0.2323  0.1801 -0.3136
  700POPI   C4A10754  16.062  14.997   7.699 -0.1041  0.0727  0.1181
  700POPI   C1B10755  15.460  15.099   7.051 -0.0797  0.3584  0.1347
  700POPI   C2B10756  15.260  14.952   7.482 -0.1115  0.2287 -0.0260
  700POPI   C3B10757  14.986  15.137   7.819 -0.0482 -0.2512  0.0017
  700POPI   C4B10758  15.083  15.356   8.196  0.2400 -0.1138  0.0132
  701POPS   CNO10759  13.267   1.316   5.539  0.1649 -0.1075  0.1761
  701POPS   PO410760  13.452   1.394   5.954 -0.0941 -0.1524  0.2376
  701POPS   GL110761  13.254   1.182   6.179 -0.0826 -0.1835  0.2160
  701POPS   GL210762  12.899   1.302   6.156 -0.2192  0.0457  0.0961
  701POPS   C1A10763  13.275   1.164   6.628  0.1097  0.0002  0.0190
  701POPS   D2A10764  13.284   1.003   6.981 -0.0486 -0.0889 -0.0302
  701POPS   C3A10765  13.552   0.924   7.208  0.0937 -0.0237  0.1594
  701POPS   C4A10766  13.630   1.245   7.536 -0.1420  0.1398  0.0573
  701POPS   C1B10767  12.767   1.165   6.647  0.0982 -0.3816 -0.3188
  701POPS   C2B10768  12.887   1.330   7.015 -0.0384  0.0599  0.2020
  701POPS   C3B10769  13.028   1.245   7.360  0.3993 -0.0584  0.0429
  701POPS   C4B10770  12.733   1.006   7.650  0.0013 -0.0148 -0.0434
  702POPS   CNO10771   1.613   8.982   5.941 -0.0715  0.0415  0.1224
  702POPS   PO410772   1.437   9.263   6.153 -0.1903  0.1988  0.0787
  702POPS   GL110773   1.658   9.160   6.488  0.1680 -0.0963  0.0998
  702POPS   GL210774   2.024   9.336   6.545 -0.3362 -0.0316  0.3123
  702POPS   C1A10775   1.835   9.016   6.914  0.0061  0.2254 -0.1426
  702POPS   D2A10776   2.080   8.841   7.185 -0.2037 -0.2516 -0.0088
  702POPS   C3A10777   1.841   8.705   7.473  0.2941  0.0904  0.4456
  702POPS   C4A10778   1.766   8.606   7.847  0.0356  0.3940 -0.0515
  702POPS   C1B10779   2.149   9.570   6.968 -0.2271  0.1538 -0.4037
  702POPS   C2B10780   2.284   9.641   7.368 -0.1330  0.0832  0.1928
  702POPS   C3B10781   2.313   9.549   7.776  0.0209  0.2014 -0.0534
  702POPS   C4B10782   2.214   9.394   8.203  0.1318 -0.4317 -0.1626
  703POPS   CNO10783  15.057  16.155   5.800  0.1925 -0.0444  0.0872
  703POPS   PO410784  14.707  16.111   5.913  0.0029 -0.0362 -0.2982
  703POPS   GL110785  14.649  16.188   6.377  0.3556  0.3777 -0.0123
  703POPS   GL210786  14.918  16.054   6.611  0.2821  0.0558  0.2377
  703POPS   C1A10787  14.476  16.184   6.711 -0.1700  0.0005  0.0637
  703POPS   D2A10788  14.556  16.209   7.177 -0.0244 -0.1399  0.1791
  703POPS   C3A10789  14.444  16.196   7.521 -0.2898  0.3057 -0.2074
  703POPS   C4A10790  14.517  16.147   7.992  0.0024  0.2165  0.0075
  703POPS   C1B10791  15.158  16.138   6.931  0.0248  0.0732  0.1648
  703POPS   C2B10792  15.484  16.107   7.266 -0.2128 -0.0212 -0.0077
  703POPS   C3B10793  15.869  15.800   7.404 -0.0256 -0.1440 -0.2809
  703POPS   C4B10794  16.202  15.850   7.702 -0.3046  0.0359  0.0452
  704POPS   CNO10795  15.522  14.372   6.340  0.0097 -0.1641  0.0448
  704POPS   PO410796  15.766  14.752   6.242 -0.2331  0.3050 -0.2448
  704POPS   GL110797  15.720  14.668   6.761 -0.1247 -0.0569 -0.1354
  704POPS   GL210798  15.895  14.411   6.778 -0.1518  0.2485  0.1209
  704POPS   C1A10799  15.588  14.512   7.201 -0.0421 -0.1087  0.0291
  704POPS   D2A10800  15.585  14.553   7.626 -0.1577 -0.2201  0.2478
  704POPS   C3A10801  15.821  14.744   8.061 -0.0937 -0.1586  0.1193
  704POPS   C4A10802  15.857  15.260   8.259 -0.0522  0.2518 -0.0534
  704POPS   C1B10803  15.738  14.054   7.129 -0.1076  0.0984 -0.3131
  704POPS   C2B10804  15.887  13.905   7.488  0.0877 -0.0400 -0.1852
  704POPS   C3B10805  15.782  13.807   7.808  0.0652  0.2071 -0.1234
  704POPS   C4B10806  15.691  13.657   8.197  0.0235 -0.2937  0.0212
  705POPS   CNO10807   0.630   9.575   5.731 -0.4352 -0.2431 -0.3226
  705POPS   PO410808   0.582   9.409   6.165 -0.0419 -0.2134  0.0081
  705POPS   GL110809   0.597   9.578   6.619  0.1357  0.0382 -0.0076
  705POPS   GL210810   0.754   9.907   6.635 -0.0062  0.4028 -0.0862
  705POPS   C1A10811   0.715   9.702   7.045  0.3391 -0.0186 -0.3013
  705POPS   D2A10812   1.074   9.539   7.340 -0.0565  0.0200 -0.0844
  705POPS   C3A10813   1.221   9.476   7.708 -0.3495  0.2100  0.1200
  705POPS   C4A10814   1.002   9.191   7.864  0.1172  0.0331  0.0925
  705POPS   C1B10815   1.138   9.934   6.958 -0.0609  0.2133 -0.0198
  705POPS   C2B10816   1.161  10.112   7.378  0.1785 -0.0124 -0.0652
  705POPS   C3B10817   1.284   9.973   7.774  0.1282 -0.1043  0.2138
  705POPS   C4B10818   1.545   9.912   8.049  0.0523 -0.0450 -0.2705
  706POPS   CNO10819   5.569  15.316   6.328 -0.1873 -0.0362  0.0526
  706POPS   PO410820   5.975  15.241   6.175 -0.0442  0.4724  0.1143
  706POPS   GL110821   5.940  15.446   6.698  0.0024  0.2815 -0.0859
  706POPS   GL210822   5.585  15.542   6.764 -0.0987  0.1095  0.2951
  706POPS   C1A10823   6.113  15.615   7.080 -0.1953  0.0731  0.2217
  706POPS   D2A10824   5.905  15.684   7.475 -0.0877  0.1579 -0.0583
  706POPS   C3A10825   6.153  15.666   7.836  0.2599 -0.1401 -0.0385
  706POPS   C4A10826   6.392  15.957   8.148  0.1003 -0.1135  0.0103
  706POPS   C1B10827   5.678  15.306   7.175 -0.3192  0.0989  0.0216
  706POPS   C2B10828   5.571  15.270   7.600 -0.1258  0.0998  0.0122
  706POPS   C3B10829   5.650  15.181   8.055  0.3355  0.1164  0.0166
  706POPS   C4B10830   5.702  15.122   8.526  0.0037 -0.1671 -0.2643
  707POPS   CNO10831   2.869   9.390   6.254 -0.1194 -0.5015 -0.1565
  707POPS   PO410832   3.041   9.693   6.014 -0.0737 -0.2184  0.1846
  707POPS   GL110833   3.157   9.776   6.373  0.0936 -0.0802  0.0250
  707POPS   GL210834   2.936  10.001   6.555  0.0643  0.0639  0.0335
  707POPS   C1A10835   3.203   9.537   6.802 -0.1058 -0.1485  0.4959
  707POPS   D2A10836   3.534   9.305   7.054 -0.1488 -0.0436 -0.0902
  707POPS   C3A10837   3.685   9.244   7.389 -0.5886  0.2170 -0.5052
  707POPS   C4A10838   3.477   9.200   7.801 -0.1349  0.1034 -0.1004
  707POPS   C1B10839   2.978  10.033   7.028 -0.0658  0.1350  0.2163
  707POPS   C2B10840   3.039   9.989   7.391 -0.2154  0.1575 -0.0867
  707POPS   C3B10841   3.148   9.954   7.826 -0.1959  0.3667  0.0126
  707POPS   C4B10842   3.210  10.052   8.265  0.1641  0.0748 -0.0558
  708POPS   CNO10843  10.389   5.859   5.832  0.0231  0.0898  0.0016
  708POPS   PO410844  10.550   5.982   6.265 -0.1703  0.0904  0.1317
  708POPS   GL110845  10.855   6.008   6.627 -0.0313  0.1011  0.0801
  708POPS   GL210846  10.972   5.792   6.671  0.1346 -0.0532 -0.4378
  708POPS   C1A10847  10.795   6.094   7.006 -0.0500  0.1219 -0.0649
  708POPS   D2A10848  10.777   6.033   7.547 -0.1260 -0.0436 -0.0982
  708POPS   C3A10849  10.722   5.651   7.849  0.1297 -0.0265  0.1216
  708POPS   C4A10850  10.756   5.463   8.314 -0.2975 -0.3465  0.0370
  708POPS   C1B10851  10.779   5.623   7.086 -0.2130 -0.0891 -0.1620
  708POPS   C2B10852  10.898   5.487   7.392 -0.0598  0.0778  0.0628
  708POPS   C3B10853  10.993   5.228   7.695  0.0949 -0.1574 -0.1306
  708POPS   C4B10854  10.899   4.998   8.121 -0.1933 -0.1574  0.1179
  709POPS   CNO10855   7.961   5.412   6.140  0.3468 -0.0138  0.0267
  709POPS   PO410856   8.237   5.388   6.467  0.1034  0.3822 -0.1108
  709POPS   GL110857   8.466   5.502   6.725  0.4000  0.2685 -0.1958
  709POPS   GL210858   8.851   5.374   6.752 -0.0778 -0.1424 -0.0039
  709POPS   C1A10859   8.365   5.607   7.073 -0.0093 -0.3265 -0.0219
  709POPS   D2A10860   8.306   5.741   7.494 -0.0946 -0.1189  0.1738
  709POPS   C3A10861   8.196   5.478   7.847  0.1545  0.1184  0.0179
  709POPS   C4A10862   8.400   5.324   8.214  0.1127 -0.1411  0.0609
  709POPS   C1B10863   8.733   5.351   7.223  0.1117  0.0738  0.2535
  709POPS   C2B10864   8.700   5.514   7.693 -0.0054 -0.3530 -0.3277
  709POPS   C3B10865   8.939   5.272   8.056 -0.1795  0.2441 -0.0333
  709POPS   C4B10866   9.024   5.203   8.419 -0.2291  0.3046 -0.1267
  710POPS   CNO10867   5.725  12.185   6.593  0.3878  0.0661 -0.3145
  710POPS   PO410868   5.690  12.648   6.455  0.0040  0.0776 -0.1888
  710POPS   GL110869   5.489  12.526   6.880  0.2671  0.0345 -0.0218
  710POPS   GL210870   5.856  12.372   7.047  0.1589  0.1355 -0.2408
  710POPS   C1A10871   5.117  12.560   7.048 -0.2411  0.1181 -0.3985
  710POPS   D2A10872   4.952  12.654   7.359  0.1421 -0.2845  0.1595
  710POPS   C3A10873   4.834  12.468   7.673 -0.2100  0.0199  0.0628
  710POPS   C4A10874   4.970  12.191   8.014 -0.2621 -0.0541 -0.2626
  710POPS   C1B10875   5.764  12.465   7.489 -0.1466 -0.0502  0.2852
  710POPS   C2B10876   5.842  12.594   7.877 -0.2431  0.1728  0.1101
  710POPS   C3B10877   6.073  12.677   8.082 -0.1728  0.1218  0.0720
  710POPS   C4B10878   6.291  12.617   8.379 -0.0325  0.1667  0.0440
  711POPS   CNO10879  15.451   9.751   6.103 -0.0662 -0.0054  0.0737
  711POPS   PO410880  15.840   9.821   6.218 -0.3351  0.1225 -0.0796
  711POPS   GL110881  16.101   9.922   6.627 -0.1437 -0.4483  0.1379
  711POPS   GL210882  15.961  10.343   6.861  0.1226  0.0590  0.1153
  711POPS   C1A10883  16.288   9.873   7.052  0.1842 -0.1497  0.1197
  711POPS   D2A10884  16.504   9.733   7.351 -0.3896 -0.0365 -0.4815
  711POPS   C3A10885  16.539   9.720   7.828  0.0376 -0.1889 -0.0231
  711POPS   C4A10886  16.205   9.486   8.075  0.2448 -0.0610  0.3274
  711POPS   C1B10887  16.062  10.228   7.359 -0.0649 -0.1551 -0.2182
  711POPS   C2B10888  16.354  10.179   7.697  0.1426  0.0078 -0.3911
  711POPS   C3B10889  16.408  10.247   8.113 -0.0040  0.0167 -0.1345
  711POPS   C4B10890  16.354  10.001   8.435  0.0407  0.0023 -0.1730
  712POPS   CNO10891  11.742   5.123   6.169  0.1554  0.2668 -0.0041
  712POPS   PO410892  11.779   5.580   6.160  0.2313 -0.0098  0.1177
  712POPS   GL110893  11.880   5.519   6.516 -0.0147  0.2709  0.1470
  712POPS   GL210894  11.709   5.877   6.647 -0.1992  0.0668  0.0928
  712POPS   C1A10895  12.191   5.601   6.934  0.2069  0.1726 -0.1857
  712POPS   D2A10896  12.257   5.588   7.353 -0.0655  0.0084  0.0997
  712POPS   C3A10897  12.597   5.848   7.565 -0.1537  0.1019 -0.2646
  712POPS   C4A10898  13.056   5.795   7.675  0.1565 -0.0761 -0.0513
  712POPS   C1B10899  11.664   5.804   7.098  0.0991  0.1287 -0.1719
  712POPS   C2B10900  11.816   5.817   7.505  0.0009  0.0365  0.3239
  712POPS   C3B10901  12.128   5.787   7.788  0.1416 -0.0388  0.0058
  712POPS   C4B10902  12.086   5.885   8.248 -0.0247 -0.1662 -0.1392
  713POPS   CNO10903  12.928  11.612   6.048 -0.1262  0.3032  0.1096
  713POPS   PO410904  12.648  11.409   6.417  0.0805 -0.0613 -0.2130
  713POPS   GL110905  12.780  11.241   6.775 -0.1226  0.1669  0.0685
  713POPS   GL210906  12.898  11.456   6.970 -0.0482 -0.0702  0.0926
  713POPS   C1A10907  12.792  11.058   7.248  0.3878 -0.0637  0.1144
  713POPS   D2A10908  12.599  10.933   7.619  0.0700 -0.0349  0.1583
  713POPS   C3A10909  12.661  10.756   7.945 -0.0250 -0.2162 -0.1172
  713POPS   C4A10910  12.587  10.581   8.282  0.0405 -0.1800 -0.2040
  713POPS   C1B10911  12.834  11.510   7.316 -0.1383  0.0700  0.0541
  713POPS   C2B10912  12.735  11.465   7.642 -0.0773 -0.0986 -0.0717
  713POPS   C3B10913  12.746  11.258   7.985 -0.1519  0.4025  0.0884
  713POPS   C4B10914  12.510  11.076   8.380  0.2814 -0.0763  0.0047
  714POPS   CNO10915   8.533  10.855   6.113  0.0289  0.1529 -0.3342
  714POPS   PO410916   8.196  10.677   6.439  0.0202 -0.1469 -0.1305
  714POPS   GL110917   8.374  10.711   6.887 -0.0359  0.0633 -0.1130
  714POPS   GL210918   8.242  10.544   7.083 -0.0459 -0.2270  0.1662
  714POPS   C1A10919   8.711  10.959   7.075  0.0543 -0.0791  0.0263
  714POPS   D2A10920   9.060  11.225   7.012  0.0780 -0.0031  0.1087
  714POPS   C3A10921   9.185  11.426   7.390  0.0261 -0.1615  0.2639
  714POPS   C4A10922   8.913  11.317   7.664 -0.0351 -0.1564  0.4973
  714POPS   C1B10923   8.024  10.561   7.445  0.0186 -0.2450 -0.2157
  714POPS   C2B10924   8.022  10.519   7.900  0.1477 -0.1496 -0.0082
  714POPS   C3B10925   8.112  10.540   8.246 -0.0091 -0.2895 -0.0223
  714POPS   C4B10926   8.238  10.936   8.493 -0.2305  0.1878  0.1135
  715POPS   CNO10927  13.908   9.479   5.820 -0.0827 -0.0214 -0.3006
  715POPS   PO410928  13.866   9.118   5.977 -0.0911  0.0988 -0.0270
  715POPS   GL110929  13.878   9.100   6.338  0.1874 -0.0797 -0.0160
  715POPS   GL210930  14.171   9.045   6.399 -0.1347  0.2934  0.0247
  715POPS   C1A10931  13.909   9.240   6.804  0.1275 -0.3104 -0.0999
  715POPS   D2A10932  14.031   9.112   7.167 -0.0003  0.5190 -0.2822
  715POPS   C3A10933  14.100   8.735   7.391 -0.1356  0.0468 -0.2503
  715POPS   C4A10934  13.977   8.623   7.876  0.0092  0.0273 -0.2874
  715POPS   C1B10935  14.303   8.940   6.772  0.0578  0.0934 -0.1695
  715POPS   C2B10936  14.527   8.888   7.264 -0.2635  0.2218  0.3853
  715POPS   C3B10937  14.530   8.826   7.721  0.1093 -0.0259 -0.1679
  715POPS   C4B10938  14.376   8.746   8.131  0.0554 -0.0230 -0.1139
  716POPS   CNO10939  11.856  15.671   5.799  0.2801  0.0691 -0.2780
  716POPS   PO410940  11.455  15.714   5.967  0.3429  0.1775 -0.0330
  716POPS   GL110941  11.236  15.827   6.285 -0.3911  0.1690  0.2008
  716POPS   GL210942  10.886  15.808   6.364 -0.1978  0.1455 -0.0588
  716POPS   C1A10943  11.261  15.908   6.695 -0.0556  0.0192 -0.0627
  716POPS   D2A10944  11.203  15.765   6.993  0.0528  0.2551 -0.0133
  716POPS   C3A10945  11.282  15.877   7.351  0.0167 -0.3385  0.0602
  716POPS   C4A10946  11.454  15.954   7.780  0.1553  0.0616  0.2745
  716POPS   C1B10947  10.819  15.616   6.742 -0.2171  0.1177  0.1774
  716POPS   C2B10948  10.855  15.561   7.226 -0.0483  0.0698 -0.1287
  716POPS   C3B10949  10.946  15.605   7.652 -0.0647 -0.2531  0.0791
  716POPS   C4B10950  10.877  15.614   8.048  0.1660 -0.2825 -0.0214
  717POPS   CNO10951   5.546   5.471   5.822  0.0463 -0.1303 -0.1220
  717POPS   PO410952   5.568   5.261   6.191 -0.0073 -0.1708 -0.0880
  717POPS   GL110953   5.547   5.057   6.522 -0.0482  0.5736  0.0987
  717POPS   GL210954   5.743   5.047   6.725 -0.2671 -0.0188  0.2228
  717POPS   C1A10955   5.233   4.982   6.882  0.0025  0.0087  0.2587
  717POPS   D2A10956   5.275   5.022   7.244 -0.0980  0.1061  0.2344
  717POPS   C3A10957   5.210   4.783   7.519  0.1221 -0.0558 -0.1126
  717POPS   C4A10958   5.332   4.485   7.751  0.1305  0.1451  0.1590
  717POPS   C1B10959   5.667   4.826   7.087 -0.0727  0.1204 -0.3237
  717POPS   C2B10960   5.736   4.685   7.501  0.2101  0.2202  0.5172
  717POPS   C3B10961   5.771   4.640   7.993 -0.1967  0.1683 -0.0722
  717POPS   C4B10962   5.630   4.832   8.393  0.0029 -0.1231  0.1522
  718POPS   CNO10963  16.221  14.696   5.972 -0.1404 -0.1961  0.0894
  718POPS   PO410964  16.272  15.089   6.074  0.0008 -0.2620 -0.1768
  718POPS   GL110965  16.082  15.205   6.439 -0.1553 -0.3298 -0.0122
  718POPS   GL210966  16.269  15.371   6.636  0.3251  0.0333 -0.2778
  718POPS   C1A10967  16.096  14.935   6.809 -0.1571 -0.0351  0.0274
  718POPS   D2A10968  16.011  14.878   7.193  0.1415  0.1581 -0.2018
  718POPS   C3A10969  15.804  15.259   7.343  0.0455  0.2365  0.0096
  718POPS   C4A10970  15.850  15.458   7.777  0.0054 -0.3453 -0.0268
  718POPS   C1B10971  16.576  15.110   6.888  0.1597  0.1626 -0.2727
  718POPS   C2B10972  16.572  15.010   7.376 -0.1540 -0.0164 -0.0296
  718POPS   C3B10973  16.566  15.046   7.802 -0.1280  0.4249  0.0440
  718POPS   C4B10974  16.278  14.971   8.127 -0.1239  0.1480 -0.3383
  719POPS   CNO10975  10.111  16.286   5.611  0.0670  0.1569 -0.2884
  719POPS   PO410976  10.215  16.286   6.040  0.1688 -0.0975 -0.1523
  719POPS   GL110977  10.224  16.115   6.472 -0.2112 -0.1764  0.0308
  719POPS   GL210978  10.412  15.849   6.587 -0.0545 -0.1999  0.4746
  719POPS   C1A10979  10.262  16.207   6.934  0.1106 -0.1224  0.0099
  719POPS   D2A10980  10.274  16.207   7.403 -0.0656  0.1306  0.0384
  719POPS   C3A10981  10.075  16.567   7.624  0.1450  0.1781  0.3113
  719POPS   C4A10982   9.856  16.616   7.973  0.0069  0.0677 -0.1083
  719POPS   C1B10983  10.373  15.728   6.948  0.2247 -0.0774  0.2834
  719POPS   C2B10984  10.362  15.766   7.316  0.1109 -0.0590 -0.1573
  719POPS   C3B10985  10.123  15.781   7.645 -0.2074  0.3503 -0.2366
  719POPS   C4B10986  10.132  16.100   7.899 -0.2518 -0.1660 -0.2849
  720POPS   CNO10987  15.789   8.261   5.653  0.1531  0.1270  0.0223
  720POPS   PO410988  15.676   8.016   6.019 -0.2078  0.1461  0.2845
  720POPS   GL110989  15.558   8.025   6.476  0.2204  0.1802 -0.0369
  720POPS   GL210990  15.725   8.345   6.414 -0.1606  0.0205  0.1628
  720POPS   C1A10991  15.600   7.681   6.726  0.1438 -0.0041  0.2302
  720POPS   D2A10992  15.931   7.444   6.731 -0.1717  0.1664 -0.2407
  720POPS   C3A10993  15.931   7.145   7.126  0.3780 -0.0822 -0.0295
  720POPS   C4A10994  15.886   7.129   7.558 -0.0298  0.0134  0.0550
  720POPS   C1B10995  15.816   8.300   6.866 -0.0215  0.0849  0.1263
  720POPS   C2B10996  15.909   8.330   7.355  0.3122 -0.1961  0.1904
  720POPS   C3B10997  15.934   8.560   7.691 -0.2748 -0.2985 -0.2853
  720POPS   C4B10998  16.218   8.857   7.957 -0.1248  0.0704 -0.2411
  721POPS   CNO10999   5.547  13.190   5.819  0.4907 -0.3188  0.2147
  721POPS   PO411000   5.387  13.491   6.156 -0.0923 -0.1962  0.2079
  721POPS   GL111001   5.633  13.567   6.549 -0.2671 -0.0493 -0.1077
  721POPS   GL211002   5.923  13.432   6.649  0.1852  0.0184  0.0959
  721POPS   C1A11003   5.839  13.921   6.779 -0.1342  0.1491 -0.2645
  721POPS   D2A11004   5.838  14.061   7.201  0.2338  0.1148  0.3251
  721POPS   C3A11005   5.795  13.909   7.645 -0.0362  0.1407 -0.4230
  721POPS   C4A11006   5.642  14.265   7.938  0.0278  0.0507 -0.4293
  721POPS   C1B11007   5.713  13.399   7.046  0.2678  0.0570 -0.0291
  721POPS   C2B11008   5.615  13.465   7.492 -0.2415 -0.0609 -0.2212
  721POPS   C3B11009   5.585  13.404   7.874  0.1470  0.0493 -0.1824
  721POPS   C4B11010   5.505  13.768   8.225 -0.0528  0.1276  0.3346
  722POPS   CNO11011   7.657   7.255   6.136  0.1867  0.0330  0.1981
  722POPS   PO411012   7.924   7.442   6.408 -0.1031  0.0976 -0.3133
  722POPS   GL111013   7.908   7.306   6.817  0.2083  0.3492  0.0235
  722POPS   GL211014   8.122   7.202   6.905 -0.0610 -0.0328 -0.1444
  722POPS   C1A11015   7.748   7.360   7.172  0.0682 -0.1635  0.0886
  722POPS   D2A11016   7.469   7.542   7.473  0.1675 -0.0859 -0.2294
  722POPS   C3A11017   7.294   7.943   7.647  0.0571 -0.0134  0.1992
  722POPS   C4A11018   7.112   8.279   7.732  0.1923  0.4994  0.1222
  722POPS   C1B11019   8.248   7.086   7.281  0.0979 -0.0136 -0.0477
  722POPS   C2B11020   8.379   7.106   7.697  0.1190  0.2226  0.0273
  722POPS   C3B11021   8.287   7.112   8.148 -0.3295 -0.1171  0.1174
  722POPS   C4B11022   8.339   7.238   8.532 -0.0458 -0.0035 -0.1301
  723POPS   CNO11023   2.498   8.329   6.084 -0.0690  0.1052  0.0733
  723POPS   PO411024   2.613   8.540   5.691  0.1278 -0.0026  0.0843
  723POPS   GL111025   2.883   8.622   6.020 -0.2158 -0.1596 -0.3357
  723POPS   GL211026   3.144   8.736   5.891 -0.1357  0.0235  0.0565
  723POPS   C1A11027   3.000   8.598   6.441 -0.1833  0.1474  0.0551
  723POPS   D2A11028   2.821   8.645   6.795 -0.0683  0.1249  0.3180
  723POPS   C3A11029   2.896   8.631   7.050 -0.0110  0.0927 -0.0790
  723POPS   C4A11030   2.813   8.695   7.429 -0.0283 -0.0619 -0.0197
  723POPS   C1B11031   3.316   8.398   6.008 -0.3227 -0.0143  0.0137
  723POPS   C2B11032   3.714   8.264   6.138  0.0400  0.1088  0.0058
  723POPS   C3B11033   4.097   8.123   6.466  0.2912  0.1741 -0.0455
  723POPS   C4B11034   4.062   7.794   6.854 -0.1727 -0.3546 -0.1535
  724POPS   CNO11035   8.460  11.118   6.520 -0.1497 -0.0487 -0.3239
  724POPS   PO411036   8.381  11.520   6.396 -0.0740  0.2747  0.0401
  724POPS   GL111037   8.685  11.517   6.763 -0.0937  0.0533 -0.2347
  724POPS   GL211038   9.035  11.697   6.590  0.1255  0.2681  0.3034
  724POPS   C1A11039   8.685  11.474   7.269  0.0665  0.0864 -0.1299
  724POPS   D2A11040   8.350  11.413   7.673 -0.1658  0.2062 -0.1996
  724POPS   C3A11041   8.582  11.282   8.027  0.1248 -0.0640  0.0502
  724POPS   C4A11042   8.625  11.226   8.455 -0.0693  0.0281 -0.1838
  724POPS   C1B11043   9.021  11.789   7.027 -0.0029 -0.2940  0.1021
  724POPS   C2B11044   9.178  11.901   7.387 -0.0727  0.1042 -0.0416
  724POPS   C3B11045   9.331  11.818   7.715  0.1753  0.0905  0.1988
  724POPS   C4B11046   9.364  11.739   8.148  0.1123 -0.0054 -0.1209
  725POPS   CNO11047   6.081   3.494   5.674 -0.0060  0.0505 -0.0224
  725POPS   PO411048   5.894   3.092   5.670 -0.0511 -0.0900 -0.0377
  725POPS   GL111049   5.473   2.873   6.019  0.0647  0.0764  0.4153
  725POPS   GL211050   5.304   2.593   5.935  0.0773  0.0327 -0.1374
  725POPS   C1A11051   5.490   2.780   6.461 -0.0489  0.0099  0.0327
  725POPS   D2A11052   5.684   2.770   6.792 -0.0616  0.1503  0.0364
  725POPS   C3A11053   5.522   2.765   7.137  0.1241  0.3765  0.3201
  725POPS   C4A11054   5.478   2.797   7.633  0.0735 -0.3775 -0.1343
  725POPS   C1B11055   5.145   2.408   6.349  0.0244 -0.2073  0.0852
  725POPS   C2B11056   4.899   2.437   6.732  0.1486 -0.3673 -0.0622
  725POPS   C3B11057   4.944   2.282   7.170 -0.1627 -0.1025  0.0506
  725POPS   C4B11058   5.110   2.412   7.484  0.0748 -0.0265 -0.2196
  726POPS   CNO11059   4.930  12.065   6.124  0.0128 -0.0236 -0.1561
  726POPS   PO411060   4.899  11.627   6.273  0.3191  0.1750  0.1112
  726POPS   GL111061   4.702  11.785   6.651 -0.2524  0.0032  0.1424
  726POPS   GL211062   4.494  11.476   6.763 -0.0148 -0.0717 -0.0961
  726POPS   C1A11063   4.564  11.868   7.073 -0.1096  0.0850 -0.0293
  726POPS   D2A11064   4.360  12.027   7.482  0.1434 -0.1335 -0.0728
  726POPS   C3A11065   4.464  12.107   7.790  0.0355 -0.0201  0.1230
  726POPS   C4A11066   4.456  12.134   8.177  0.2323 -0.4173 -0.0143
  726POPS   C1B11067   4.656  11.309   7.173  0.2205 -0.3403 -0.1180
  726POPS   C2B11068   4.631  11.567   7.508 -0.1500  0.1559 -0.0045
  726POPS   C3B11069   4.459  11.643   7.887 -0.2118 -0.2030  0.0317
  726POPS   C4B11070   4.213  11.588   8.271 -0.0268 -0.1036 -0.1022
  727POPS   CNO11071   2.371   9.444   6.205 -0.0684 -0.0587 -0.0602
  727POPS   PO411072   2.099   9.875   6.314 -0.2466  0.0189  0.0980
  727POPS   GL111073   2.373   9.818   6.556  0.0100  0.0405 -0.1441
  727POPS   GL211074   2.429  10.113   6.651  0.4177 -0.1878  0.1208
  727POPS   C1A11075   2.705   9.607   6.765  0.3018  0.0684  0.1800
  727POPS   D2A11076   2.810   9.600   7.186  0.1428  0.0846  0.0011
  727POPS   C3A11077   2.782   9.551   7.604 -0.0009 -0.0047 -0.1608
  727POPS   C4A11078   2.997   9.446   7.932 -0.0447 -0.2295  0.2649
  727POPS   C1B11079   2.500   9.985   7.091 -0.2949 -0.0975 -0.1750
  727POPS   C2B11080   2.517  10.129   7.605  0.1598  0.1557 -0.0327
  727POPS   C3B11081   2.610   9.944   7.935 -0.3558 -0.1585  0.1292
  727POPS   C4B11082   2.674   9.622   8.245 -0.2476 -0.1930  0.3238
  728POPS   CNO11083   7.501   3.023   6.105 -0.0105  0.0403  0.3690
  728POPS   PO411084   7.965   3.146   6.005 -0.0299 -0.2764  0.2522
  728POPS   GL111085   7.914   3.139   6.477  0.0702  0.3293 -0.1981
  728POPS   GL211086   8.118   2.938   6.570  0.2155  0.4974  0.4599
  728POPS   C1A11087   7.726   3.225   6.825  0.0347 -0.1385 -0.1342
  728POPS   D2A11088   7.701   3.596   6.974 -0.1679  0.0546 -0.5018
  728POPS   C3A11089   8.076   3.630   7.284 -0.0684 -0.0071 -0.0491
  728POPS   C4A11090   8.506   3.567   7.429 -0.1145  0.1555  0.1005
  728POPS   C1B11091   8.341   2.759   6.950  0.1780  0.3375 -0.3523
  728POPS   C2B11092   8.357   2.728   7.288  0.0666  0.0538 -0.1902
  728POPS   C3B11093   8.421   2.852   7.654 -0.0957 -0.1707 -0.1745
  728POPS   C4B11094   8.431   2.544   7.899  0.1118  0.1168 -0.1265
  729POPS   CNO11095   9.575   1.540   5.693 -0.1491 -0.0520 -0.3310
  729POPS   PO411096   9.528   1.317   6.111 -0.2689 -0.3267  0.1227
  729POPS   GL111097   9.673   1.094   6.438 -0.0118 -0.0532  0.2434
  729POPS   GL211098   9.421   0.930   6.467 -0.1517 -0.0999  0.1051
  729POPS   C1A11099   9.631   1.308   6.928  0.1181 -0.0447 -0.1313
  729POPS   D2A11100   9.668   1.588   7.269  0.1464 -0.0928 -0.1333
  729POPS   C3A11101   9.653   1.407   7.665 -0.0794  0.0610 -0.4371
  729POPS   C4A11102   9.573   1.136   7.934 -0.0780  0.0985  0.2802
  729POPS   C1B11103   9.404   0.913   6.908  0.0499  0.2155  0.3942
  729POPS   C2B11104   9.014   1.009   7.061 -0.1277  0.3229 -0.0733
  729POPS   C3B11105   8.616   1.161   7.211 -0.1863 -0.1364 -0.0049
  729POPS   C4B11106   8.311   1.392   7.361  0.0170  0.0748  0.1956
  730POPS   CNO11107  17.728  16.194   6.512  0.2329 -0.1101  0.0575
  730POPS   PO411108  18.069  16.206   6.215 -0.1723 -0.0390  0.0955
  730POPS   GL111109  18.219  16.437   6.569  0.1773 -0.1765 -0.5505
  730POPS   GL211110  18.485  16.265   6.673 -0.1014 -0.0247  0.2573
  730POPS   C1A11111  17.938  16.376   6.939  0.3229  0.0496  0.0117
  730POPS   D2A11112  18.020  16.317   7.369  0.0443 -0.2528  0.0150
  730POPS   C3A11113  18.184  15.995   7.631 -0.1355 -0.0725  0.0300
  730POPS   C4A11114  18.264  15.760   7.911 -0.0192 -0.2740  0.2651
  730POPS   C1B11115  18.439  16.151   7.115 -0.1136 -0.0041 -0.0626
  730POPS   C2B11116  18.598  16.176   7.508  0.0724 -0.0593 -0.0479
  730POPS   C3B11117  18.620  16.195   7.907  0.0339  0.0315 -0.2333
  730POPS   C4B11118  18.645  16.498   8.214 -0.1675 -0.2629 -0.1901
  731POPS   CNO11119   6.208  14.543   5.807 -0.3120 -0.1960  0.0074
  731POPS   PO411120   6.121  14.381   6.158 -0.1080 -0.0330 -0.1232
  731POPS   GL111121   6.233  14.592   6.540  0.1512 -0.0773  0.3608
  731POPS   GL211122   6.394  14.320   6.612  0.1821  0.0328  0.1879
  731POPS   C1A11123   6.045  14.645   6.967 -0.0483  0.0910  0.2571
  731POPS   D2A11124   6.057  14.493   7.419  0.2396 -0.0647  0.2056
  731POPS   C3A11125   5.860  14.694   7.755  0.0723 -0.3988 -0.1180
  731POPS   C4A11126   5.398  14.778   7.806 -0.0972  0.1555  0.1439
  731POPS   C1B11127   6.288  14.054   6.881 -0.0723 -0.3167 -0.1629
  731POPS   C2B11128   6.364  13.955   7.347 -0.1755  0.2184 -0.1300
  731POPS   C3B11129   6.273  14.030   7.730  0.1076  0.1495  0.3254
  731POPS   C4B11130   6.348  14.168   8.212  0.1966  0.1949  0.0426
  732POPS   CNO11131  17.818   3.463   5.444  0.0789 -0.1299 -0.0083
  732POPS   PO411132  17.668   3.678   5.784 -0.1535 -0.0155 -0.0449
  732POPS   GL111133  17.842   3.639   6.213  0.2073 -0.3341 -0.1690
  732POPS   GL211134  18.124   3.764   6.189 -0.0128 -0.1062 -0.1294
  732POPS   C1A11135  17.890   3.650   6.644 -0.2961  0.1315 -0.1728
  732POPS   D2A11136  17.826   3.616   7.077 -0.3392  0.0047  0.2257
  732POPS   C3A11137  18.108   3.639   7.488  0.2572 -0.2663  0.1272
  732POPS   C4A11138  18.163   3.719   7.956 -0.0324  0.0740 -0.1818
  732POPS   C1B11139  18.213   3.971   6.498  0.0900  0.0879  0.1700
  732POPS   C2B11140  18.153   4.119   6.834 -0.1295  0.3489 -0.0830
  732POPS   C3B11141  18.193   4.077   7.226  0.2154  0.0597  0.1018
  732POPS   C4B11142  17.970   4.114   7.709 -0.0807 -0.0281  0.0893
  733POPS   CNO11143  12.704  12.855   6.589  0.0239  0.1537 -0.1230
  733POPS   PO411144  13.168  12.908   6.433  0.3035  0.1844  0.0865
  733POPS   GL111145  13.220  12.680   6.781  0.0497  0.2038 -0.1310
  733POPS   GL211146  13.317  12.390   6.916  0.0287 -0.0344  0.0118
  733POPS   C1A11147  13.303  12.703   7.324 -0.1689  0.3724 -0.1883
  733POPS   D2A11148  13.180  12.685   7.807 -0.0156  0.0134  0.1686
  733POPS   C3A11149  13.265  12.718   8.156 -0.3767  0.1917 -0.1641
  733POPS   C4A11150  13.558  12.735   8.458 -0.0391 -0.0760 -0.0702
  733POPS   C1B11151  13.394  12.193   7.323 -0.1376 -0.0727 -0.0127
  733POPS   C2B11152  13.428  12.288   7.799  0.0571 -0.2101 -0.0843
  733POPS   C3B11153  13.584  12.258   8.228 -0.3047  0.1858  0.0152
  733POPS   C4B11154  13.704  12.251   8.751  0.0811  0.0549 -0.2135
  734POPS   CNO11155   2.441  13.440   6.330 -0.2948  0.0875  0.0568
  734POPS   PO411156   2.259  13.866   6.311  0.0281 -0.0789  0.1985
  734POPS   GL111157   2.212  14.075   6.759 -0.1183 -0.4015  0.2278
  734POPS   GL211158   1.900  14.250   6.567  0.0083 -0.3793 -0.0437
  734POPS   C1A11159   2.319  14.175   7.159  0.1404  0.1013 -0.1194
  734POPS   D2A11160   2.465  13.930   7.563 -0.2563 -0.3391  0.1979
  734POPS   C3A11161   2.481  14.025   7.961  0.1146  0.1367 -0.3450
  734POPS   C4A11162   2.481  14.441   8.316  0.2053  0.2328 -0.0574
  734POPS   C1B11163   1.844  14.268   7.103  0.0557 -0.3285 -0.1214
  734POPS   C2B11164   1.968  13.957   7.383 -0.2025 -0.2833 -0.0443
  734POPS   C3B11165   1.956  13.852   7.790 -0.3247  0.1755  0.1961
  734POPS   C4B11166   2.151  13.689   8.191 -0.1526  0.0316  0.0011
  735POPS   CNO11167   0.242  12.718   6.359  0.1837  0.2186  0.4066
  735POPS   PO411168   0.038  12.413   6.511 -0.0834 -0.0692 -0.0693
  735POPS   GL111169  -0.040  12.351   6.900 -0.1242 -0.2811  0.0694
  735POPS   GL211170  -0.214  12.075   6.952  0.1290  0.2507  0.1810
  735POPS   C1A11171   0.063  12.296   7.365 -0.1809  0.0216  0.1328
  735POPS   D2A11172   0.140  12.291   7.740  0.1611  0.2619 -0.0484
  735POPS   C3A11173  -0.106  12.384   8.221  0.1453 -0.1722  0.2040
  735POPS   C4A11174  -0.451  12.331   8.495  0.2584  0.1324 -0.1072
  735POPS   C1B11175  -0.389  12.126   7.331  0.0988 -0.0959 -0.1158
  735POPS   C2B11176  -0.320  12.176   7.637  0.0428  0.1964 -0.2489
  735POPS   C3B11177  -0.525  12.055   8.022 -0.1057  0.3355 -0.2447
  735POPS   C4B11178  -0.557  11.745   8.387  0.1085  0.0103 -0.1413
  736POPS   CNO11179   1.678   6.288   5.751  0.1242 -0.1445 -0.0191
  736POPS   PO411180   1.594   5.901   5.993  0.1838  0.1785  0.0709
  736POPS   GL111181   1.633   6.132   6.363  0.1709 -0.2360 -0.0791
  736POPS   GL211182   1.787   6.390   6.220 -0.1446 -0.0165  0.1554
  736POPS   C1A11183   1.656   6.130   6.848 -0.0765 -0.0038 -0.0047
  736POPS   D2A11184   1.823   5.874   7.112  0.2753  0.1128  0.2083
  736POPS   C3A11185   2.252   5.926   7.210 -0.2702  0.2090 -0.2664
  736POPS   C4A11186   2.533   5.891   7.626  0.0876  0.1805 -0.0340
  736POPS   C1B11187   2.022   6.412   6.581  0.4290  0.3081 -0.2493
  736POPS   C2B11188   2.105   6.412   7.046 -0.3678 -0.0743  0.0287
  736POPS   C3B11189   2.077   6.468   7.498 -0.3138 -0.0378  0.0583
  736POPS   C4B11190   1.856   6.599   7.863  0.0593 -0.1092  0.1673
  737POPS   CNO11191   7.075   2.233   5.840  0.0205 -0.1924 -0.1107
  737POPS   PO411192   7.184   2.707   5.823 -0.0517  0.0115 -0.1972
  737POPS   GL111193   6.971   2.670   6.189 -0.2162 -0.1351  0.1439
  737POPS   GL211194   6.808   2.349   6.279 -0.2986 -0.1590 -0.1039
  737POPS   C1A11195   7.001   2.659   6.600 -0.2359 -0.2212 -0.3377
  737POPS   D2A11196   6.748   3.095   6.744 -0.0056 -0.2605 -0.3837
  737POPS   C3A11197   6.897   3.221   7.269 -0.0108  0.2075 -0.2654
  737POPS   C4A11198   7.237   3.206   7.682 -0.1994 -0.0086  0.1823
  737POPS   C1B11199   6.826   2.116   6.607  0.2227 -0.0425 -0.0367
  737POPS   C2B11200   6.907   2.220   7.023 -0.0724  0.0249  0.4342
  737POPS   C3B11201   7.039   2.306   7.386  0.0852  0.3064  0.0389
  737POPS   C4B11202   7.042   2.377   7.926  0.0531  0.1134 -0.2631
  738POPS   CNO11203  15.913  13.576   6.553  0.2610 -0.0403 -0.0023
  738POPS   PO411204  16.180  13.879   6.481  0.1141 -0.3207 -0.1087
  738POPS   GL111205  16.158  13.943   6.853  0.0255  0.1694 -0.1544
  738POPS   GL211206  16.054  13.710   7.013  0.1536 -0.0299  0.2261
  738POPS   C1A11207  16.271  14.208   7.136  0.0096 -0.0303  0.3455
  738POPS   D2A11208  16.053  14.387   7.426 -0.1655  0.1509  0.1155
  738POPS   C3A11209  15.985  14.258   7.921 -0.0900  0.0238 -0.1617
  738POPS   C4A11210  15.960  14.177   8.363 -0.2537  0.1462  0.4205
  738POPS   C1B11211  16.132  13.525   7.311  0.3219 -0.0881  0.0680
  738POPS   C2B11212  16.197  13.541   7.636  0.1773  0.0395 -0.1358
  738POPS   C3B11213  16.548  13.373   7.749  0.0521 -0.2055 -0.0718
  738POPS   C4B11214  16.903  13.478   7.826 -0.1393  0.1567  0.0711
  739POPS   CNO11215  14.226  10.121   6.365 -0.0401  0.2791  0.1782
  739POPS   PO411216  14.001  10.423   6.425  0.0918  0.0782  0.1277
  739POPS   GL111217  14.128  10.396   6.830 -0.0961  0.0644 -0.4445
  739POPS   GL211218  14.455  10.597   6.888 -0.0308 -0.2604  0.2295
  739POPS   C1A11219  14.143  10.419   7.293  0.0411 -0.1272  0.1659
  739POPS   D2A11220  14.132  10.250   7.723  0.2354  0.1038 -0.3856
  739POPS   C3A11221  14.109   9.756   7.783 -0.0433  0.0338 -0.1426
  739POPS   C4A11222  14.133   9.512   7.387 -0.1257 -0.0308  0.0443
  739POPS   C1B11223  14.595  10.540   7.308 -0.3242  0.0351 -0.0278
  739POPS   C2B11224  14.519  10.532   7.737 -0.0736  0.1703 -0.0054
  739POPS   C3B11225  14.508  10.523   8.126 -0.2775 -0.0466 -0.2093
  739POPS   C4B11226  14.480  10.559   8.495 -0.0577  0.2652 -0.0400
  740POPS   CNO11227   4.229  16.358   6.119  0.1843  0.0635 -0.1142
  740POPS   PO411228   3.940  16.763   6.083  0.0621 -0.1299 -0.1194
  740POPS   GL111229   4.054  16.948   6.485  0.4148 -0.1741 -0.2443
  740POPS   GL211230   4.319  16.777   6.427  0.0701  0.4701 -0.3552
  740POPS   C1A11231   3.951  17.104   6.894 -0.0402  0.0227 -0.0345
  740POPS   D2A11232   3.757  17.091   7.275 -0.4366  0.0260 -0.1941
  740POPS   C3A11233   3.896  16.824   7.651  0.0147 -0.0204  0.0628
  740POPS   C4A11234   4.026  16.799   8.049 -0.2857  0.0917  0.0288
  740POPS   C1B11235   4.272  16.750   6.855 -0.3211  0.0499  0.0453
  740POPS   C2B11236   4.194  16.785   7.232  0.3754 -0.2371  0.1412
  740POPS   C3B11237   4.350  16.934   7.584 -0.0693  0.1748  0.1697
  740POPS   C4B11238   4.492  17.141   7.825  0.1017 -0.0116 -0.0682
  741POPS   CNO11239  15.153   5.859   5.877 -0.0064 -0.0134 -0.1036
  741POPS   PO411240  15.260   5.455   5.958 -0.2374 -0.1208  0.1313
  741POPS   GL111241  15.306   5.296   6.258 -0.2408 -0.1507 -0.0919
  741POPS   GL211242  15.597   5.076   6.186  0.1127 -0.1939  0.0622
  741POPS   C1A11243  15.378   5.178   6.648 -0.1742 -0.2708 -0.1640
  741POPS   D2A11244  15.526   5.202   7.049  0.0581 -0.0919  0.0710
  741POPS   C3A11245  15.373   5.088   7.369  0.3836 -0.1918  0.3816
  741POPS   C4A11246  15.178   4.968   7.677 -0.0683  0.2290 -0.0752
  741POPS   C1B11247  15.879   4.954   6.626  0.3922  0.0672 -0.0313
  741POPS   C2B11248  15.969   5.063   7.128 -0.0456 -0.0006 -0.1952
  741POPS   C3B11249  16.174   5.122   7.594 -0.1981  0.1411  0.1040
  741POPS   C4B11250  16.357   5.087   7.963  0.5337  0.4446 -0.2492
  742POPS   CNO11251   4.700  16.630   6.144 -0.0921  0.0812 -0.0200
  742POPS   PO411252   4.955  17.001   6.089 -0.2435 -0.0640 -0.1430
  742POPS   GL111253   4.904  17.151   6.522  0.2616  0.0514 -0.0211
  742POPS   GL211254   4.738  16.924   6.655 -0.2076 -0.0628  0.1606
  742POPS   C1A11255   5.007  17.277   6.930 -0.0896  0.2559 -0.1164
  742POPS   D2A11256   5.098  17.261   7.311 -0.0879 -0.0481  0.2017
  742POPS   C3A11257   4.852  17.422   7.584 -0.0750  0.1267  0.3947
  742POPS   C4A11258   4.493  17.609   7.819  0.0750 -0.1255  0.1038
  742POPS   C1B11259   4.651  16.979   7.122 -0.2704 -0.1707 -0.2897
  742POPS   C2B11260   4.839  16.885   7.495  0.2974  0.0472  0.2532
  742POPS   C3B11261   4.738  16.723   7.935  0.2581 -0.0906  0.4155
  742POPS   C4B11262   4.535  16.863   8.283  0.0457  0.0071  0.3058
  743POPS   CNO11263  17.611  16.094   5.993 -0.0577  0.2100 -0.0079
  743POPS   PO411264  17.404  15.873   6.176 -0.3719 -0.1416  0.0733
  743POPS   GL111265  17.607  15.717   6.464 -0.0377  0.1056  0.0321
  743POPS   GL211266  17.776  15.398   6.484  0.1546  0.0545  0.0554
  743POPS   C1A11267  17.675  15.791   6.842 -0.2403  0.0341  0.2294
  743POPS   D2A11268  17.791  15.898   7.329 -0.0948 -0.2262 -0.2024
  743POPS   C3A11269  17.776  15.789   7.786 -0.3009 -0.1564  0.0602
  743POPS   C4A11270  17.855  15.942   8.187  0.1939 -0.0809 -0.3603
  743POPS   C1B11271  17.840  15.346   6.893  0.2336  0.0554  0.0685
  743POPS   C2B11272  17.848  15.357   7.232 -0.0258  0.1244 -0.1924
  743POPS   C3B11273  18.007  15.214   7.709  0.2472 -0.1299 -0.0011
  743POPS   C4B11274  18.033  15.364   8.159  0.1957  0.1741 -0.2930
  744POPS   CNO11275   3.274   5.268   6.090  0.0329  0.3131 -0.0905
  744POPS   PO411276   3.573   5.422   5.981 -0.0884 -0.0047  0.0104
  744POPS   GL111277   3.689   5.354   6.417 -0.2670  0.2068 -0.0587
  744POPS   GL211278   3.882   5.081   6.458 -0.1768  0.1196  0.2233
  744POPS   C1A11279   3.855   5.682   6.629  0.0137  0.0128  0.3985
  744POPS   D2A11280   3.829   5.591   7.004  0.1236  0.0915 -0.0244
  744POPS   C3A11281   3.783   5.785   7.288  0.2566  0.0301 -0.1697
  744POPS   C4A11282   3.825   5.857   7.720 -0.1014 -0.0048  0.1122
  744POPS   C1B11283   4.023   5.151   6.882  0.1129  0.1894 -0.0023
  744POPS   C2B11284   3.962   5.142   7.347 -0.0196  0.1027  0.1171
  744POPS   C3B11285   3.832   5.352   7.753  0.3880  0.1491 -0.1023
  744POPS   C4B11286   3.908   5.464   8.128  0.1914 -0.0654 -0.2792
  745POPS   CNO11287  12.435  12.394   6.422 -0.0899 -0.4070  0.1158
  745POPS   PO411288  12.203  12.103   6.383 -0.1764 -0.0663  0.0346
  745POPS   GL111289  12.271  12.064   6.774 -0.3159 -0.0051 -0.2091
  745POPS   GL211290  12.476  11.894   6.833 -0.2719  0.0810 -0.3500
  745POPS   C1A11291  12.140  11.949   7.219  0.1874  0.0577  0.1234
  745POPS   D2A11292  11.918  11.913   7.548 -0.1056  0.3624  0.1416
  745POPS   C3A11293  12.103  11.788   7.916  0.0201 -0.2007  0.1522
  745POPS   C4A11294  12.338  11.653   8.201 -0.1295 -0.0109 -0.0391
  745POPS   C1B11295  12.624  11.957   7.222 -0.1234  0.0380 -0.1070
  745POPS   C2B11296  12.523  11.865   7.550  0.1149 -0.3092  0.1351
  745POPS   C3B11297  12.646  11.946   7.957  0.0517 -0.3525  0.1568
  745POPS   C4B11298  12.941  12.151   8.101  0.0662 -0.6181  0.2151
  746POPS   CNO11299   7.780   1.593   6.158  0.2407  0.0451  0.1089
  746POPS   PO411300   7.401   1.819   6.163 -0.1619 -0.0209  0.0425
  746POPS   GL111301   7.372   2.178   6.461 -0.0387  0.2139 -0.0472
  746POPS   GL211302   7.451   2.512   6.234 -0.3318 -0.2287 -0.0754
  746POPS   C1A11303   7.373   2.403   6.901  0.1657  0.0969 -0.0997
  746POPS   D2A11304   7.534   2.350   7.338  0.0450  0.0869  0.0329
  746POPS   C3A11305   7.602   2.363   7.754 -0.2823  0.1757  0.0004
  746POPS   C4A11306   7.461   2.430   8.190 -0.0082  0.1566  0.0738
  746POPS   C1B11307   7.539   2.792   6.564 -0.2972 -0.0192  0.2660
  746POPS   C2B11308   7.824   2.720   6.962  0.1123 -0.0048 -0.0144
  746POPS   C3B11309   8.005   2.339   7.243 -0.1283  0.0283 -0.1883
  746POPS   C4B11310   8.483   2.242   7.284 -0.0127  0.2679  0.0069
  747POPS   CNO11311   4.026   6.504   5.476 -0.0005  0.0513  0.2540
  747POPS   PO411312   3.608   6.420   5.671 -0.3743  0.0843  0.0389
  747POPS   GL111313   3.511   6.231   6.123  0.1149  0.2640 -0.0729
  747POPS   GL211314   3.813   6.474   6.328  0.1884  0.0649  0.1180
  747POPS   C1A11315   3.136   6.408   6.362 -0.0825  0.0810  0.1556
  747POPS   D2A11316   2.732   6.454   6.479 -0.1545 -0.1310  0.1268
  747POPS   C3A11317   2.398   6.150   6.448 -0.2370  0.1353 -0.0598
  747POPS   C4A11318   1.989   5.829   6.555  0.2542 -0.1663 -0.1098
  747POPS   C1B11319   3.947   6.946   6.429 -0.2067  0.1028  0.2923
  747POPS   C2B11320   4.152   7.317   6.515  0.1769 -0.3185 -0.0899
  747POPS   C3B11321   4.311   7.711   6.260 -0.2545 -0.1081 -0.0516
  747POPS   C4B11322   4.457   8.067   6.139 -0.0362  0.0832  0.0118
  748POPS   CNO11323  17.366  13.236   6.544 -0.1712  0.0458 -0.1756
  748POPS   PO411324  17.228  12.840   6.712  0.1490 -0.0534  0.0007
  748POPS   GL111325  17.595  13.022   6.976  0.0580  0.0593 -0.0342
  748POPS   GL211326  17.708  13.355   6.912  0.3351 -0.0047 -0.1984
  748POPS   C1A11327  17.590  13.241   7.418  0.1373 -0.2893 -0.4130
  748POPS   D2A11328  17.652  13.389   7.898 -0.3739 -0.0705 -0.2379
  748POPS   C3A11329  17.631  13.236   8.296 -0.0657  0.1685 -0.0272
  748POPS   C4A11330  17.795  12.812   8.550 -0.1646 -0.0506 -0.2780
  748POPS   C1B11331  18.086  13.343   7.176  0.0723  0.1630  0.1481
  748POPS   C2B11332  18.110  13.183   7.553  0.1030  0.2907 -0.0501
  748POPS   C3B11333  18.106  13.375   7.899  0.0151 -0.1570  0.0113
  748POPS   C4B11334  18.105  13.418   8.332  0.0192  0.1074  0.1138
  749POPS   CNO11335   3.032   0.398   6.184 -0.1836  0.0018 -0.0616
  749POPS   PO411336   3.349   0.731   6.288 -0.1014 -0.0275  0.0814
  749POPS   GL111337   3.622   0.432   6.512 -0.0276 -0.1423  0.0538
  749POPS   GL211338   3.808   0.263   6.555 -0.1573  0.3569  0.1284
  749POPS   C1A11339   3.559   0.233   6.965  0.0335 -0.0674  0.1851
  749POPS   D2A11340   3.532   0.347   7.434  0.0522 -0.1547 -0.1117
  749POPS   C3A11341   3.556   0.765   7.755  0.2850  0.2277  0.0936
  749POPS   C4A11342   3.577   1.149   7.872  0.1484  0.1862  0.2143
  749POPS   C1B11343   4.043   0.437   6.757  0.0031  0.0946  0.2038
  749POPS   C2B11344   3.953   0.431   7.266  0.1511  0.1008  0.0698
  749POPS   C3B11345   3.938   0.467   7.707 -0.2450  0.3624  0.0798
  749POPS   C4B11346   4.093   0.341   8.168  0.0203 -0.1487 -0.0906
  750POPS   CNO11347   9.683   7.314   5.975 -0.0836  0.3340 -0.3647
  750POPS   PO411348  10.061   7.286   6.216  0.0751 -0.0539  0.0741
  750POPS   GL111349  10.132   7.225   6.659  0.0010 -0.1506 -0.2066
  750POPS   GL211350  10.006   6.823   6.847  0.0038  0.2826 -0.0770
  750POPS   C1A11351  10.102   7.242   7.093 -0.0245 -0.0929  0.2480
  750POPS   D2A11352  10.084   7.519   7.422  0.0765 -0.0709  0.0709
  750POPS   C3A11353  10.069   7.350   7.769 -0.0386  0.1323 -0.0722
  750POPS   C4A11354   9.949   7.537   8.229  0.0421 -0.0875 -0.0529
  750POPS   C1B11355  10.072   6.773   7.244  0.0010 -0.1431  0.1600
  750POPS   C2B11356  10.041   6.854   7.621 -0.0240  0.2814 -0.2240
  750POPS   C3B11357   9.714   7.075   8.031  0.1286 -0.3486  0.0374
  750POPS   C4B11358   9.271   7.101   8.191  0.2450 -0.2435  0.0970
  751POPS   CNO11359  10.370   9.710   5.814  0.0594  0.1895  0.0933
  751POPS   PO411360  10.152   9.919   6.222 -0.2117  0.3412 -0.0430
  751POPS   GL111361  10.034   9.882   6.616  0.1709  0.2542 -0.0343
  751POPS   GL211362   9.828  10.081   6.675 -0.0644 -0.1576  0.0073
  751POPS   C1A11363  10.259   9.814   7.103  0.2743 -0.2063  0.1376
  751POPS   D2A11364  10.247   9.641   7.581 -0.1576 -0.1959  0.1596
  751POPS   C3A11365  10.089   9.504   7.953 -0.0564 -0.1823 -0.0970
  751POPS   C4A11366  10.077   9.491   8.464 -0.1764  0.0609  0.2573
  751POPS   C1B11367   9.858  10.111   7.109 -0.2090 -0.1794  0.1538
  751POPS   C2B11368   9.784   9.923   7.448 -0.0310 -0.2575 -0.2581
  751POPS   C3B11369   9.826   9.914   7.878  0.1095  0.5270  0.0061
  751POPS   C4B11370   9.778   9.914   8.280  0.3308 -0.0029  0.1881
  752POPS   CNO11371   6.750  13.989   6.466  0.4989 -0.1349  0.0094
  752POPS   PO411372   6.629  13.528   6.293 -0.0828 -0.0483  0.1480
  752POPS   GL111373   6.602  13.664   6.812  0.0945 -0.2496 -0.1958
  752POPS   GL211374   6.320  13.579   6.965  0.1489  0.1974  0.3219
  752POPS   C1A11375   6.691  13.457   7.215 -0.0356 -0.0174 -0.0755
  752POPS   D2A11376   6.911  13.283   7.514 -0.3423  0.3110 -0.0816
  752POPS   C3A11377   6.860  13.287   7.954 -0.0796 -0.0293 -0.0632
  752POPS   C4A11378   6.727  13.722   8.199 -0.2147 -0.0640 -0.2043
  752POPS   C1B11379   6.099  13.485   7.379  0.0419 -0.0800 -0.2020
  752POPS   C2B11380   6.046  13.483   7.767  0.0526 -0.0444 -0.2844
  752POPS   C3B11381   5.970  13.841   8.091  0.2127  0.0332 -0.3792
  752POPS   C4B11382   5.885  13.999   8.511 -0.1526 -0.0327 -0.1353
  753POPS   CNO11383  10.972   4.617   5.971  0.2689  0.2275 -0.0605
  753POPS   PO411384  11.178   4.403   6.299  0.0457 -0.1026  0.6884
  753POPS   GL111385  11.079   4.424   6.644  0.2251 -0.1733 -0.1717
  753POPS   GL211386  11.332   4.470   6.822  0.1311 -0.0740  0.2117
  753POPS   C1A11387  10.816   4.536   6.990 -0.0023 -0.1345 -0.1545
  753POPS   D2A11388  10.699   4.846   7.264 -0.2473 -0.0409  0.0465
  753POPS   C3A11389  10.448   4.902   7.714  0.3433  0.1872 -0.0857
  753POPS   C4A11390  10.504   4.612   7.991  0.2662 -0.0427 -0.2176
  753POPS   C1B11391  11.544   4.443   7.263 -0.0751 -0.1379  0.1721
  753POPS   C2B11392  11.573   4.454   7.796 -0.0952  0.1324  0.0308
  753POPS   C3B11393  11.728   4.501   8.281 -0.4601 -0.3034  0.2099
  753POPS   C4B11394  12.172   4.554   8.446  0.1257 -0.3872 -0.1220
  754POPS   CNO11395  17.747   0.106   5.844 -0.2362  0.1515 -0.1926
  754POPS   PO411396  17.869   0.446   6.107 -0.0725  0.1931  0.0224
  754POPS   GL111397  17.748   0.368   6.510  0.3364 -0.3243  0.0681
  754POPS   GL211398  17.953   0.582   6.689 -0.3948  0.1789 -0.4738
  754POPS   C1A11399  17.465   0.415   6.880  0.2393  0.2035 -0.0348
  754POPS   D2A11400  17.339   0.354   7.293 -0.0146 -0.2302  0.3027
  754POPS   C3A11401  17.182   0.457   7.664  0.0763 -0.0502 -0.0664
  754POPS   C4A11402  16.855   0.342   7.882  0.1725  0.3314  0.0871
  754POPS   C1B11403  17.982   0.567   7.115 -0.0601  0.0690 -0.2017
  754POPS   C2B11404  17.851   0.645   7.559 -0.1287  0.0070  0.1233
  754POPS   C3B11405  17.833   0.648   8.007  0.2346 -0.0596  0.3936
  754POPS   C4B11406  17.897   0.602   8.404  0.0980 -0.0201 -0.1533
  755POPS   CNO11407   5.376  11.430   6.374  0.0028  0.0755  0.0501
  755POPS   PO411408   5.729  11.183   6.491  0.2537 -0.1495 -0.2948
  755POPS   GL111409   5.744  11.367   6.878 -0.0187  0.1717  0.3254
  755POPS   GL211410   6.055  11.415   6.960 -0.1168 -0.1669 -0.0541
  755POPS   C1A11411   5.513  11.510   7.175  0.0705  0.1931  0.0421
  755POPS   D2A11412   5.409  11.600   7.639 -0.1690  0.1091 -0.3123
  755POPS   C3A11413   5.251  11.382   8.066  0.0346 -0.2552  0.0973
  755POPS   C4A11414   5.126  11.433   8.505 -0.1419  0.0673  0.2593
  755POPS   C1B11415   5.966  11.304   7.292  0.1706 -0.1225 -0.1601
  755POPS   C2B11416   5.824  11.323   7.635  0.1100 -0.2018  0.0049
  755POPS   C3B11417   5.803  11.290   7.968  0.1792  0.0879 -0.0767
  755POPS   C4B11418   5.671  11.516   8.342 -0.1087 -0.1676 -0.0497
  756POPS   CNO11419  13.325   3.012   5.574 -0.0625  0.3033  0.1247
  756POPS   PO411420  12.955   2.752   5.640 -0.1958 -0.0371 -0.0598
  756POPS   GL111421  13.103   2.698   6.023 -0.2511 -0.3840 -0.1731
  756POPS   GL211422  13.031   2.301   6.121  0.2015  0.0010  0.2028
  756POPS   C1A11423  13.340   2.881   6.369  0.1749  0.1891  0.2820
  756POPS   D2A11424  13.387   2.946   6.785  0.0486 -0.0635 -0.2910
  756POPS   C3A11425  13.494   2.675   7.139 -0.1682 -0.2377 -0.3835
  756POPS   C4A11426  13.631   2.272   7.257 -0.0691  0.3531 -0.0591
  756POPS   C1B11427  12.905   2.585   6.464 -0.0282  0.1538  0.0390
  756POPS   C2B11428  12.593   2.655   6.667 -0.2965  0.2766  0.2390
  756POPS   C3B11429  12.231   2.589   6.975  0.0165 -0.4689 -0.0433
  756POPS   C4B11430  12.412   2.395   7.337 -0.2363  0.2563  0.2947
  757POPS   CNO11431   9.814  17.433   5.892  0.0695  0.2476  0.0635
  757POPS   PO411432   9.683  17.707   6.177 -0.2001  0.1053  0.0100
  757POPS   GL111433  10.012  18.007   6.489 -0.1607  0.3991  0.2885
  757POPS   GL211434  10.365  17.805   6.685 -0.1607  0.2828  0.0054
  757POPS   C1A11435  10.279  18.268   6.662 -0.0346  0.3411 -0.1655
  757POPS   D2A11436  10.347  18.573   7.042  0.1220 -0.0824 -0.2365
  757POPS   C3A11437  10.187  18.616   7.323  0.0263  0.1002  0.0047
  757POPS   C4A11438  10.154  18.457   7.712  0.0904  0.1038 -0.1998
  757POPS   C1B11439  10.382  18.058   7.128  0.0156 -0.0315  0.1333
  757POPS   C2B11440  10.383  18.068   7.518 -0.1646  0.1974  0.0941
  757POPS   C3B11441  10.407  17.896   7.876 -0.1789  0.0804  0.3830
  757POPS   C4B11442  10.274  17.869   8.290  0.2933  0.2538 -0.2317
  758POPS   CNO11443   8.324   7.739   6.111  0.1383 -0.3135  0.2284
  758POPS   PO411444   8.010   8.018   6.198  0.0661  0.2334  0.0599
  758POPS   GL111445   8.004   7.868   6.655 -0.1252 -0.0364  0.0403
  758POPS   GL211446   7.662   7.710   6.742 -0.0559 -0.1293  0.0314
  758POPS   C1A11447   7.861   7.999   7.126 -0.2721  0.1359  0.1096
  758POPS   D2A11448   7.799   8.052   7.543 -0.0110  0.1554 -0.2171
  758POPS   C3A11449   7.784   7.706   7.761  0.0514  0.1173 -0.2204
  758POPS   C4A11450   7.839   7.263   7.660  0.4611  0.1398 -0.3364
  758POPS   C1B11451   7.322   7.841   7.097  0.0425  0.2978  0.0262
  758POPS   C2B11452   6.937   8.128   7.095 -0.1280 -0.0248 -0.0190
  758POPS   C3B11453   6.581   7.963   7.225 -0.0942 -0.2550 -0.2762
  758POPS   C4B11454   6.299   7.929   7.496  0.3023 -0.3108 -0.1968
  759POPS   CNO11455   8.330  15.070   6.141 -0.0008  0.0069 -0.2877
  759POPS   PO411456   8.549  15.612   6.124 -0.1575  0.0925 -0.0131
  759POPS   GL111457   8.591  15.834   6.632  0.0128 -0.1473  0.1706
  759POPS   GL211458   8.671  15.513   6.665  0.4072  0.3139  0.2180
  759POPS   C1A11459   8.474  15.853   7.138 -0.1565 -0.2301 -0.2349
  759POPS   D2A11460   8.621  15.918   7.513  0.2117 -0.2252  0.0898
  759POPS   C3A11461   8.444  15.884   7.921 -0.2929 -0.1169  0.2548
  759POPS   C4A11462   8.198  16.081   8.217 -0.0168  0.2862 -0.1484
  759POPS   C1B11463   9.080  15.645   6.906 -0.0314  0.1519  0.1334
  759POPS   C2B11464   9.109  15.808   7.338  0.1821  0.1604 -0.2761
  759POPS   C3B11465   9.178  16.040   7.702 -0.0777  0.0986 -0.4200
  759POPS   C4B11466   9.128  16.022   8.176 -0.0533  0.2256 -0.4021
  760POPS   CNO11467   1.066  11.185   6.134  0.2723  0.4395 -0.1431
  760POPS   PO411468   0.643  11.238   6.253 -0.2153 -0.1162 -0.0901
  760POPS   GL111469   0.510  11.142   6.631  0.1346  0.1151 -0.1161
  760POPS   GL211470   0.399  10.848   6.777  0.1049  0.1152 -0.0232
  760POPS   C1A11471   0.275  11.403   6.842  0.3293  0.0246 -0.1853
  760POPS   D2A11472   0.308  11.419   7.291 -0.2738  0.1017 -0.0373
  760POPS   C3A11473   0.425  11.419   7.639  0.1588  0.0412 -0.0450
  760POPS   C4A11474   0.318  11.468   8.038  0.1802  0.0199 -0.0895
  760POPS   C1B11475   0.380  10.705   7.217  0.0198 -0.1306  0.1018
  760POPS   C2B11476   0.475  10.554   7.628 -0.0100  0.0180  0.2470
  760POPS   C3B11477   0.838  10.362   7.836 -0.2714  0.0872 -0.1598
  760POPS   C4B11478   1.271  10.369   8.169  0.0346 -0.1163  0.0117
  761POPS   CNO11479  12.273  16.724   6.181 -0.2852  0.1785 -0.0435
  761POPS   PO411480  12.651  16.896   6.094 -0.1429 -0.2034 -0.0423
  761POPS   GL111481  12.822  17.290   6.375 -0.0711  0.4883  0.1716
  761POPS   GL211482  12.523  17.450   6.545  0.0914 -0.0304  0.1270
  761POPS   C1A11483  12.938  17.408   6.842 -0.1771 -0.0426 -0.0036
  761POPS   D2A11484  13.084  17.338   7.287 -0.3783 -0.1523 -0.1368
  761POPS   C3A11485  13.336  17.113   7.621  0.1290  0.3217 -0.1918
  761POPS   C4A11486  13.213  17.123   8.108  0.1800  0.0319 -0.2106
  761POPS   C1B11487  12.494  17.575   6.920  0.2181  0.0878  0.2033
  761POPS   C2B11488  12.577  17.299   7.344  0.1579 -0.1385  0.0111
  761POPS   C3B11489  12.858  17.298   7.755  0.0079 -0.2000  0.1662
  761POPS   C4B11490  12.601  17.315   8.136 -0.0892 -0.1090 -0.1162
  762POPS   CNO11491  12.710   7.822   5.800 -0.1669  0.0328  0.1215
  762POPS   PO411492  13.031   7.863   6.156  0.3133 -0.1672 -0.0595
  762POPS   GL111493  13.190   8.043   6.517 -0.1608  0.1793 -0.0419
  762POPS   GL211494  13.504   7.818   6.581 -0.0084 -0.0469  0.2407
  762POPS   C1A11495  13.068   7.944   6.854 -0.0454 -0.0654 -0.2249
  762POPS   D2A11496  13.111   7.849   7.266  0.0904  0.0396  0.1811
  762POPS   C3A11497  13.036   8.039   7.579  0.2537 -0.1857  0.1436
  762POPS   C4A11498  13.047   8.219   8.054 -0.1581 -0.0788  0.3766
  762POPS   C1B11499  13.557   7.822   7.037  0.1161  0.1569  0.3642
  762POPS   C2B11500  13.612   7.831   7.448  0.1496 -0.5657 -0.1249
  762POPS   C3B11501  13.858   7.761   7.878 -0.1256  0.2557  0.0354
  762POPS   C4B11502  13.863   7.773   8.315  0.4169  0.2170  0.2362
  763POPS   CNO11503   6.693  10.937   6.622 -0.3891 -0.0512 -0.1070
  763POPS   PO411504   6.919  10.610   6.631  0.0853  0.0106 -0.2168
  763POPS   GL111505   6.863  10.315   6.925 -0.0370 -0.0041 -0.0950
  763POPS   GL211506   6.567  10.147   6.941 -0.0065  0.2768 -0.0055
  763POPS   C1A11507   7.024  10.185   7.280  0.1080  0.0058 -0.1319
  763POPS   D2A11508   6.969  10.232   7.768  0.0312  0.1086  0.3326
  763POPS   C3A11509   7.185  10.162   8.120 -0.2494  0.0592 -0.1936
  763POPS   C4A11510   7.428  10.362   8.449 -0.1135 -0.0583  0.0399
  763POPS   C1B11511   6.463   9.972   7.298  0.0461 -0.2392  0.2672
  763POPS   C2B11512   6.542   9.971   7.746 -0.3310  0.1801  0.2123
  763POPS   C3B11513   6.695  10.175   8.158 -0.0303  0.0656 -0.0723
  763POPS   C4B11514   6.898  10.194   8.507 -0.1924 -0.0528  0.3530
  764POPS   CNO11515  10.886   8.267   5.665 -0.2738 -0.1032  0.4037
  764POPS   PO411516  10.693   8.336   6.166 -0.0628 -0.3403  0.0885
  764POPS   GL111517  10.556   8.362   6.564  0.1719  0.1573 -0.2913
  764POPS   GL211518  10.717   8.616   6.682  0.0524 -0.2144 -0.0093
  764POPS   C1A11519  10.365   8.125   6.710  0.1538 -0.0397  0.2264
  764POPS   D2A11520  10.269   7.956   7.146  0.0248 -0.0060  0.1673
  764POPS   C3A11521  10.025   8.040   7.515  0.0235  0.1764 -0.1791
  764POPS   C4A11522   9.900   8.030   8.035 -0.1081 -0.0845 -0.1329
  764POPS   C1B11523  10.668   8.362   7.045 -0.1587 -0.3578  0.0356
  764POPS   C2B11524  10.530   8.192   7.479 -0.1401  0.0548 -0.1610
  764POPS   C3B11525  10.436   8.312   7.950 -0.3171 -0.3004 -0.1076
  764POPS   C4B11526  10.151   8.576   8.279 -0.0539  0.0628 -0.3197
  765POPS   CNO11527   8.176  12.984   5.972  0.2408 -0.1319 -0.0815
  765POPS   PO411528   8.246  12.842   6.315 -0.3445 -0.1350 -0.1376
  765POPS   GL111529   8.052  12.975   6.745 -0.0964 -0.1885  0.3371
  765POPS   GL211530   7.623  13.030   6.820  0.1752  0.0394 -0.2569
  765POPS   C1A11531   8.251  12.867   7.147  0.1488 -0.1479  0.0632
  765POPS   D2A11532   8.198  13.064   7.684 -0.2416 -0.0605 -0.0246
  765POPS   C3A11533   8.326  13.139   8.051  0.0400  0.2952 -0.1431
  765POPS   C4A11534   8.350  13.136   8.417 -0.1250 -0.0655 -0.0194
  765POPS   C1B11535   7.829  13.114   7.248  0.0846 -0.0055 -0.0172
  765POPS   C2B11536   7.769  13.250   7.660  0.0386 -0.0831 -0.1734
  765POPS   C3B11537   8.008  13.495   7.887  0.0695 -0.1635  0.2867
  765POPS   C4B11538   8.277  13.604   8.298  0.0376 -0.1368 -0.1021
  766POPS   CNO11539   6.652   2.617   5.816 -0.2678  0.0893  0.2271
  766POPS   PO411540   6.279   2.432   5.937  0.1213 -0.1539 -0.0284
  766POPS   GL111541   6.391   2.540   6.371 -0.1198  0.3435  0.2393
  766POPS   GL211542   6.517   2.871   6.415 -0.0166 -0.4952  0.1003
  766POPS   C1A11543   6.615   2.568   6.856 -0.0673 -0.1011 -0.2371
  766POPS   D2A11544   6.584   2.847   7.262 -0.3851  0.1438 -0.0210
  766POPS   C3A11545   6.612   2.702   7.624  0.1516  0.2064 -0.1944
  766POPS   C4A11546   6.555   2.403   8.061 -0.2141  0.2239 -0.2370
  766POPS   C1B11547   6.230   2.865   6.827  0.0093  0.1391 -0.1724
  766POPS   C2B11548   6.054   2.766   7.269  0.0020  0.3378  0.1160
  766POPS   C3B11549   6.014   2.803   7.726  0.2994 -0.0694 -0.1664
  766POPS   C4B11550   5.879   3.054   8.098  0.1172  0.1478  0.0995
  767POPS   CNO11551  11.830   3.558   5.818 -0.0480  0.3155  0.2581
  767POPS   PO411552  11.917   3.742   6.199  0.2795 -0.2052 -0.3373
  767POPS   GL111553  12.160   3.495   6.542 -0.0939  0.4569  0.3598
  767POPS   GL211554  12.032   3.226   6.703 -0.1008  0.0823 -0.0363
  767POPS   C1A11555  12.462   3.550   6.865 -0.2919  0.0598 -0.0887
  767POPS   D2A11556  12.612   3.522   7.297 -0.3017  0.0944 -0.2612
  767POPS   C3A11557  12.763   3.151   7.540 -0.2085  0.0611 -0.1809
  767POPS   C4A11558  12.765   2.774   7.456  0.0376 -0.1606 -0.2683
  767POPS   C1B11559  12.075   3.427   7.194 -0.0836 -0.0756 -0.2803
  767POPS   C2B11560  12.251   3.394   7.590  0.5076  0.1899 -0.1161
  767POPS   C3B11561  12.479   3.238   7.948 -0.2123 -0.2949  0.0573
  767POPS   C4B11562  12.694   3.491   8.280 -0.0001  0.0801  0.2767
  768POPS   CNO11563   5.866   1.943   5.256  0.0506 -0.2020 -0.0655
  768POPS   PO411564   5.752   1.696   5.664  0.1618  0.1075 -0.1403
  768POPS   GL111565   5.392   1.603   5.844  0.0611  0.1063  0.2988
  768POPS   GL211566   5.584   1.528   6.137  0.1152 -0.0134  0.0325
  768POPS   C1A11567   5.079   1.431   6.100  0.0185  0.0677 -0.1021
  768POPS   D2A11568   5.046   1.501   6.439  0.0664 -0.1306  0.0297
  768POPS   C3A11569   4.683   1.273   6.697  0.0139  0.3043  0.0263
  768POPS   C4A11570   4.405   0.868   6.717  0.2321  0.1004  0.1054
  768POPS   C1B11571   5.507   1.346   6.480 -0.2264  0.0052  0.0101
  768POPS   C2B11572   5.517   1.389   6.884 -0.0370 -0.0414 -0.1900
  768POPS   C3B11573   5.333   1.043   7.223  0.3157  0.0289  0.1427
  768POPS   C4B11574   4.988   1.138   7.513  0.0515  0.0643 -0.1189
  769POPS   CNO11575  13.347  17.265   5.638  0.1422  0.0416  0.0599
  769POPS   PO411576  13.311  17.694   5.733  0.1930  0.1525 -0.0975
  769POPS   GL111577  13.236  17.879   6.054 -0.1850  0.0204  0.1531
  769POPS   GL211578  13.505  18.005   6.096  0.0545 -0.1505  0.2105
  769POPS   C1A11579  13.199  18.134   6.449  0.0405 -0.0397 -0.0479
  769POPS   D2A11580  13.287  18.453   6.651  0.3531  0.1000  0.1972
  769POPS   C3A11581  13.267  18.380   7.128 -0.0992  0.1688  0.1754
  769POPS   C4A11582  13.117  18.607   7.505  0.2156 -0.3261 -0.1798
  769POPS   C1B11583  13.755  18.166   6.465 -0.0252 -0.1856 -0.3654
  769POPS   C2B11584  13.735  18.306   6.923 -0.1077 -0.2931 -0.2323
  769POPS   C3B11585  13.698  18.311   7.386 -0.0406 -0.2384 -0.1032
  769POPS   C4B11586  13.962  18.378   7.787  0.3715  0.0333  0.0438
  770POPS   CNO11587   4.212  13.190   5.590 -0.2279  0.1757 -0.2536
  770POPS   PO411588   4.053  13.245   5.977 -0.1597 -0.0509 -0.2383
  770POPS   GL111589   4.215  13.468   6.306  0.0089 -0.3197  0.3107
  770POPS   GL211590   4.543  13.442   6.464 -0.1441 -0.1169  0.1182
  770POPS   C1A11591   4.174  13.750   6.671  0.3069  0.1392  0.3014
  770POPS   D2A11592   4.305  13.942   7.055  0.1308 -0.1798 -0.1096
  770POPS   C3A11593   3.930  14.145   7.296  0.0149 -0.0482 -0.0108
  770POPS   C4A11594   3.889  14.161   7.781 -0.1500  0.1239 -0.2678
  770POPS   C1B11595   4.651  13.433   6.860 -0.3552 -0.0514  0.0901
  770POPS   C2B11596   4.679  13.590   7.247  0.1793  0.2163  0.4534
  770POPS   C3B11597   4.649  13.582   7.690 -0.0202 -0.0773  0.1019
  770POPS   C4B11598   4.542  13.610   8.066 -0.0232  0.2019  0.0602
  771YOPS   CNO11599   6.875  17.107   6.377  0.0262 -0.1925  0.2920
  771YOPS   PO411600   7.069  16.851   6.224  0.1852  0.0556  0.3157
  771YOPS   GL111601   7.078  16.814   6.673 -0.0091  0.2108  0.0152
  771YOPS   GL211602   7.354  16.652   6.747  0.3182 -0.0396 -0.0658
  771YOPS   C1A11603   7.075  16.970   7.104  0.2826  0.2410  0.1539
  771YOPS   D2A11604   7.136  16.981   7.517 -0.1439 -0.2021 -0.1358
  771YOPS   C3A11605   7.269  17.079   7.862 -0.2153  0.0652  0.1488
  771YOPS   C4A11606   7.188  16.854   8.187 -0.1802 -0.1977  0.2151
  771YOPS   C1B11607   7.244  16.551   7.207 -0.1831  0.0230 -0.0194
  771YOPS   C2B11608   7.181  16.528   7.680  0.1017  0.0173  0.1054
  771YOPS   D3B11609   7.397  16.437   8.102  0.0300  0.0148 -0.4250
  771YOPS   C4B11610   7.030  16.395   8.291  0.1921 -0.0701  0.2117
  772YOPS   CNO11611   6.733   1.497   5.629 -0.0176  0.3808 -0.2937
  772YOPS   PO411612   6.443   1.554   5.925 -0.0955 -0.2001  0.0083
  772YOPS   GL111613   6.368   1.345   6.351  0.1956  0.2922  0.0167
  772YOPS   GL211614   6.045   1.375   6.472  0.1661 -0.1644  0.0202
  772YOPS   C1A11615   6.499   1.186   6.665 -0.1818  0.0632  0.0391
  772YOPS   D2A11616   6.447   1.152   7.050 -0.0751  0.1775  0.0041
  772YOPS   C3A11617   6.314   1.228   7.510  0.0965 -0.0941 -0.0856
  772YOPS   C4A11618   6.657   1.407   7.787 -0.0360 -0.0699 -0.0072
  772YOPS   C1B11619   5.984   1.226   6.846  0.0427 -0.4073  0.0996
  772YOPS   C2B11620   5.853   1.128   7.235  0.0404  0.3570 -0.2521
  772YOPS   D3B11621   5.839   1.504   7.520  0.1396 -0.2193  0.0363
  772YOPS   C4B11622   6.202   1.676   7.665 -0.0160 -0.1105  0.0810
  773YOPS   CNO11623  11.074   2.622   6.009  0.3092  0.2976  0.1691
  773YOPS   PO411624  11.248   2.311   6.329 -0.3490  0.0346  0.0446
  773YOPS   GL111625  10.875   2.415   6.550 -0.0100 -0.2521 -0.0029
  773YOPS   GL211626  11.005   2.755   6.519 -0.2011 -0.0452  0.0974
  773YOPS   C1A11627  10.817   2.281   6.910  0.4290  0.1204 -0.2488
  773YOPS   D2A11628  10.749   2.148   7.331 -0.2942  0.2204 -0.2191
  773YOPS   C3A11629  10.494   2.254   7.677  0.2273  0.5462 -0.0729
  773YOPS   C4A11630  10.374   2.621   7.847 -0.0074  0.2231  0.0124
  773YOPS   C1B11631  11.023   2.763   6.937 -0.0223 -0.1671  0.0956
  773YOPS   C2B11632  11.193   2.946   7.326 -0.0678  0.0754  0.0172
  773YOPS   D3B11633  11.282   3.059   7.722 -0.1793 -0.2117  0.0546
  773YOPS   C4B11634  11.599   2.914   8.035  0.1386 -0.2546  0.1792
  774YOPS   CNO11635   0.717   5.839   5.756  0.1534  0.5699 -0.0942
  774YOPS   PO411636   0.736   6.072   6.092 -0.0410 -0.2868  0.0717
  774YOPS   GL111637   0.614   5.935   6.481 -0.1458  0.1078 -0.0326
  774YOPS   GL211638   0.826   5.809   6.651  0.1009 -0.0630  0.4805
  774YOPS   C1A11639   0.306   5.930   6.746  0.2620 -0.0766 -0.1612
  774YOPS   D2A11640   0.229   5.827   7.171  0.2255  0.3634  0.0548
  774YOPS   C3A11641   0.257   5.945   7.661  0.3800 -0.1069 -0.0597
  774YOPS   C4A11642   0.008   5.865   8.109  0.2361 -0.1299 -0.0415
  774YOPS   C1B11643   0.802   5.930   7.088  0.2467 -0.0725 -0.0901
  774YOPS   C2B11644   0.722   5.790   7.504  0.0804  0.1938 -0.2401
  774YOPS   D3B11645   0.740   5.712   7.898 -0.0159  0.2730  0.0096
  774YOPS   C4B11646   0.889   5.380   8.115 -0.0586  0.3585  0.0498
  775YOPS   CNO11647  12.261   6.974   5.533  0.0993  0.1521 -0.2144
  775YOPS   PO411648  12.330   7.412   5.806 -0.1963  0.1931 -0.1961
  775YOPS   GL111649  12.473   7.377   6.257 -0.2278 -0.0559  0.0312
  775YOPS   GL211650  12.540   7.665   6.280  0.0237 -0.0846  0.0302
  775YOPS   C1A11651  12.587   7.106   6.526 -0.4037  0.1405  0.2444
  775YOPS   D2A11652  12.649   6.632   6.668 -0.1474  0.1484  0.1882
  775YOPS   C3A11653  12.529   6.335   6.958 -0.0466 -0.1161  0.2201
  775YOPS   C4A11654  12.629   5.852   7.092  0.0321 -0.1815 -0.0324
  775YOPS   C1B11655  12.751   7.554   6.720  0.0797  0.2117  0.0477
  775YOPS   C2B11656  12.803   7.472   7.261  0.0253 -0.1895  0.2303
  775YOPS   D3B11657  12.825   7.291   7.725  0.0558  0.0625 -0.2299
  775YOPS   C4B11658  13.115   7.088   7.903  0.2992 -0.2109  0.0796
  776YOPS   CNO11659  16.616  13.712   6.766 -0.0236  0.0594 -0.2366
  776YOPS   PO411660  16.530  13.234   6.888 -0.1011 -0.0521  0.1253
  776YOPS   GL111661  16.748  12.980   7.127  0.0213 -0.3117 -0.3028
  776YOPS   GL211662  17.061  12.960   7.224  0.2816  0.0832  0.2024
  776YOPS   C1A11663  16.652  12.936   7.563 -0.1066 -0.0124 -0.0878
  776YOPS   D2A11664  16.768  12.902   8.026  0.0561 -0.0993 -0.0064
  776YOPS   C3A11665  16.706  13.226   8.251  0.2249  0.0187  0.2299
  776YOPS   C4A11666  16.489  13.421   8.624 -0.0774 -0.0782  0.2549
  776YOPS   C1B11667  17.200  13.034   7.614 -0.0277  0.0092 -0.3743
  776YOPS   C2B11668  17.195  13.164   8.039 -0.2658  0.0389  0.3258
  776YOPS   D3B11669  17.228  13.603   8.226 -0.0487 -0.0435 -0.1138
  776YOPS   C4B11670  17.404  13.620   8.604 -0.0754 -0.2265  0.1503
  777YOPS   CNO11671  16.055  10.308   6.252  0.0071 -0.0791  0.2188
  777YOPS   PO411672  16.424  10.059   6.265  0.0589  0.2154  0.1502
  777YOPS   GL111673  16.598   9.942   6.613  0.0984 -0.2405 -0.0253
  777YOPS   GL211674  16.620   9.573   6.616  0.3113 -0.0393 -0.0876
  777YOPS   C1A11675  16.871   9.823   7.001 -0.0624  0.1341 -0.2919
  777YOPS   D2A11676  17.066   9.665   7.369  0.1856  0.0185 -0.0559
  777YOPS   C3A11677  17.176   9.652   7.852  0.0204 -0.1678 -0.0402
  777YOPS   C4A11678  17.014   9.771   8.168 -0.2200 -0.2611  0.0857
  777YOPS   C1B11679  16.529   9.390   6.998  0.0698  0.3493 -0.1858
  777YOPS   C2B11680  16.637   9.174   7.303 -0.0957 -0.0424 -0.0248
  777YOPS   D3B11681  16.728   9.324   7.723 -0.0208 -0.4015 -0.0624
  777YOPS   C4B11682  16.566   9.115   8.126  0.1426 -0.1963 -0.2817
  778YOPS   CNO11683   8.470   4.135   6.541 -0.2235  0.1965  0.2165
  778YOPS   PO411684   8.738   4.510   6.650 -0.1064  0.0478  0.2544
  778YOPS   GL111685   8.360   4.458   6.893 -0.0258 -0.2588 -0.2593
  778YOPS   GL211686   8.465   4.723   7.121  0.0051 -0.0470  0.0759
  778YOPS   C1A11687   8.265   4.257   7.212 -0.1136 -0.0996 -0.3217
  778YOPS   D2A11688   8.270   4.018   7.556  0.0797 -0.2231 -0.2803
  778YOPS   C3A11689   8.203   3.608   7.875  0.0773 -0.2794  0.0811
  778YOPS   C4A11690   7.716   3.499   7.653 -0.2365 -0.1980  0.0652
  778YOPS   C1B11691   8.486   4.634   7.549  0.2150  0.1466  0.4515
  778YOPS   C2B11692   8.442   4.467   7.868 -0.1242  0.2226 -0.1388
  778YOPS   D3B11693   8.241   4.095   8.013  0.0290  0.1140 -0.0763
  778YOPS   C4B11694   8.253   3.826   8.410  0.1191 -0.1677 -0.1425
  779YOPS   CNO11695  16.388   2.332   5.647 -0.3126 -0.0465 -0.2227
  779YOPS   PO411696  16.321   2.661   5.932  0.2130 -0.0491  0.4438
  779YOPS   GL111697  16.307   2.314   6.242  0.0240  0.1596 -0.0018
  779YOPS   GL211698  15.948   2.253   6.273  0.1312  0.1238 -0.2009
  779YOPS   C1A11699  16.302   2.085   6.643 -0.1587 -0.1696 -0.1144
  779YOPS   D2A11700  16.083   2.202   6.972 -0.0602  0.0283  0.0548
  779YOPS   C3A11701  16.042   2.336   7.404  0.0627  0.1328 -0.0479
  779YOPS   C4A11702  16.362   2.577   7.536 -0.0495 -0.2091 -0.0498
  779YOPS   C1B11703  15.613   2.222   6.702  0.0278  0.0250 -0.3168
  779YOPS   C2B11704  15.623   2.225   7.103 -0.4053 -0.3547  0.1278
  779YOPS   D3B11705  15.714   1.915   7.422 -0.0638 -0.0944 -0.2304
  779YOPS   C4B11706  15.832   2.015   7.824 -0.0197  0.2826 -0.0527
  780YOPS   CNO11707  14.533  14.410   6.240  0.1102 -0.1700 -0.1455
  780YOPS   PO411708  14.685  14.058   6.321  0.0547 -0.0110 -0.3106
  780YOPS   GL111709  14.787  13.958   6.811 -0.2511 -0.1794  0.0508
  780YOPS   GL211710  14.942  13.902   7.073 -0.3264  0.1673 -0.0800
  780YOPS   C1A11711  14.495  14.184   7.129  0.1518 -0.2916  0.1194
  780YOPS   D2A11712  14.194  14.375   7.325  0.3217  0.2354  0.3718
  780YOPS   C3A11713  14.181  14.496   7.750  0.2019  0.0884 -0.0200
  780YOPS   C4A11714  14.203  14.213   8.052  0.0620 -0.1045  0.0980
  780YOPS   C1B11715  15.003  13.860   7.434  0.1026 -0.0603  0.0175
  780YOPS   C2B11716  14.800  13.601   7.734 -0.1144 -0.1330  0.0356
  780YOPS   D3B11717  14.788  13.488   8.075 -0.1422 -0.1265  0.3442
  780YOPS   C4B11718  14.725  13.670   8.396  0.1920  0.1003 -0.1647
  781YOPS   CNO11719   8.263   6.872   5.632  0.2096  0.1751  0.1617
  781YOPS   PO411720   8.303   6.752   6.125 -0.0188  0.0490  0.0058
  781YOPS   GL111721   8.374   6.596   6.574 -0.0023  0.2116  0.0157
  781YOPS   GL211722   8.380   6.280   6.682  0.1199  0.2264 -0.0072
  781YOPS   C1A11723   8.493   6.717   7.020  0.0009  0.2304  0.2494
  781YOPS   D2A11724   8.612   6.712   7.463  0.0006  0.0790 -0.1004
  781YOPS   C3A11725   8.533   6.643   7.972  0.1597 -0.2053 -0.0643
  781YOPS   C4A11726   8.731   6.263   8.231 -0.0892 -0.2006 -0.0291
  781YOPS   C1B11727   8.564   6.117   7.074 -0.1904  0.0685 -0.0799
  781YOPS   C2B11728   8.473   6.217   7.429  0.0392  0.0727  0.2261
  781YOPS   D3B11729   8.541   6.197   7.816  0.2093 -0.3167  0.0293
  781YOPS   C4B11730   8.493   5.859   8.034 -0.0205 -0.5266 -0.2912
  782YOPS   CNO11731  12.796   3.659   5.845 -0.5034  0.1507  0.0919
  782YOPS   PO411732  12.717   4.050   6.012  0.1059  0.1053 -0.2250
  782YOPS   GL111733  12.390   4.077   6.381  0.0239 -0.0694 -0.2843
  782YOPS   GL211734  12.619   4.086   6.584  0.1132 -0.3127 -0.2183
  782YOPS   C1A11735  12.219   4.000   6.786  0.0445  0.2725 -0.1661
  782YOPS   D2A11736  12.288   3.880   7.281 -0.2821  0.1583 -0.2048
  782YOPS   C3A11737  12.450   3.954   7.649  0.2272 -0.0444  0.0708
  782YOPS   C4A11738  12.502   3.970   8.034 -0.4099  0.3268  0.2741
  782YOPS   C1B11739  12.684   3.991   7.002 -0.3589 -0.2062 -0.1648
  782YOPS   C2B11740  12.828   4.083   7.353 -0.1793  0.2613  0.1656
  782YOPS   D3B11741  13.140   3.930   7.645  0.3372 -0.1457  0.0196
  782YOPS   C4B11742  12.875   3.557   7.832  0.1066 -0.1881 -0.0789
  783YOPS   CNO11743   1.572   6.764   5.924 -0.0125 -0.3249 -0.1653
  783YOPS   PO411744   1.905   6.896   6.087  0.0567 -0.1693 -0.0572
  783YOPS   GL111745   2.031   6.888   6.494 -0.1011  0.0324  0.2322
  783YOPS   GL211746   1.830   7.027   6.650 -0.3113  0.1057  0.0414
  783YOPS   C1A11747   2.380   6.707   6.680  0.1114 -0.2249 -0.0891
  783YOPS   D2A11748   2.567   6.405   6.962 -0.0457  0.0781  0.2670
  783YOPS   C3A11749   2.761   6.025   7.199 -0.3900  0.1102  0.2087
  783YOPS   C4A11750   2.992   6.093   7.688 -0.0359 -0.1684 -0.0641
  783YOPS   C1B11751   2.019   6.956   7.062 -0.0028  0.0750 -0.0875
  783YOPS   C2B11752   2.382   6.738   7.256 -0.2760 -0.2828 -0.1235
  783YOPS   D3B11753   2.615   6.398   7.514 -0.2642  0.0485  0.0906
  783YOPS   C4B11754   2.593   6.254   7.957 -0.1257  0.3012 -0.2699
  784YOPS   CNO11755  14.566   0.697   5.807  0.1152  0.3471  0.2779
  784YOPS   PO411756  14.441   0.248   6.072  0.1323 -0.1572 -0.1219
  784YOPS   GL111757  14.516   0.196   6.441  0.0539 -0.0277  0.0209
  784YOPS   GL211758  14.243   0.097   6.480 -0.1049 -0.3309 -0.2355
  784YOPS   C1A11759  14.700   0.542   6.674 -0.1415  0.0410  0.2166
  784YOPS   D2A11760  14.607   0.941   6.534 -0.1155  0.1567  0.0412
  784YOPS   C3A11761  14.172   1.164   6.563  0.1938 -0.1486  0.1513
  784YOPS   C4A11762  13.955   1.178   7.031  0.1956  0.1409 -0.1415
  784YOPS   C1B11763  14.288   0.241   6.939  0.1910  0.0719  0.1901
  784YOPS   C2B11764  14.272   0.378   7.384  0.0875  0.1004 -0.0909
  784YOPS   D3B11765  14.313   0.190   7.793  0.1401 -0.2365 -0.1774
  784YOPS   C4B11766  14.051   0.262   8.231  0.0252  0.3046 -0.0420
  785YOPS   CNO11767   4.971   6.354   5.611 -0.1361  0.3543  0.1384
  785YOPS   PO411768   4.764   6.719   5.856  0.1088  0.0639 -0.0771
  785YOPS   GL111769   4.587   6.508   6.256 -0.1412 -0.1028 -0.1721
  785YOPS   GL211770   4.320   6.414   6.328 -0.0185 -0.0802 -0.0991
  785YOPS   C1A11771   4.566   6.362   6.770  0.1060  0.0896  0.0398
  785YOPS   D2A11772   4.489   6.456   7.190  0.3200  0.0514  0.1888
  785YOPS   C3A11773   4.401   6.622   7.519  0.0373  0.0013 -0.2716
  785YOPS   C4A11774   4.057   6.812   7.758  0.3825  0.1105  0.0753
  785YOPS   C1B11775   4.097   6.567   6.808 -0.2917 -0.2057 -0.0385
  785YOPS   C2B11776   4.214   6.897   7.127  0.1946 -0.1385 -0.1111
  785YOPS   D3B11777   4.306   7.140   7.449 -0.3293  0.3932 -0.0956
  785YOPS   C4B11778   4.472   7.095   7.817 -0.0869 -0.0319  0.3315
  786YOPS   CNO11779   9.233  17.705   5.871 -0.0768 -0.4253 -0.0871
  786YOPS   PO411780   8.975  17.904   6.190 -0.0223 -0.1762 -0.2144
  786YOPS   GL111781   9.166  18.069   6.509  0.0456  0.3015  0.1510
  786YOPS   GL211782   9.480  17.951   6.559 -0.2683  0.1708 -0.0452
  786YOPS   C1A11783   9.160  18.387   6.752 -0.1293  0.3980 -0.1088
  786YOPS   D2A11784   9.120  18.413   7.267 -0.0612 -0.1565 -0.0273
  786YOPS   C3A11785   9.129  18.285   7.658  0.1230 -0.1859 -0.1897
  786YOPS   C4A11786   9.094  18.487   8.041  0.1420  0.0630 -0.1907
  786YOPS   C1B11787   9.393  17.927   6.977  0.1590 -0.1627 -0.0274
  786YOPS   C2B11788   9.269  17.851   7.297  0.0178 -0.0962 -0.1523
  786YOPS   D3B11789   9.467  17.912   7.667 -0.0497 -0.0311  0.2146
  786YOPS   C4B11790   9.347  18.057   8.112  0.0192 -0.2616  0.3651
  787YOPS   CNO11791   6.492   8.632   5.985 -0.1631 -0.2870  0.0726
  787YOPS   PO411792   6.686   8.405   6.360  0.0030 -0.0298 -0.2867
  787YOPS   GL111793   6.681   8.412   6.718  0.1666 -0.0131 -0.1109
  787YOPS   GL211794   6.759   8.705   6.854 -0.1547  0.0645  0.0382
  787YOPS   C1A11795   6.361   8.390   7.095 -0.0331 -0.4769 -0.2735
  787YOPS   D2A11796   6.202   8.383   7.361  0.3534 -0.3082  0.2361
  787YOPS   C3A11797   6.179   8.350   7.789 -0.3772 -0.2890  0.0280
  787YOPS   C4A11798   6.232   7.951   8.041 -0.0718 -0.0865  0.2743
  787YOPS   C1B11799   6.832   8.580   7.232  0.1455 -0.3276 -0.1236
  787YOPS   C2B11800   6.645   8.346   7.554  0.0874 -0.0161 -0.0939
  787YOPS   D3B11801   6.709   7.958   7.792  0.3603 -0.1528 -0.1022
  787YOPS   C4B11802   6.992   7.972   8.115 -0.3327 -0.3460 -0.1944
  788YOPS   CNO11803  12.514  15.329   5.854  0.1017  0.3261  0.2195
  788YOPS   PO411804  12.674  15.002   6.047  0.3577  0.1537 -0.1647
  788YOPS   GL111805  12.633  15.107   6.449 -0.2257  0.3023  0.0985
  788YOPS   GL211806  12.878  15.306   6.650  0.0856  0.0115  0.0255
  788YOPS   C1A11807  12.578  15.031   6.959  0.1492 -0.1392 -0.0821
  788YOPS   D2A11808  12.531  15.238   7.303  0.2012 -0.1754  0.1740
  788YOPS   C3A11809  12.557  15.324   7.709 -0.1714 -0.0174  0.1373
  788YOPS   C4A11810  12.223  15.417   7.900  0.0700 -0.0295  0.2732
  788YOPS   C1B11811  13.023  15.185   7.014 -0.2374 -0.1045 -0.0217
  788YOPS   C2B11812  12.973  15.123   7.522  0.1311 -0.3276 -0.1552
  788YOPS   D3B11813  12.919  15.153   8.059 -0.2267 -0.0010 -0.0365
  788YOPS   C4B11814  12.571  15.367   8.262 -0.1744 -0.0495  0.0653
  789YOPS   CNO11815   3.268  15.110   5.735 -0.2211 -0.2242 -0.0713
  789YOPS   PO411816   3.359  15.330   6.094 -0.0249  0.0661  0.1215
  789YOPS   GL111817   3.287  15.120   6.372 -0.0502 -0.1856 -0.1932
  789YOPS   GL211818   3.642  15.099   6.518 -0.0921  0.3203 -0.0304
  789YOPS   C1A11819   3.143  15.000   6.819  0.1337 -0.1148  0.1702
  789YOPS   D2A11820   3.274  15.173   7.145 -0.1068 -0.4727 -0.1905
  789YOPS   C3A11821   3.463  15.449   7.451 -0.2180  0.0780 -0.3803
  789YOPS   C4A11822   3.713  15.506   7.876 -0.0515  0.2749  0.0381
  789YOPS   C1B11823   3.597  14.836   6.864  0.0818 -0.0205 -0.1647
  789YOPS   C2B11824   3.545  14.767   7.205  0.5237 -0.0303 -0.2438
  789YOPS   D3B11825   3.397  14.407   7.536  0.2174 -0.0393 -0.0413
  789YOPS   C4B11826   3.521  14.377   8.022  0.2258  0.2973  0.2479
  790YOPS   CNO11827   1.937   4.462   5.809 -0.3295 -0.0061  0.1296
  790YOPS   PO411828   1.461   4.471   5.790  0.1341  0.3272  0.4418
  790YOPS   GL111829   1.517   4.359   6.232  0.1311 -0.1459 -0.2583
  790YOPS   GL211830   1.790   4.123   6.281  0.3966  0.2063 -0.1325
  790YOPS   C1A11831   1.590   4.440   6.661  0.0684  0.0176 -0.0558
  790YOPS   D2A11832   1.712   4.339   7.158 -0.0809  0.1472 -0.1086
  790YOPS   C3A11833   1.899   4.195   7.508  0.1040 -0.4195 -0.1366
  790YOPS   C4A11834   2.309   3.981   7.437 -0.0678 -0.2276 -0.4950
  790YOPS   C1B11835   1.940   4.021   6.675 -0.1308  0.1182 -0.3283
  790YOPS   C2B11836   1.881   3.808   7.098  0.1433 -0.0979  0.1720
  790YOPS   D3B11837   1.868   3.601   7.457  0.1051 -0.1795  0.2174
  790YOPS   C4B11838   1.636   3.673   7.777  0.0247 -0.0863  0.0310
  791YOPS   CNO11839  13.346   5.987   5.814  0.3611 -0.2010 -0.1667
  791YOPS   PO411840  13.032   6.247   5.863 -0.5326  0.1030  0.0505
  791YOPS   GL111841  12.879   5.945   6.198  0.0216 -0.1745 -0.1714
  791YOPS   GL211842  12.845   6.157   6.521 -0.2511 -0.1010 -0.0161
  791YOPS   C1A11843  13.020   5.607   6.526 -0.0751  0.0774 -0.0867
  791YOPS   D2A11844  13.180   5.282   6.865  0.1065 -0.2011  0.2696
  791YOPS   C3A11845  13.164   5.163   7.213  0.0976  0.1417  0.2370
  791YOPS   C4A11846  13.511   5.028   7.446  0.1322 -0.2259  0.0980
  791YOPS   C1B11847  12.570   5.767   6.623 -0.1140  0.0330  0.1385
  791YOPS   C2B11848  12.685   5.403   6.893 -0.1093  0.1996 -0.1652
  791YOPS   D3B11849  12.761   5.409   7.362 -0.1139 -0.1153 -0.0281
  791YOPS   C4B11850  12.564   5.350   7.830  0.0588  0.1893 -0.0156
  792YOPS   CNO11851  14.275   3.176   5.636  0.3281  0.3173 -0.0464
  792YOPS   PO411852  13.832   3.195   5.658  0.0692 -0.1693  0.1160
  792YOPS   GL111853  13.929   3.111   6.027 -0.0940 -0.0581  0.1596
  792YOPS   GL211854  14.098   3.315   6.230  0.0145 -0.1328  0.0481
  792YOPS   C1A11855  13.857   2.968   6.446 -0.1130 -0.1835  0.3326
  792YOPS   D2A11856  13.876   2.988   6.947 -0.1172  0.1788  0.0495
  792YOPS   C3A11857  13.829   2.976   7.437 -0.3927 -0.4160 -0.2701
  792YOPS   C4A11858  13.677   2.650   7.671  0.2310  0.3160 -0.0735
  792YOPS   C1B11859  14.000   3.420   6.677  0.2651 -0.0644 -0.0733
  792YOPS   C2B11860  14.031   3.381   7.137  0.1286 -0.2421  0.2029
  792YOPS   D3B11861  13.884   3.465   7.554  0.1331 -0.1198  0.2588
  792YOPS   C4B11862  13.738   3.184   7.926 -0.3913 -0.0470  0.2898
  793YOPS   CNO11863   9.777  14.267   5.925 -0.2934 -0.1040 -0.0119
  793YOPS   PO411864  10.143  14.417   6.008  0.1051  0.0436 -0.0933
  793YOPS   GL111865  10.273  14.615   6.355  0.1098  0.2316  0.1363
  793YOPS   GL211866  10.104  14.906   6.430  0.2718  0.1063 -0.1644
  793YOPS   C1A11867  10.620  14.870   6.531  0.3022  0.2937 -0.1127
  793YOPS   D2A11868  10.937  14.921   6.816  0.1471 -0.1576 -0.0600
  793YOPS   C3A11869  11.292  14.788   6.900  0.0199  0.1939 -0.1018
  793YOPS   C4A11870  11.691  14.958   6.810 -0.0132 -0.3491  0.0527
  793YOPS   C1B11871  10.195  14.904   6.877 -0.1236  0.2838  0.1184
  793YOPS   C2B11872  10.510  14.775   7.041 -0.0705 -0.0406  0.0795
  793YOPS   D3B11873  10.732  14.536   7.176  0.0869 -0.0728 -0.0366
  793YOPS   C4B11874  11.080  14.618   7.440  0.1936  0.0168 -0.1320
  794YOPS   CNO11875   0.854  14.248   6.201  0.0416  0.1155  0.0839
  794YOPS   PO411876   1.210  13.969   6.180  0.2216 -0.3145  0.2129
  794YOPS   GL111877   1.317  14.176   6.509 -0.1655 -0.0110 -0.1087
  794YOPS   GL211878   1.403  14.525   6.668  0.3448  0.2678 -0.1340
  794YOPS   C1A11879   1.413  14.073   6.924 -0.0719 -0.0269  0.1805
  794YOPS   D2A11880   1.464  13.918   7.383 -0.2235  0.1466  0.2103
  794YOPS   C3A11881   1.417  13.731   7.852 -0.0002  0.0926  0.1517
  794YOPS   C4A11882   1.660  13.741   8.155  0.0163  0.1173 -0.4403
  794YOPS   C1B11883   1.334  14.526   7.053 -0.1741 -0.1079 -0.0029
  794YOPS   C2B11884   1.410  14.403   7.410  0.0165 -0.1329  0.0803
  794YOPS   D3B11885   1.665  14.247   7.744  0.2513 -0.1663  0.1515
  794YOPS   C4B11886   1.558  14.425   8.161  0.1644 -0.2434 -0.1225
  795YOPS   CNO11887   3.596   7.403   5.808 -0.1624 -0.2284 -0.2433
  795YOPS   PO411888   3.234   7.263   5.536 -0.0073 -0.0384  0.2763
  795YOPS   GL111889   3.173   7.291   6.031 -0.0185 -0.0886  0.2267
  795YOPS   GL211890   3.097   7.274   6.303 -0.0050  0.1062 -0.3143
  795YOPS   C1A11891   3.611   7.313   6.294  0.3692 -0.0098  0.1706
  795YOPS   D2A11892   3.719   7.239   6.784  0.0178  0.1619 -0.0252
  795YOPS   C3A11893   3.925   7.328   7.096 -0.2729 -0.0154  0.4149
  795YOPS   C4A11894   4.303   7.423   7.082 -0.4998 -0.1140 -0.2248
  795YOPS   C1B11895   3.237   7.215   6.745 -0.0503 -0.2027  0.1838
  795YOPS   C2B11896   3.380   7.114   7.137  0.1601 -0.0635  0.0687
  795YOPS   D3B11897   3.320   7.212   7.571 -0.1031  0.1939  0.2255
  795YOPS   C4B11898   3.250   7.499   7.947  0.0774 -0.1507 -0.0652
  796YOPS   CNO11899   0.452  14.145   6.519 -0.0817  0.3397 -0.0067
  796YOPS   PO411900   0.445  14.495   6.333  0.2299 -0.0834 -0.0486
  796YOPS   GL111901   0.779  14.528   6.631  0.1637 -0.1128  0.2082
  796YOPS   GL211902   0.971  14.790   6.694 -0.0451  0.0736  0.0344
  796YOPS   C1A11903   0.869  14.272   6.904  0.0517  0.0196 -0.1813
  796YOPS   D2A11904   0.986  14.161   7.189  0.0473 -0.0639  0.0648
  796YOPS   C3A11905   1.095  13.662   7.082 -0.1874  0.2583 -0.1075
  796YOPS   C4A11906   1.291  13.325   7.238  0.0234  0.0521 -0.1138
  796YOPS   C1B11907   0.886  14.864   7.145  0.0046 -0.2010  0.0148
  796YOPS   C2B11908   0.857  14.573   7.452  0.0025  0.4363 -0.0059
  796YOPS   D3B11909   0.792  14.567   7.984  0.1330 -0.1054  0.1616
  796YOPS   C4B11910   0.803  14.151   8.151  0.3436 -0.0734  0.1258
  797YOPS   CNO11911  13.505  11.424   6.858 -0.3339 -0.2433  0.1422
  797YOPS   PO411912  13.772  11.244   6.647 -0.0327  0.0849  0.0060
  797YOPS   GL111913  13.838  11.197   7.171 -0.3633 -0.0486 -0.0701
  797YOPS   GL211914  14.113  10.940   7.176 -0.1332 -0.2170 -0.1131
  797YOPS   C1A11915  13.813  11.249   7.571 -0.3920 -0.0023  0.1509
  797YOPS   D2A11916  13.843  11.469   7.898  0.0221 -0.1538  0.1757
  797YOPS   C3A11917  13.938  11.352   8.297 -0.1568  0.1299 -0.0525
  797YOPS   C4A11918  14.273  11.365   8.518  0.2493 -0.0623  0.0208
  797YOPS   C1B11919  14.154  10.890   7.582 -0.2533 -0.1689  0.0174
  797YOPS   C2B11920  14.062  10.673   7.961  0.0536 -0.2468  0.1508
  797YOPS   D3B11921  13.937  10.520   8.314  0.4023  0.0591  0.2064
  797YOPS   C4B11922  13.566  10.726   8.326 -0.0901 -0.0634  0.4720
  798YOPS   CNO11923   4.363  14.251   5.680 -0.0230 -0.0671  0.0166
  798YOPS   PO411924   4.001  14.203   5.809 -0.1860 -0.1437  0.0417
  798YOPS   GL111925   3.843  14.489   6.162 -0.1667 -0.1755  0.1012
  798YOPS   GL211926   3.919  14.178   6.365 -0.0068  0.3297 -0.1760
  798YOPS   C1A11927   3.919  14.679   6.444 -0.0283 -0.0306 -0.0545
  798YOPS   D2A11928   4.092  14.962   6.736  0.3267 -0.1940 -0.0015
  798YOPS   C3A11929   4.253  15.328   6.915  0.0801  0.0448 -0.3653
  798YOPS   C4A11930   4.382  15.578   6.667  0.0479  0.0786  0.1156
  798YOPS   C1B11931   3.951  14.317   6.796 -0.3549 -0.2291 -0.0612
  798YOPS   C2B11932   3.985  14.612   7.031 -0.3332 -0.0876 -0.1131
  798YOPS   D3B11933   4.027  14.876   7.307  0.1440  0.0165 -0.3033
  798YOPS   C4B11934   3.872  14.671   7.601  0.2523 -0.0062 -0.4934
  799YOPS   CNO11935   6.241  10.346   6.093  0.1460 -0.4674 -0.2541
  799YOPS   PO411936   6.289  10.690   6.414  0.1221 -0.0815 -0.1828
  799YOPS   GL111937   5.967  10.762   6.700  0.2312  0.0004 -0.0628
  799YOPS   GL211938   5.987  10.902   6.971 -0.2620  0.2290  0.0297
  799YOPS   C1A11939   5.868  10.461   7.094  0.0696  0.2711 -0.1153
  799YOPS   D2A11940   5.936  10.236   7.416 -0.0316 -0.0305  0.1432
  799YOPS   C3A11941   6.090   9.962   7.654 -0.0251 -0.1605  0.0439
  799YOPS   C4A11942   6.022   9.501   7.654 -0.1676  0.0362 -0.0440
  799YOPS   C1B11943   5.945  10.832   7.411 -0.0045  0.3211  0.0983
  799YOPS   C2B11944   5.826  10.717   7.859  0.0231 -0.2228  0.2162
  799YOPS   D3B11945   5.849  10.406   8.212 -0.0845  0.3132 -0.1506
  799YOPS   C4B11946   5.505  10.545   8.431 -0.2162 -0.2867  0.3758
  800YOPS   CNO11947   5.275   8.633   5.779  0.1988  0.2086  0.3529
  800YOPS   PO411948   4.932   8.564   5.628  0.4142 -0.0630 -0.1017
  800YOPS   GL111949   4.622   8.404   5.773  0.1481  0.2345 -0.0610
  800YOPS   GL211950   4.780   8.425   6.071  0.0518  0.0196 -0.2219
  800YOPS   C1A11951   4.279   8.492   5.885 -0.2315  0.0001 -0.2411
  800YOPS   D2A11952   4.019   8.643   6.233 -0.2912 -0.0981 -0.1423
  800YOPS   C3A11953   3.984   8.540   6.730 -0.1234 -0.0028 -0.1461
  800YOPS   C4A11954   3.756   8.139   6.935  0.1443  0.0055  0.0033
  800YOPS   C1B11955   4.989   8.501   6.418  0.1093 -0.2917 -0.1224
  800YOPS   C2B11956   4.899   8.458   6.872  0.2021 -0.0010 -0.0616
  800YOPS   D3B11957   4.684   8.260   7.262 -0.1717 -0.0966  0.2878
  800YOPS   C4B11958   4.506   8.582   7.524 -0.1412  0.2609 -0.1486
  801POPE   NH311959  15.198   3.231   6.132  0.1785  0.1962  0.0858
  801POPE   PO411960  15.116   3.572   5.956 -0.1168 -0.1960  0.0432
  801POPE   GL111961  15.379   3.685   6.321  0.0481 -0.0425  0.3975
  801POPE   GL211962  15.453   3.988   6.479 -0.1604  0.0430  0.1567
  801POPE   C1A11963  15.213   3.637   6.723  0.0359 -0.2925  0.0589
  801POPE   D2A11964  14.891   3.761   6.860  0.3213 -0.1443 -0.2226
  801POPE   C3A11965  14.778   3.990   7.318  0.1832 -0.0980 -0.0552
  801POPE   C4A11966  14.493   4.022   7.701 -0.0969 -0.2698  0.1428
  801POPE   C1B11967  15.404   4.077   6.906 -0.2293  0.2594  0.1728
  801POPE   C2B11968  15.522   4.174   7.393  0.2725  0.1230 -0.1436
  801POPE   C3B11969  15.393   4.126   7.821  0.0706 -0.3280 -0.1470
  801POPE   C4B11970  15.190   4.345   8.230 -0.1803 -0.3801  0.1627
  802POPE   NH311971   1.074   8.135   6.053  0.4301 -0.0506 -0.0826
  802POPE   PO411972   0.620   8.067   6.192  0.2791  0.3716  0.2428
  802POPE   GL111973   0.741   8.207   6.517  0.2126 -0.0123 -0.0139
  802POPE   GL211974   0.863   8.596   6.478  0.0908  0.0624 -0.0483
  802POPE   C1A11975   0.703   7.945   6.969 -0.1036  0.1179 -0.1268
  802POPE   D2A11976   1.015   7.768   7.265 -0.3721  0.3170 -0.2600
  802POPE   C3A11977   1.386   7.930   7.560  0.0220 -0.0101 -0.0979
  802POPE   C4A11978   1.460   8.154   7.957 -0.1774 -0.0051 -0.1883
  802POPE   C1B11979   0.877   8.596   6.923  0.1154  0.0854 -0.0124
  802POPE   C2B11980   0.588   8.723   7.203 -0.1456  0.0918  0.4574
  802POPE   C3B11981   0.578   8.914   7.690 -0.0781  0.2284 -0.0625
  802POPE   C4B11982   0.552   9.278   8.041  0.1770 -0.0623  0.0991
  803POPE   NH311983  16.513  17.805   6.192  0.1166  0.0946  0.2630
  803POPE   PO411984  16.981  17.807   6.118 -0.2067 -0.0291 -0.3439
  803POPE   GL111985  17.119  17.978   6.513  0.0533  0.4167 -0.0103
  803POPE   GL211986  17.382  17.821   6.649 -0.0509 -0.2346 -0.0457
  803POPE   C1A11987  16.959  18.036   6.957 -0.0927 -0.1023  0.2422
  803POPE   D2A11988  16.851  18.006   7.352  0.2217  0.0026 -0.2528
  803POPE   C3A11989  16.505  18.311   7.524  0.1290  0.2787  0.3023
  803POPE   C4A11990  16.442  18.486   7.862  0.1038  0.1495  0.0363
  803POPE   C1B11991  17.327  17.700   7.133  0.0187 -0.2784  0.1861
  803POPE   C2B11992  17.330  17.758   7.530  0.0620 -0.0781 -0.1191
  803POPE   C3B11993  17.049  17.767   7.775  0.0459 -0.0988  0.1681
  803POPE   C4B11994  16.957  17.848   8.204  0.2862 -0.3128  0.1566
  804POPE   NH311995  14.953   2.271   6.041 -0.0681  0.2247  0.3050
  804POPE   PO411996  14.526   2.457   5.988 -0.2428  0.1534  0.0430
  804POPE   GL111997  14.666   2.408   6.468 -0.1631 -0.1802 -0.2402
  804POPE   GL211998  14.697   2.113   6.502  0.0353 -0.1628  0.3612
  804POPE   C1A11999  14.576   2.458   6.887  0.0337  0.0501 -0.1024
  804POPE   D2A12000  14.543   2.468   7.350 -0.2111 -0.2246  0.0084
  804POPE   C3A12001  14.265   2.181   7.544 -0.3258 -0.1761 -0.0913
  804POPE   C4A12002  13.815   2.168   7.675 -0.0348 -0.0444  0.1523
  804POPE   C1B12003  14.585   1.930   6.841  0.1717  0.2837  0.1042
  804POPE   C2B12004  14.698   1.949   7.220 -0.0568  0.0043  0.2543
  804POPE   C3B12005  14.751   2.017   7.600 -0.0575 -0.1694  0.1342
  804POPE   C4B12006  14.658   2.144   7.978 -0.1550 -0.1986 -0.2158
  805POPE   NH312007   7.152  11.161   6.610  0.1887 -0.3270 -0.0985
  805POPE   PO412008   7.505  10.878   6.736  0.4363  0.1100  0.0822
  805POPE   GL112009   7.177  10.945   7.063  0.3344  0.0550  0.1588
  805POPE   GL212010   6.882  10.770   7.117 -0.2868 -0.2561  0.0122
  805POPE   C1A12011   7.311  11.073   7.460  0.1528  0.0476 -0.1080
  805POPE   D2A12012   7.462  11.189   7.873  0.0783 -0.1908 -0.1129
  805POPE   C3A12013   7.186  11.170   8.205  0.0983  0.0350  0.0266
  805POPE   C4A12014   7.075  11.197   8.687 -0.3217 -0.2608  0.1139
  805POPE   C1B12015   6.952  10.696   7.554 -0.1414 -0.1564 -0.1221
  805POPE   C2B12016   6.900  10.677   7.961  0.2180 -0.0971  0.0626
  805POPE   C3B12017   6.686  10.828   8.223  0.0195 -0.1706 -0.3576
  805POPE   C4B12018   6.551  11.015   8.670  0.2587 -0.3159  0.0121
  806POPE   NH312019   1.632  12.703   5.816  0.1041 -0.3804  0.1936
  806POPE   PO412020   1.986  12.756   6.051  0.1211  0.0883 -0.0819
  806POPE   GL112021   2.127  12.977   6.408  0.0363 -0.1138  0.0075
  806POPE   GL212022   2.354  13.073   6.614 -0.1017 -0.0987 -0.0834
  806POPE   C1A12023   1.805  13.192   6.694  0.1580 -0.1024  0.0660
  806POPE   D2A12024   1.437  13.242   6.798 -0.1086  0.1677  0.4090
  806POPE   C3A12025   1.114  12.910   7.013 -0.1708 -0.0319  0.2520
  806POPE   C4A12026   0.667  12.690   6.918 -0.1811  0.0162  0.1624
  806POPE   C1B12027   2.641  13.184   6.995  0.0958  0.2342  0.0745
  806POPE   C2B12028   2.633  12.988   7.378 -0.1331  0.1152 -0.1192
  806POPE   C3B12029   2.778  12.944   7.848  0.0088 -0.1904 -0.0058
  806POPE   C4B12030   2.938  13.215   8.169 -0.5249  0.0729  0.0473
  807POPE   NH312031   6.383  13.249   6.605  0.1529 -0.1352 -0.0635
  807POPE   PO412032   6.094  12.960   6.451  0.1419  0.2692  0.0407
  807POPE   GL112033   5.958  12.916   6.790  0.2472 -0.0594 -0.1020
  807POPE   GL212034   6.256  13.110   7.079  0.0334 -0.0245  0.3683
  807POPE   C1A12035   5.841  12.885   7.214  0.0725  0.3495 -0.1858
  807POPE   D2A12036   5.834  13.068   7.679 -0.0242  0.1015  0.1110
  807POPE   C3A12037   5.921  13.113   8.125 -0.2086 -0.1477  0.0220
  807POPE   C4A12038   5.823  13.414   8.396  0.1370  0.0748  0.3326
  807POPE   C1B12039   6.413  13.109   7.405  0.2062 -0.0136  0.0435
  807POPE   C2B12040   6.375  13.121   7.827 -0.0621 -0.0754 -0.1824
  807POPE   C3B12041   6.345  13.369   8.152  0.1856 -0.0640 -0.2392
  807POPE   C4B12042   6.300  13.696   8.488 -0.2973  0.2459 -0.3612
  808POPE   NH312043  17.206  10.582   6.018 -0.1517  0.0828 -0.2035
  808POPE   PO412044  17.339  10.956   6.124 -0.0916  0.2436 -0.0825
  808POPE   GL112045  17.509  11.092   6.473  0.0475 -0.0136  0.3244
  808POPE   GL212046  17.849  11.049   6.556  0.0931 -0.0509  0.1636
  808POPE   C1A12047  17.260  11.091   6.886  0.1840 -0.1943  0.0977
  808POPE   D2A12048  17.164  11.373   7.287 -0.0513 -0.0418 -0.0179
  808POPE   C3A12049  17.415  11.068   7.504  0.0452  0.0287 -0.1073
  808POPE   C4A12050  17.476  11.053   7.918  0.2030  0.0776 -0.0678
  808POPE   C1B12051  17.828  11.020   6.956 -0.1461 -0.2170  0.1151
  808POPE   C2B12052  17.947  10.997   7.464  0.0917 -0.2135 -0.0585
  808POPE   C3B12053  18.064  11.010   7.844  0.1367 -0.0414  0.2268
  808POPE   C4B12054  18.129  11.066   8.346 -0.1410 -0.3762 -0.1823
  809POPE   NH312055   4.545  13.361   5.962  0.2470  0.0366 -0.2277
  809POPE   PO412056   4.479  12.994   6.142  0.1571  0.0737 -0.2562
  809POPE   GL112057   4.682  12.961   6.539  0.0356 -0.3210  0.1026
  809POPE   GL212058   4.524  12.802   6.670 -0.1486 -0.0253 -0.0520
  809POPE   C1A12059   4.922  12.975   6.956 -0.0878  0.1849  0.0920
  809POPE   D2A12060   4.870  13.143   7.448  0.0193  0.1124  0.0937
  809POPE   C3A12061   4.774  12.941   7.847  0.1051 -0.2240  0.4305
  809POPE   C4A12062   4.862  13.122   8.255  0.2032  0.0690 -0.0238
  809POPE   C1B12063   4.457  12.897   7.081 -0.0840 -0.1058 -0.0743
  809POPE   C2B12064   4.406  13.178   7.470  0.1770  0.2309  0.0981
  809POPE   C3B12065   4.248  13.146   7.927  0.1979 -0.3020 -0.1089
  809POPE   C4B12066   4.292  13.266   8.347  0.2904 -0.0337 -0.0053
  810POPE   NH312067  10.982   8.913   6.263  0.2242 -0.1434 -0.2883
  810POPE   PO412068  10.783   9.285   6.458 -0.0486  0.2213 -0.0982
  810POPE   GL112069  10.958   9.127   6.836  0.0209  0.0560 -0.2128
  810POPE   GL212070  11.148   8.919   6.772  0.1218  0.2036  0.0173
  810POPE   C1A12071  11.286   9.250   7.214  0.0322  0.1558  0.0641
  810POPE   D2A12072  11.396   9.259   7.713  0.3909  0.3262  0.0763
  810POPE   C3A12073  11.451   9.502   8.042 -0.0261  0.2400 -0.0232
  810POPE   C4A12074  11.669   9.549   8.438 -0.0495 -0.0671  0.0091
  810POPE   C1B12075  11.155   8.727   7.147  0.0405  0.1864  0.0259
  810POPE   C2B12076  11.281   8.834   7.503  0.1234 -0.0624 -0.1175
  810POPE   C3B12077  11.223   8.838   7.915 -0.3033 -0.2053 -0.2319
  810POPE   C4B12078  11.095   8.865   8.359 -0.0585  0.3772  0.1580
  811POPE   NH312079   4.551   3.279   5.502 -0.1593 -0.0433  0.2198
  811POPE   PO412080   4.528   3.037   5.923  0.0457  0.0479 -0.2686
  811POPE   GL112081   4.571   3.211   6.316  0.1215  0.2133  0.2427
  811POPE   GL212082   4.351   3.318   6.510  0.1457  0.0060 -0.0452
  811POPE   C1A12083   4.591   2.882   6.664  0.3039  0.3235  0.1347
  811POPE   D2A12084   4.540   2.625   7.060  0.0942 -0.1115 -0.1428
  811POPE   C3A12085   4.452   2.696   7.589  0.1402 -0.0991  0.2777
  811POPE   C4A12086   4.539   2.822   8.027 -0.3186  0.1603 -0.1550
  811POPE   C1B12087   4.271   3.466   6.856 -0.0635 -0.0706  0.1765
  811POPE   C2B12088   4.283   3.599   7.206 -0.2405 -0.0027  0.2297
  811POPE   C3B12089   4.089   3.522   7.579 -0.2803 -0.0872  0.1834
  811POPE   C4B12090   4.134   3.413   8.113 -0.1711 -0.1842 -0.2817
  812POPE   NH312091   7.952  11.766   6.527 -0.0235  0.0703  0.2428
  812POPE   PO412092   8.044  12.049   6.849  0.4460  0.1679 -0.1730
  812POPE   GL112093   8.070  11.963   7.317 -0.2107 -0.0953  0.0878
  812POPE   GL212094   7.885  12.122   7.486  0.2294 -0.5067  0.0513
  812POPE   C1A12095   8.296  11.821   7.519 -0.2591 -0.0458 -0.0696
  812POPE   D2A12096   8.655  11.797   7.724  0.2321  0.1103  0.2360
  812POPE   C3A12097   8.877  11.883   8.063  0.3222 -0.0420 -0.0312
  812POPE   C4A12098   8.957  12.069   8.373  0.0307  0.1521 -0.3144
  812POPE   C1B12099   7.702  11.994   7.907 -0.0745  0.0331  0.2640
  812POPE   C2B12100   7.606  11.910   8.300 -0.0757  0.3680  0.0391
  812POPE   C3B12101   7.625  12.252   8.622  0.0456  0.0111 -0.0084
  812POPE   C4B12102   7.598  12.523   8.933  0.1114  0.0532  0.0138
  813POPE   NH312103   0.278   5.823   6.050 -0.2544  0.1550  0.1039
  813POPE   PO412104  -0.085   5.702   5.844  0.2291  0.3731 -0.0512
  813POPE   GL112105  -0.227   5.758   6.288 -0.0434  0.1655  0.0261
  813POPE   GL212106   0.028   5.621   6.433 -0.0386 -0.2252  0.1815
  813POPE   C1A12107  -0.662   5.792   6.526 -0.0720  0.0293  0.4755
  813POPE   D2A12108  -0.641   5.792   6.965  0.1355  0.2525 -0.1203
  813POPE   C3A12109  -0.684   5.527   7.379 -0.0407  0.1369  0.1158
  813POPE   C4A12110  -0.625   5.391   7.765  0.2413 -0.1995 -0.2814
  813POPE   C1B12111  -0.190   5.659   6.805 -0.5326 -0.1376 -0.0051
  813POPE   C2B12112  -0.248   5.722   7.281  0.2132 -0.1552  0.0257
  813POPE   C3B12113  -0.246   5.707   7.635  0.1277 -0.4369 -0.1378
  813POPE   C4B12114  -0.164   5.296   7.764 -0.0200  0.1601 -0.1465
  814POPE   NH312115  13.896   1.780   5.884  0.0974  0.0508  0.0103
  814POPE   PO412116  14.342   1.519   5.803 -0.2033 -0.1018  0.0750
  814POPE   GL112117  14.415   1.529   6.266 -0.2013 -0.0878 -0.0850
  814POPE   GL212118  14.124   1.820   6.366  0.0553 -0.1212  0.2274
  814POPE   C1A12119  14.678   1.416   6.621  0.0014 -0.0464  0.1502
  814POPE   D2A12120  14.892   1.495   6.966  0.0944  0.2702 -0.3098
  814POPE   C3A12121  14.731   1.445   7.408  0.2606 -0.1538  0.2291
  814POPE   C4A12122  14.603   1.210   7.824  0.0601  0.1026  0.0721
  814POPE   C1B12123  14.165   1.687   6.730  0.3796  0.2392 -0.3185
  814POPE   C2B12124  14.408   1.334   7.015  0.0761  0.3445 -0.1003
  814POPE   C3B12125  14.494   1.034   7.307  0.1837  0.0595 -0.0025
  814POPE   C4B12126  14.861   0.913   7.444 -0.0565  0.0632 -0.0713
  815POPE   NH312127   8.441   8.044   6.509 -0.0413  0.2290 -0.2852
  815POPE   PO412128   8.730   8.382   6.521  0.3559 -0.3137  0.1246
  815POPE   GL112129   8.616   8.410   6.930 -0.0824 -0.0970 -0.1101
  815POPE   GL212130   8.471   8.169   7.000 -0.2033 -0.1433  0.1835
  815POPE   C1A12131   8.736   8.455   7.385  0.0508  0.0680 -0.1368
  815POPE   D2A12132   9.086   8.565   7.677 -0.0361 -0.5229  0.0660
  815POPE   C3A12133   9.225   8.257   7.992  0.0187 -0.1374  0.1456
  815POPE   C4A12134   9.430   7.964   8.274  0.0506  0.0950  0.0107
  815POPE   C1B12135   8.316   8.189   7.429  0.2152  0.2773  0.1318
  815POPE   C2B12136   8.116   8.276   7.837  0.0018 -0.3291 -0.1063
  815POPE   C3B12137   7.980   8.035   8.249 -0.1189 -0.0917 -0.1701
  815POPE   C4B12138   8.151   7.761   8.595  0.0380 -0.1488  0.2814
  816POPE   NH312139  15.477  10.452   6.703 -0.0705  0.0558 -0.0869
  816POPE   PO412140  15.513  10.257   6.396  0.0292  0.3832  0.0986
  816POPE   GL112141  15.633   9.943   6.696  0.0686  0.1664  0.0817
  816POPE   GL212142  15.484   9.656   6.669 -0.0546 -0.0731  0.2481
  816POPE   C1A12143  15.723   9.896   7.144 -0.0863 -0.1525  0.2432
  816POPE   D2A12144  15.516   9.680   7.503 -0.0801  0.4849  0.1658
  816POPE   C3A12145  15.672   9.537   7.868 -0.3782  0.1743  0.1345
  816POPE   C4A12146  15.781   9.212   8.064 -0.0917  0.1163  0.2281
  816POPE   C1B12147  15.331   9.599   7.049 -0.0174 -0.0276  0.2354
  816POPE   C2B12148  14.953   9.528   7.301  0.1286 -0.0139  0.0839
  816POPE   C3B12149  14.614   9.344   7.478  0.1208 -0.2178 -0.0737
  816POPE   C4B12150  14.483   9.428   7.840 -0.0061  0.0660  0.0509
  817POPE   NH312151  15.779  11.260   6.650 -0.0738  0.0599  0.0551
  817POPE   PO412152  15.296  10.997   6.612 -0.1009  0.1290 -0.0604
  817POPE   GL112153  15.289  10.823   7.000  0.0611 -0.1415  0.2541
  817POPE   GL212154  15.062  10.551   6.997  0.0937  0.0298  0.0131
  817POPE   C1A12155  15.345  10.834   7.377  0.3966 -0.0267 -0.0646
  817POPE   D2A12156  15.436  10.818   7.843 -0.0489  0.0156  0.2430
  817POPE   C3A12157  15.399  10.490   8.116 -0.1099 -0.0300 -0.0824
  817POPE   C4A12158  15.575  10.192   8.412  0.0595  0.2434 -0.0685
  817POPE   C1B12159  15.039  10.433   7.401 -0.2170 -0.3497  0.0567
  817POPE   C2B12160  14.997  10.447   7.806  0.1593 -0.2352 -0.1211
  817POPE   C3B12161  14.955  10.362   8.216 -0.3204  0.0920  0.3640
  817POPE   C4B12162  14.855  10.132   8.562  0.1643 -0.0861  0.0595
  818POPE   NH312163   0.753   7.144   6.054  0.4868 -0.0282 -0.2254
  818POPE   PO412164   1.099   6.901   6.072  0.0550  0.0216  0.0582
  818POPE   GL112165   1.004   6.748   6.479  0.3362 -0.3291 -0.4137
  818POPE   GL212166   0.910   6.431   6.449 -0.1799 -0.1706 -0.1483
  818POPE   C1A12167   0.951   6.662   6.925  0.0380 -0.3032 -0.1379
  818POPE   D2A12168   1.092   6.867   7.275 -0.1031  0.1387  0.2479
  818POPE   C3A12169   0.961   7.058   7.630  0.2142 -0.0949 -0.2147
  818POPE   C4A12170   1.067   7.066   8.114  0.0639  0.2140 -0.0476
  818POPE   C1B12171   1.151   6.226   6.826  0.1795 -0.1977 -0.2389
  818POPE   C2B12172   0.994   6.357   7.319  0.1170 -0.0209 -0.1851
  818POPE   C3B12173   1.001   6.539   7.750  0.1285  0.0415  0.1233
  818POPE   C4B12174   0.979   6.555   8.098 -0.0856 -0.2504 -0.3011
  819POPE   NH312175   3.253  10.150   5.988 -0.0509 -0.2205 -0.1101
  819POPE   PO412176   3.611  10.447   6.075 -0.1090  0.2575 -0.1374
  819POPE   GL112177   3.814  10.418   6.455 -0.0973 -0.1339 -0.2709
  819POPE   GL212178   3.924  10.795   6.599 -0.1763 -0.0491 -0.1203
  819POPE   C1A12179   3.999  10.166   6.736 -0.0077 -0.0363 -0.0245
  819POPE   D2A12180   4.090  10.086   7.088  0.0504 -0.1072  0.0484
  819POPE   C3A12181   3.931   9.946   7.470  0.1157  0.0800 -0.0412
  819POPE   C4A12182   3.646   9.937   7.799  0.1007 -0.0730  0.0071
  819POPE   C1B12183   4.041  10.611   7.024  0.0419  0.2431 -0.2468
  819POPE   C2B12184   4.047  10.557   7.449 -0.1100  0.1440  0.0070
  819POPE   C3B12185   4.330  10.682   7.775 -0.1852  0.2650 -0.1977
  819POPE   C4B12186   4.627  10.537   8.074  0.0127 -0.0406 -0.2150
  820POPE   NH312187   7.163   5.719   6.369 -0.1825  0.1388 -0.2198
  820POPE   PO412188   6.895   5.930   6.126 -0.2296  0.1285 -0.1737
  820POPE   GL112189   6.780   5.912   6.632 -0.2232  0.0536  0.0963
  820POPE   GL212190   7.135   5.878   6.856  0.0028 -0.2084  0.3167
  820POPE   C1A12191   6.660   6.062   7.106  0.0522 -0.1031  0.3060
  820POPE   D2A12192   6.541   6.030   7.472 -0.1245 -0.0570 -0.2687
  820POPE   C3A12193   6.300   5.868   7.821 -0.1493  0.1031  0.1970
  820POPE   C4A12194   6.153   5.713   8.222  0.3864  0.0106 -0.0107
  820POPE   C1B12195   7.119   6.192   7.048  0.0129 -0.2261  0.2034
  820POPE   C2B12196   7.046   6.246   7.476 -0.1081 -0.0310  0.0576
  820POPE   C3B12197   6.677   6.483   7.638 -0.0681 -0.1583  0.0147
  820POPE   C4B12198   6.332   6.356   7.894 -0.1190  0.2027  0.0970
  821POPE   NH312199   3.875  12.812   6.154  0.1264  0.0506  0.2945
  821POPE   PO412200   3.621  12.815   6.343 -0.1901  0.2134 -0.2786
  821POPE   GL112201   3.456  13.047   6.676  0.0441 -0.4491 -0.0674
  821POPE   GL212202   3.182  12.937   6.617  0.2285 -0.0651 -0.0765
  821POPE   C1A12203   3.608  13.031   7.147 -0.1122 -0.3644  0.1561
  821POPE   D2A12204   3.575  12.739   7.620 -0.1794  0.1615  0.1669
  821POPE   C3A12205   3.789  12.893   7.941  0.0643 -0.2090 -0.1674
  821POPE   C4A12206   3.965  12.857   8.341 -0.1272  0.3148 -0.2178
  821POPE   C1B12207   2.998  12.776   7.030  0.0622 -0.2942 -0.1604
  821POPE   C2B12208   3.132  12.889   7.351  0.0700  0.0210  0.0381
  821POPE   C3B12209   3.268  13.138   7.684  0.0984 -0.0579  0.0521
  821POPE   C4B12210   3.463  13.259   8.105 -0.1491 -0.1352 -0.1142
  822POPE   NH312211   2.800  13.753   6.230  0.1482  0.0233 -0.0207
  822POPE   PO412212   3.055  14.157   6.249  0.1602 -0.3352  0.0779
  822POPE   GL112213   2.968  13.933   6.646 -0.0780  0.1818 -0.2134
  822POPE   GL212214   2.701  13.790   6.699  0.0911 -0.0433 -0.5142
  822POPE   C1A12215   3.148  13.840   7.056  0.0431  0.1202  0.1313
  822POPE   D2A12216   3.161  13.858   7.476  0.0467  0.2317 -0.3807
  822POPE   C3A12217   3.125  14.088   7.879  0.0644 -0.1504 -0.2629
  822POPE   C4A12218   2.956  14.270   8.229  0.0705  0.0564  0.3102
  822POPE   C1B12219   2.681  13.811   7.124  0.0272 -0.0632 -0.0170
  822POPE   C2B12220   2.854  13.380   7.489 -0.0320 -0.1022  0.0852
  822POPE   C3B12221   2.869  13.638   7.824 -0.0129 -0.0900  0.1595
  822POPE   C4B12222   3.115  13.773   8.266 -0.0829  0.0341 -0.2814
  823POPE   NH312223  16.071  12.086   6.756 -0.0401  0.0647 -0.3495
  823POPE   PO412224  16.103  11.708   6.625  0.2038  0.1072  0.2055
  823POPE   GL112225  16.454  11.715   6.966 -0.0829  0.0763  0.2369
  823POPE   GL212226  16.652  12.029   6.949  0.4063 -0.0227  0.1635
  823POPE   C1A12227  16.740  11.657   7.323  0.0434  0.3041  0.0876
  823POPE   D2A12228  16.836  11.404   7.666  0.1286  0.2741 -0.2734
  823POPE   C3A12229  16.973  11.029   7.741 -0.0957  0.0061 -0.1363
  823POPE   C4A12230  17.265  10.634   7.664 -0.2839 -0.0927  0.0072
  823POPE   C1B12231  16.382  12.145   7.262 -0.0332  0.0218 -0.1929
  823POPE   C2B12232  16.580  12.101   7.664  0.1899 -0.0425  0.2319
  823POPE   C3B12233  16.792  11.927   7.921  0.1486 -0.0414  0.0585
  823POPE   C4B12234  16.812  11.664   8.203 -0.1045  0.0619 -0.0784
  824POPE   NH312235   6.685  14.450   6.212 -0.2180  0.0023 -0.1322
  824POPE   PO412236   7.115  14.647   6.094  0.0868 -0.0422  0.0169
  824POPE   GL112237   6.975  14.797   6.476  0.0059 -0.0999  0.3680
  824POPE   GL212238   6.724  14.876   6.492  0.2405 -0.4084 -0.3058
  824POPE   C1A12239   7.164  14.858   6.862  0.3404  0.1838  0.0405
  824POPE   D2A12240   6.998  15.062   7.213  0.2242  0.0660 -0.2564
  824POPE   C3A12241   6.973  14.870   7.464  0.0612  0.1880 -0.0584
  824POPE   C4A12242   7.070  14.811   7.807  0.2472 -0.0587  0.2495
  824POPE   C1B12243   6.535  14.835   6.840 -0.3404  0.2852  0.1287
  824POPE   C2B12244   6.476  14.829   7.333  0.0941  0.0300 -0.1570
  824POPE   C3B12245   6.443  14.753   7.756 -0.0647  0.0190  0.0944
  824POPE   C4B12246   6.280  14.621   8.119 -0.0597 -0.0484 -0.2605
  825POPE   NH312247  13.241   3.978   5.811  0.0821 -0.1977 -0.1997
  825POPE   PO412248  13.251   4.455   5.642 -0.1329  0.3520  0.1041
  825POPE   GL112249  13.181   4.338   6.149  0.1193 -0.1156 -0.0359
  825POPE   GL212250  12.930   4.481   6.311 -0.1862  0.3671  0.3198
  825POPE   C1A12251  13.461   4.379   6.394 -0.0072 -0.0349 -0.4948
  825POPE   D2A12252  13.898   4.585   6.461 -0.3001  0.1350  0.1525
  825POPE   C3A12253  14.235   4.802   6.489 -0.0002  0.1532 -0.4050
  825POPE   C4A12254  14.498   5.056   6.370  0.0294  0.1453 -0.0647
  825POPE   C1B12255  12.874   4.454   6.764 -0.1496 -0.0599 -0.2409
  825POPE   C2B12256  13.013   4.539   7.216 -0.1190 -0.1788  0.3479
  825POPE   C3B12257  13.173   4.539   7.543 -0.0911 -0.0943  0.0911
  825POPE   C4B12258  13.493   4.515   7.833  0.0255 -0.1979  0.1214
  826POPE   NH312259   1.923  11.459   6.255 -0.0626  0.2370 -0.1134
  826POPE   PO412260   2.192  11.579   6.457 -0.1261 -0.3534 -0.0340
  826POPE   GL112261   2.498  11.475   6.782  0.0156  0.0312 -0.2488
  826POPE   GL212262   2.690  11.720   6.720 -0.1045  0.1692  0.0039
  826POPE   C1A12263   2.654  11.413   7.099 -0.2410 -0.1343 -0.2330
  826POPE   D2A12264   2.411  11.541   7.539 -0.0574 -0.0482 -0.1968
  826POPE   C3A12265   2.222  11.859   7.921  0.0240  0.0892  0.0274
  826POPE   C4A12266   2.073  12.297   7.838 -0.1644  0.4314  0.0960
  826POPE   C1B12267   3.005  11.884   7.097 -0.0469 -0.0078 -0.1726
  826POPE   C2B12268   3.311  11.994   7.398  0.0905 -0.0378 -0.0536
  826POPE   C3B12269   3.505  12.244   7.768  0.1672  0.1211 -0.2165
  826POPE   C4B12270   3.625  12.368   8.209  0.2231 -0.1983  0.3662
  827POPE   NH312271  17.550   0.971   5.980  0.0712  0.1691 -0.0742
  827POPE   PO412272  17.915   1.091   6.023  0.1489 -0.0852 -0.2901
  827POPE   GL112273  17.829   0.966   6.387 -0.1157  0.1771  0.2710
  827POPE   GL212274  17.474   0.763   6.413 -0.1091  0.2521 -0.1994
  827POPE   C1A12275  17.953   1.064   6.783  0.1269  0.3981  0.4219
  827POPE   D2A12276  17.886   1.064   7.219  0.1035 -0.1153 -0.0394
  827POPE   C3A12277  17.616   1.294   7.562 -0.1873 -0.0973  0.3338
  827POPE   C4A12278  17.394   1.715   7.667 -0.1796  0.0404  0.0602
  827POPE   C1B12279  17.482   0.938   6.915  0.0932  0.2752 -0.0078
  827POPE   C2B12280  17.455   0.853   7.349  0.0729  0.2707 -0.1375
  827POPE   C3B12281  17.430   0.874   7.723  0.2545  0.3406  0.1137
  827POPE   C4B12282  17.401   0.749   8.180 -0.0791 -0.3540 -0.0988
  828POPE   NH312283   3.627  17.695   6.297  0.2730  0.0884 -0.0937
  828POPE   PO412284   3.449  18.022   6.098 -0.1366  0.1019 -0.0804
  828POPE   GL112285   3.256  17.977   6.559 -0.0492 -0.0354  0.2627
  828POPE   GL212286   3.354  17.640   6.707  0.0697  0.1485  0.0405
  828POPE   C1A12287   3.066  18.162   6.906 -0.3357  0.1807 -0.1665
  828POPE   D2A12288   2.959  18.095   7.422 -0.3011 -0.1610 -0.1303
  828POPE   C3A12289   3.179  18.200   7.826 -0.0629 -0.0342 -0.2997
  828POPE   C4A12290   3.566  18.038   8.005 -0.1301 -0.3507 -0.0210
  828POPE   C1B12291   3.227  17.738   7.201 -0.1021 -0.0943  0.2747
  828POPE   C2B12292   3.298  17.741   7.665 -0.1689 -0.1469  0.0408
  828POPE   C3B12293   3.498  17.538   7.987 -0.0543  0.0168 -0.2500
  828POPE   C4B12294   3.396  17.259   8.301 -0.0450 -0.0207 -0.1701
  829POPE   NH312295   7.075  15.950   6.094 -0.2020 -0.0378  0.1810
  829POPE   PO412296   7.316  15.565   6.234 -0.0584  0.0145 -0.0356
  829POPE   GL112297   7.543  15.515   6.573 -0.0756  0.0714  0.1612
  829POPE   GL212298   7.590  15.249   6.679 -0.1420 -0.1044 -0.2394
  829POPE   C1A12299   7.690  15.614   6.955  0.1894 -0.0099 -0.1625
  829POPE   D2A12300   7.686  15.572   7.439 -0.0744  0.1263  0.1934
  829POPE   C3A12301   7.436  15.650   7.690 -0.0867 -0.1421 -0.3260
  829POPE   C4A12302   7.177  15.945   7.919  0.2261 -0.0478  0.0165
  829POPE   C1B12303   7.537  15.186   7.165  0.1878 -0.0177  0.1691
  829POPE   C2B12304   7.319  15.178   7.567  0.0917  0.1518  0.0087
  829POPE   C3B12305   7.234  15.213   7.982  0.1171  0.2375 -0.4200
  829POPE   C4B12306   7.259  15.196   8.468 -0.0075  0.1987  0.2308
  830POPE   NH312307  13.928   0.014   5.781 -0.0624  0.2435  0.1544
  830POPE   PO412308  14.208  -0.184   6.090  0.0071  0.0817 -0.0288
  830POPE   GL112309  14.457  -0.384   6.450  0.0301  0.1902  0.0903
  830POPE   GL212310  14.428  -0.741   6.443 -0.2015 -0.2076  0.3355
  830POPE   C1A12311  14.490  -0.226   6.818  0.0263 -0.1773 -0.1292
  830POPE   D2A12312  14.549  -0.051   7.245  0.0054  0.1648  0.1024
  830POPE   C3A12313  14.453  -0.280   7.558  0.0599 -0.3325 -0.1728
  830POPE   C4A12314  14.202  -0.284   7.965  0.0354 -0.2081  0.0720
  830POPE   C1B12315  14.221  -0.753   6.776  0.0570  0.2656  0.0083
  830POPE   C2B12316  14.162  -0.612   7.138 -0.0702 -0.2324 -0.1363
  830POPE   C3B12317  14.015  -0.558   7.533 -0.0082  0.2251 -0.0855
  830POPE   C4B12318  13.731  -0.496   7.863  0.2539 -0.1557 -0.2516
  831YOPE   NH312319   1.766  14.731   6.320 -0.0001 -0.1722 -0.1034
  831YOPE   PO412320   2.138  14.982   6.370  0.1782 -0.0389 -0.2567
  831YOPE   GL112321   1.852  15.200   6.583  0.1274 -0.0818 -0.1574
  831YOPE   GL212322   1.488  15.057   6.638 -0.0407 -0.1419 -0.0813
  831YOPE   C1A12323   1.791  15.270   6.981 -0.3238  0.0603  0.3249
  831YOPE   D2A12324   1.691  15.239   7.410  0.0978 -0.3538 -0.1620
  831YOPE   C3A12325   1.767  15.296   7.809  0.2829  0.0583 -0.0583
  831YOPE   C4A12326   1.629  14.971   8.087  0.0199 -0.1158  0.0161
  831YOPE   C1B12327   1.336  15.029   7.042  0.1919 -0.0766 -0.0281
  831YOPE   C2B12328   1.269  14.877   7.451  0.2647 -0.3238  0.2465
  831YOPE   D3B12329   1.303  14.706   7.788  0.2953 -0.0414 -0.0259
  831YOPE   C4B12330   1.198  14.265   7.870  0.6371  0.0019 -0.2288
  832YOPE   NH312331   6.917   4.834   6.539 -0.0435  0.1588 -0.1163
  832YOPE   PO412332   7.293   5.135   6.493  0.0513  0.1739  0.0909
  832YOPE   GL112333   7.346   4.887   6.829 -0.0613  0.0577 -0.1241
  832YOPE   GL212334   7.082   4.874   7.016  0.0798  0.0162  0.0197
  832YOPE   C1A12335   7.512   4.907   7.243  0.2811  0.3781 -0.0672
  832YOPE   D2A12336   7.525   4.834   7.660 -0.1043  0.0726  0.1394
  832YOPE   C3A12337   7.148   4.738   7.789  0.3057 -0.0072 -0.0668
  832YOPE   C4A12338   6.958   4.488   8.082  0.3240 -0.0205 -0.0931
  832YOPE   C1B12339   7.307   4.488   7.218  0.2666 -0.2421  0.0328
  832YOPE   C2B12340   7.433   4.353   7.633 -0.1761  0.0657 -0.1789
  832YOPE   D3B12341   7.357   4.191   7.953 -0.0245 -0.1369  0.4562
  832YOPE   C4B12342   7.343   4.246   8.407  0.2738 -0.0180  0.0531
  833YOPE   NH312343   1.155   4.070   5.931 -0.1215 -0.0349 -0.1251
  833YOPE   PO412344   0.968   4.361   5.705  0.1373 -0.1428 -0.3001
  833YOPE   GL112345   1.048   4.543   6.085  0.0130  0.0344  0.0428
  833YOPE   GL212346   1.260   4.790   6.236  0.1951  0.0712  0.3139
  833YOPE   C1A12347   1.128   4.395   6.533 -0.0392  0.1479  0.1499
  833YOPE   D2A12348   1.137   4.377   7.015  0.1653 -0.0679  0.1944
  833YOPE   C3A12349   0.738   4.378   7.220  0.0347  0.1003 -0.0832
  833YOPE   C4A12350   0.625   4.070   7.610  0.0105  0.1401  0.0120
  833YOPE   C1B12351   1.273   4.855   6.753 -0.0878 -0.3101 -0.2016
  833YOPE   C2B12352   1.413   4.744   7.168  0.0978 -0.3702  0.1854
  833YOPE   D3B12353   1.445   4.597   7.539 -0.0070  0.2585  0.3050
  833YOPE   C4B12354   1.770   4.679   7.877 -0.0799 -0.0661 -0.2805
  834YOPE   NH312355  15.839   6.612   5.979  0.3713  0.1839  0.0444
  834YOPE   PO412356  15.940   6.225   5.925 -0.1227 -0.1158  0.2735
  834YOPE   GL112357  15.944   6.065   6.308 -0.1396 -0.2623 -0.3252
  834YOPE   GL212358  16.250   6.084   6.464  0.0336  0.0361  0.1570
  834YOPE   C1A12359  15.714   6.036   6.629  0.3792  0.1155 -0.0295
  834YOPE   D2A12360  15.803   6.028   6.997  0.2484 -0.1367 -0.0406
  834YOPE   C3A12361  15.593   6.280   7.208  0.3398  0.1381  0.0264
  834YOPE   C4A12362  15.286   6.497   7.431 -0.1010 -0.1264 -0.2104
  834YOPE   C1B12363  16.242   5.881   6.857 -0.2158 -0.0736 -0.2236
  834YOPE   C2B12364  16.283   5.767   7.303 -0.1488 -0.1275  0.1685
  834YOPE   D3B12365  16.156   5.649   7.701 -0.1504 -0.1657 -0.2872
  834YOPE   C4B12366  15.934   5.440   7.912  0.3039 -0.1121 -0.0514
  835YOPE   NH312367   3.407   2.238   5.717  0.2143  0.1895  0.0608
  835YOPE   PO412368   3.051   2.230   5.996 -0.1184 -0.1357  0.1919
  835YOPE   GL112369   2.941   2.186   6.374 -0.1251  0.0291 -0.2150
  835YOPE   GL212370   2.755   2.497   6.446 -0.1357  0.0104 -0.0782
  835YOPE   C1A12371   2.871   2.164   6.828  0.1867  0.1933  0.0365
  835YOPE   D2A12372   2.883   2.443   7.120  0.0317 -0.1599  0.1139
  835YOPE   C3A12373   2.977   2.414   7.521  0.0440 -0.1862  0.3237
  835YOPE   C4A12374   2.709   2.390   7.770  0.1509  0.2516 -0.0362
  835YOPE   C1B12375   2.631   2.818   6.868  0.0762 -0.0472  0.2832
  835YOPE   C2B12376   2.350   2.986   7.097 -0.0468 -0.0607  0.0694
  835YOPE   D3B12377   2.067   2.807   7.596 -0.0032  0.1254  0.0582
  835YOPE   C4B12378   1.902   2.449   7.868 -0.1042  0.4869 -0.1213
  836YOPE   NH312379   1.562   9.736   6.166 -0.0728  0.1444  0.0482
  836YOPE   PO412380   1.335  10.100   5.982 -0.1093  0.1124 -0.2610
  836YOPE   GL112381   1.603  10.230   6.355  0.1373 -0.3106  0.2107
  836YOPE   GL212382   1.937  10.280   6.528  0.0970 -0.3251  0.0299
  836YOPE   C1A12383   1.520  10.277   6.786 -0.0189 -0.1306 -0.1158
  836YOPE   D2A12384   1.526  10.429   7.190 -0.0117  0.2349 -0.3355
  836YOPE   C3A12385   1.664  10.248   7.661 -0.1007  0.0410 -0.0708
  836YOPE   C4A12386   1.788  10.342   8.159 -0.1741  0.0183  0.0230
  836YOPE   C1B12387   2.021  10.215   6.992 -0.0224  0.2705  0.1451
  836YOPE   C2B12388   2.068  10.096   7.368  0.0192 -0.1045 -0.3004
  836YOPE   D3B12389   2.065   9.957   7.809 -0.1822 -0.0263 -0.0550
  836YOPE   C4B12390   2.063   9.910   8.220 -0.1169 -0.2278  0.0671
  837YOPE   NH312391  15.603   9.042   5.907 -0.0331  0.0440  0.2647
  837YOPE   PO412392  15.142   8.853   5.817  0.1738  0.1042  0.1181
  837YOPE   GL112393  15.233   8.977   6.239  0.0083  0.0313 -0.2787
  837YOPE   GL212394  15.545   8.846   6.362  0.0239  0.1432 -0.0921
  837YOPE   C1A12395  15.229   9.178   6.701 -0.3462 -0.0927 -0.1751
  837YOPE   D2A12396  15.450   9.074   6.978  0.0286 -0.4202  0.2723
  837YOPE   C3A12397  15.417   9.175   7.432 -0.0293  0.0301  0.2930
  837YOPE   C4A12398  15.192   9.317   7.760  0.1031  0.1026 -0.0592
  837YOPE   C1B12399  15.377   8.619   6.749  0.1733 -0.2756 -0.4352
  837YOPE   C2B12400  15.337   8.626   7.206  0.0691  0.1056 -0.1170
  837YOPE   D3B12401  15.499   8.689   7.597  0.1231  0.1129  0.1556
  837YOPE   C4B12402  15.408   8.883   7.870 -0.0652 -0.2387  0.0570
  838YOPE   NH312403   8.962  13.359   6.310 -0.2955  0.0340 -0.2645
  838YOPE   PO412404   8.614  13.654   6.393  0.0438 -0.0720 -0.1912
  838YOPE   GL112405   8.493  13.690   6.726 -0.0200  0.2328 -0.1240
  838YOPE   GL212406   8.395  14.164   6.660 -0.2213  0.1970  0.0791
  838YOPE   C1A12407   8.347  13.843   7.100 -0.0367  0.0210 -0.1134
  838YOPE   D2A12408   8.332  14.247   7.151 -0.4492 -0.0121 -0.3642
  838YOPE   C3A12409   8.369  14.399   7.611 -0.0559  0.1734 -0.2560
  838YOPE   C4A12410   8.656  14.584   7.896  0.1542  0.0406  0.0624
  838YOPE   C1B12411   8.105  14.523   6.708 -0.1131 -0.1284 -0.1766
  838YOPE   C2B12412   7.758  14.787   6.957 -0.0603 -0.1616 -0.2181
  838YOPE   D3B12413   7.439  14.742   7.302 -0.0623  0.2264 -0.1434
  838YOPE   C4B12414   7.557  14.765   7.729  0.0557 -0.0074  0.1759
  839YOPE   NH312415   5.310  10.917   6.414  0.2858  0.2060  0.0781
  839YOPE   PO412416   5.317  10.512   6.325 -0.0166 -0.0582 -0.0437
  839YOPE   GL112417   5.539  10.451   6.707 -0.2422  0.0310 -0.3388
  839YOPE   GL212418   5.379  10.470   6.975  0.1877 -0.0796  0.4309
  839YOPE   C1A12419   5.452   9.988   6.821  0.0450 -0.2079 -0.2113
  839YOPE   D2A12420   5.472   9.675   7.065 -0.2463  0.1035  0.1429
  839YOPE   C3A12421   5.362   9.306   7.018 -0.1022 -0.3323 -0.2809
  839YOPE   C4A12422   5.422   8.965   7.208  0.0455  0.0579  0.1028
  839YOPE   C1B12423   5.488  10.445   7.386  0.1204 -0.1223 -0.2877
  839YOPE   C2B12424   5.548  10.250   7.824 -0.3074 -0.2133  0.1355
  839YOPE   D3B12425   5.738   9.863   7.956 -0.2621 -0.0345  0.0831
  839YOPE   C4B12426   5.660   9.846   8.364  0.1386  0.2283 -0.1310
  840YOPE   NH312427   2.499  11.923   6.285  0.0241  0.2883  0.2227
  840YOPE   PO412428   2.232  12.277   6.234  0.0361  0.1050  0.0028
  840YOPE   GL112429   2.505  12.344   6.575  0.1660 -0.2633 -0.0963
  840YOPE   GL212430   2.692  12.681   6.642 -0.0725  0.0576  0.0009
  840YOPE   C1A12431   2.666  12.182   6.919 -0.3475 -0.0662 -0.3873
  840YOPE   D2A12432   2.521  11.872   7.156 -0.4321  0.0791  0.0990
  840YOPE   C3A12433   2.287  12.032   7.478 -0.1776  0.0799  0.1246
  840YOPE   C4A12434   1.795  11.951   7.659 -0.0626 -0.0238 -0.1039
  840YOPE   C1B12435   2.521  12.717   7.010  0.1741  0.1783 -0.0697
  840YOPE   C2B12436   2.571  12.533   7.443 -0.1068  0.1648  0.0456
  840YOPE   D3B12437   2.750  12.141   7.603  0.1425  0.0768  0.1168
  840YOPE   C4B12438   3.089  12.053   7.894 -0.2423 -0.0024  0.2035
  841YOPE   NH312439   6.596  10.230   6.443 -0.2496 -0.1126  0.2066
  841YOPE   PO412440   6.954   9.944   6.475 -0.1048 -0.1949  0.0647
  841YOPE   GL112441   6.830   9.682   6.824  0.0108  0.1021  0.1602
  841YOPE   GL212442   6.490   9.656   6.800  0.0581 -0.0725  0.0073
  841YOPE   C1A12443   6.932   9.658   7.155 -0.4886  0.1092 -0.0976
  841YOPE   D2A12444   6.988   9.746   7.557  0.0936 -0.1421 -0.2360
  841YOPE   C3A12445   6.937   9.706   7.967  0.3830 -0.1294  0.2831
  841YOPE   C4A12446   6.743   9.711   8.339  0.0419 -0.0691 -0.1399
  841YOPE   C1B12447   6.371   9.492   7.176  0.0595  0.2670 -0.0255
  841YOPE   C2B12448   6.507   9.510   7.560 -0.2026  0.2260  0.0017
  841YOPE   D3B12449   6.403   9.468   8.036  0.0409  0.1692  0.1153
  841YOPE   C4B12450   6.414   9.324   8.522 -0.1312 -0.0252 -0.0496
  842YOPE   NH312451  17.071  13.338   6.933 -0.0222  0.2526  0.0054
  842YOPE   PO412452  17.150  13.742   6.774 -0.1663  0.1397 -0.2149
  842YOPE   GL112453  17.098  13.867   7.193  0.0518  0.2473  0.0257
  842YOPE   GL212454  17.204  13.530   7.372  0.0934  0.1182  0.1387
  842YOPE   C1A12455  17.035  14.034   7.580  0.0169 -0.0186 -0.1404
  842YOPE   D2A12456  17.031  14.044   8.126  0.0555 -0.4682 -0.0025
  842YOPE   C3A12457  17.331  14.096   8.459 -0.1897 -0.2177  0.1378
  842YOPE   C4A12458  17.686  14.237   8.747  0.0323 -0.1258 -0.0855
  842YOPE   C1B12459  17.405  13.742   7.651  0.0766 -0.0542  0.0362
  842YOPE   C2B12460  17.563  13.894   8.014 -0.1161 -0.0446 -0.0435
  842YOPE   D3B12461  17.780  14.142   8.044 -0.0543 -0.1090 -0.0283
  842YOPE   C4B12462  17.982  14.573   8.353 -0.1844  0.1866  0.1596
  843YOPE   NH312463  15.369  15.007   6.089  0.2654  0.0555 -0.1837
  843YOPE   PO412464  15.079  15.337   6.312 -0.1098  0.0568  0.1442
  843YOPE   GL112465  15.091  15.137   6.688  0.0618  0.1671  0.1491
  843YOPE   GL212466  14.939  15.213   7.003 -0.3277  0.0300 -0.1070
  843YOPE   C1A12467  15.077  14.712   6.911  0.2281 -0.0045  0.1172
  843YOPE   D2A12468  14.987  14.366   7.288  0.1554 -0.1423  0.0724
  843YOPE   C3A12469  15.132  14.481   7.720  0.2413  0.1415  0.0598
  843YOPE   C4A12470  15.184  14.716   8.092  0.1971 -0.1793  0.0696
  843YOPE   C1B12471  14.836  15.216   7.385 -0.1847 -0.0509  0.1422
  843YOPE   C2B12472  14.724  15.536   7.805 -0.2004 -0.3659 -0.0897
  843YOPE   D3B12473  14.574  15.504   8.221 -0.0219  0.0674  0.0087
  843YOPE   C4B12474  14.448  15.667   8.528 -0.0634 -0.0679 -0.1406
  844YOPE   NH312475   9.296   4.493   6.661 -0.0300  0.3499  0.0124
  844YOPE   PO412476   9.749   4.329   6.652  0.1400  0.2559  0.0336
  844YOPE   GL112477   9.850   4.336   6.970  0.2725 -0.0132 -0.1289
  844YOPE   GL212478   9.596   4.510   7.064  0.1979  0.3461  0.0258
  844YOPE   C1A12479  10.006   4.154   7.292  0.0129  0.0538 -0.3050
  844YOPE   D2A12480  10.241   3.868   7.533  0.0753  0.2272  0.0480
  844YOPE   C3A12481  10.127   3.829   7.882  0.1257  0.2113  0.0037
  844YOPE   C4A12482  10.000   3.756   8.313 -0.0074 -0.0387 -0.1467
  844YOPE   C1B12483   9.673   4.454   7.442  0.1784 -0.1586  0.0567
  844YOPE   C2B12484  10.001   4.345   7.743  0.2970 -0.3761 -0.0444
  844YOPE   D3B12485  10.191   4.305   8.160  0.0754  0.0945  0.2309
  844YOPE   C4B12486  10.140   4.140   8.573  0.2651 -0.1955  0.0797
  845YOPE   NH312487  11.829   9.607   6.399 -0.0542 -0.3165 -0.0895
  845YOPE   PO412488  11.432   9.806   6.281 -0.0791 -0.0911 -0.0114
  845YOPE   GL112489  11.391   9.659   6.716 -0.1062 -0.0093 -0.2745
  845YOPE   GL212490  11.183   9.865   6.959  0.2161 -0.1648  0.0884
  845YOPE   C1A12491  11.707   9.519   7.016 -0.0032  0.1489 -0.1431
  845YOPE   D2A12492  11.785   9.491   7.477  0.2193  0.2027  0.2098
  845YOPE   C3A12493  12.020   9.600   7.719  0.2080 -0.0439  0.1419
  845YOPE   C4A12494  12.303   9.710   8.107 -0.1178 -0.0157 -0.0499
  845YOPE   C1B12495  11.188   9.815   7.405 -0.1675 -0.0100 -0.1422
  845YOPE   C2B12496  11.099   9.729   7.779  0.1265 -0.0223  0.0704
  845YOPE   D3B12497  10.631   9.708   7.935 -0.3374  0.1724 -0.2953
  845YOPE   C4B12498  10.308   9.940   8.113 -0.1277 -0.2387  0.1081
  846YOPE   NH312499  16.117   8.274   6.086 -0.0023 -0.2652  0.0231
  846YOPE   PO412500  15.942   8.693   5.922  0.0421  0.0355 -0.2831
  846YOPE   GL112501  16.017   8.725   6.368 -0.3157 -0.3481  0.1614
  846YOPE   GL212502  16.284   8.519   6.569  0.1184 -0.2715 -0.0747
  846YOPE   C1A12503  15.834   8.847   6.757 -0.1276  0.2626 -0.0418
  846YOPE   D2A12504  15.824   8.769   7.141  0.2804  0.1334  0.2089
  846YOPE   C3A12505  15.845   9.014   7.566 -0.2781 -0.1813  0.1654
  846YOPE   C4A12506  16.259   9.229   7.626 -0.1344  0.0447 -0.0158
  846YOPE   C1B12507  16.284   8.407   7.046 -0.1017 -0.1890 -0.0822
  846YOPE   C2B12508  16.400   8.073   7.246 -0.2368  0.0884  0.0030
  846YOPE   D3B12509  16.349   7.944   7.729  0.0689 -0.1250  0.0498
  846YOPE   C4B12510  16.327   7.831   8.138 -0.1393 -0.0868  0.0898
  847YOPE   NH312511   7.779   5.092   6.562 -0.2414  0.1114  0.0193
  847YOPE   PO412512   7.681   5.579   6.506 -0.2229  0.2972 -0.0720
  847YOPE   GL112513   7.836   5.695   6.922  0.1791 -0.0292  0.0681
  847YOPE   GL212514   7.578   5.932   7.066 -0.0862  0.1193  0.4412
  847YOPE   C1A12515   7.847   5.611   7.365 -0.2075 -0.2977 -0.0444
  847YOPE   D2A12516   7.756   5.653   7.735  0.0368 -0.0937 -0.1653
  847YOPE   C3A12517   7.611   5.830   7.853  0.4293 -0.1538 -0.0971
  847YOPE   C4A12518   7.540   5.936   8.278 -0.2861  0.1669  0.0413
  847YOPE   C1B12519   7.354   5.899   7.428  0.0696  0.2789  0.1762
  847YOPE   C2B12520   7.125   5.938   7.903  0.2256  0.1972  0.1026
  847YOPE   D3B12521   6.721   5.985   8.061 -0.0007 -0.1355 -0.0952
  847YOPE   C4B12522   6.650   6.410   8.325  0.0028  0.0353 -0.1733
  848YOPE   NH312523  16.814  16.569   6.493 -0.2818 -0.1080  0.2113
  848YOPE   PO412524  16.740  16.933   6.358  0.2120 -0.1009 -0.2693
  848YOPE   GL112525  16.936  17.063   6.669 -0.1883  0.0735  0.0162
  848YOPE   GL212526  16.788  16.847   6.971  0.1066  0.1598 -0.2114
  848YOPE   C1A12527  17.235  17.217   6.957 -0.1913 -0.2190  0.0958
  848YOPE   D2A12528  17.571  17.319   7.066  0.2110  0.4638  0.1028
  848YOPE   C3A12529  17.672  17.383   7.485 -0.0864  0.1304  0.2471
  848YOPE   C4A12530  17.617  17.598   7.919  0.3990 -0.2343  0.3068
  848YOPE   C1B12531  16.736  16.981   7.318  0.0392 -0.0540  0.1736
  848YOPE   C2B12532  16.583  16.939   7.650  0.0872 -0.2451  0.0358
  848YOPE   D3B12533  16.459  16.986   8.063  0.1013 -0.0366 -0.1546
  848YOPE   C4B12534  16.411  16.924   8.443  0.4510 -0.2462  0.1102
  849YOPE   NH312535   3.371  12.377   6.347 -0.0996 -0.4096  0.0981
  849YOPE   PO412536   2.984  12.057   6.279  0.1488 -0.0619  0.0831
  849YOPE   GL112537   3.097  11.973   6.634  0.0388  0.1327 -0.3712
  849YOPE   GL212538   3.067  12.313   6.762  0.0089 -0.1364  0.2726
  849YOPE   C1A12539   3.450  11.722   7.010  0.2672  0.0492  0.0737
  849YOPE   D2A12540   3.723  11.492   7.214 -0.0928 -0.0095 -0.3751
  849YOPE   C3A12541   3.515  11.252   7.639 -0.4219 -0.1038  0.3820
  849YOPE   C4A12542   3.227  10.986   7.716 -0.2436 -0.1258  0.5037
  849YOPE   C1B12543   3.066  12.384   7.272  0.2528  0.1577 -0.1937
  849YOPE   C2B12544   3.040  12.515   7.624 -0.1089 -0.0461  0.0089
  849YOPE   D3B12545   3.220  12.827   8.048 -0.0239 -0.1718  0.0103
  849YOPE   C4B12546   3.307  12.852   8.408  0.2094 -0.1456  0.1291
  850YOPE   NH312547   6.726  11.990   6.549  0.2924  0.3779  0.1003
  850YOPE   PO412548   6.739  12.346   6.529 -0.4305  0.1883  0.2035
  850YOPE   GL112549   6.864  12.217   7.008 -0.2938  0.4438 -0.1178
  850YOPE   GL212550   7.026  12.020   7.006 -0.0251 -0.0055  0.3551
  850YOPE   C1A12551   6.880  12.304   7.456 -0.1084 -0.2978  0.0758
  850YOPE   D2A12552   6.946  12.106   7.842  0.0406 -0.0807 -0.0631
  850YOPE   C3A12553   7.178  12.102   8.212  0.0465  0.3829  0.0139
  850YOPE   C4A12554   7.201  12.012   8.740  0.1490  0.1701  0.0549
  850YOPE   C1B12555   6.800  11.843   7.377 -0.0046  0.1282 -0.0175
  850YOPE   C2B12556   6.715  11.630   7.683  0.0793  0.0643 -0.3132
  850YOPE   D3B12557   6.699  11.842   8.134 -0.0486  0.0270 -0.1177
  850YOPE   C4B12558   6.735  12.022   8.549  0.0042  0.1204  0.0333
  851YOPE   NH312559   6.853   0.627   5.866 -0.0724  0.2550 -0.1337
  851YOPE   PO412560   7.068   0.858   6.128 -0.1245  0.0391 -0.0797
  851YOPE   GL112561   6.932   1.029   6.509 -0.0902 -0.0553 -0.1477
  851YOPE   GL212562   7.250   1.184   6.655 -0.0491  0.0585  0.1205
  851YOPE   C1A12563   6.904   1.044   6.985 -0.2231  0.0563  0.1188
  851YOPE   D2A12564   6.837   1.168   7.430  0.0567  0.0563 -0.2736
  851YOPE   C3A12565   6.740   0.886   7.717 -0.1109  0.0008  0.1375
  851YOPE   C4A12566   6.575   1.049   8.176  0.3309  0.0470 -0.1068
  851YOPE   C1B12567   7.218   1.394   7.103 -0.1142  0.0417 -0.1984
  851YOPE   C2B12568   7.298   1.230   7.523  0.0312 -0.0679 -0.2435
  851YOPE   D3B12569   7.234   1.297   7.984 -0.0264 -0.1609  0.0518
  851YOPE   C4B12570   7.020   1.550   8.180 -0.3657  0.0055  0.3199
  852YOPE   NH312571  13.736  16.536   5.999 -0.0948  0.0998  0.2325
  852YOPE   PO412572  13.713  17.049   6.038 -0.2171 -0.3489 -0.1304
  852YOPE   GL112573  13.525  16.873   6.354 -0.2107  0.0041  0.0278
  852YOPE   GL212574  13.874  16.894   6.454 -0.1080  0.0384  0.1398
  852YOPE   C1A12575  13.348  16.877   6.682  0.0881  0.1529 -0.2324
  852YOPE   D2A12576  13.219  16.921   7.080  0.1400 -0.0161  0.0415
  852YOPE   C3A12577  13.196  16.672   7.160 -0.0009 -0.2691 -0.3506
  852YOPE   C4A12578  13.303  16.208   7.107 -0.1036  0.0319 -0.1182
  852YOPE   C1B12579  13.773  17.057   6.842 -0.0692  0.4012 -0.3607
  852YOPE   C2B12580  13.724  17.036   7.207  0.0756  0.3436 -0.0292
  852YOPE   D3B12581  13.773  16.815   7.673  0.2821 -0.2472 -0.2419
  852YOPE   C4B12582  13.987  16.484   7.875  0.0798  0.0209 -0.1530
  853YOPE   NH312583   1.854  11.983   6.325  0.2947  0.2908 -0.0899
  853YOPE   PO412584   1.633  12.236   6.004 -0.2800  0.1855 -0.2883
  853YOPE   GL112585   1.686  12.505   6.368 -0.0056 -0.2800  0.2324
  853YOPE   GL212586   1.866  12.410   6.585 -0.1253  0.2273 -0.1311
  853YOPE   C1A12587   1.550  12.744   6.744  0.1107  0.0687 -0.3737
  853YOPE   D2A12588   1.609  12.895   7.162  0.0518  0.2249 -0.3328
  853YOPE   C3A12589   1.369  12.936   7.495  0.1387 -0.0050 -0.2616
  853YOPE   C4A12590   1.351  13.183   7.879  0.1453  0.0805  0.0356
  853YOPE   C1B12591   2.044  12.783   6.837  0.1119 -0.2687 -0.3023
  853YOPE   C2B12592   2.028  12.888   7.334  0.0641 -0.0131  0.1247
  853YOPE   D3B12593   2.265  12.769   7.813  0.2104 -0.0279  0.0564
  853YOPE   C4B12594   2.540  12.410   7.970 -0.2757  0.1421  0.4727
  854YOPE   NH312595  14.118   3.640   5.793  0.5864 -0.0031 -0.1692
  854YOPE   PO412596  13.714   3.723   5.584  0.1235  0.1505 -0.1812
  854YOPE   GL112597  13.637   3.567   5.995 -0.0591  0.2721  0.0418
  854YOPE   GL212598  13.499   3.337   6.011  0.0356 -0.1090 -0.2148
  854YOPE   C1A12599  13.666   3.770   6.339 -0.2801  0.2491  0.1356
  854YOPE   D2A12600  13.721   4.008   6.524 -0.0382  0.2177 -0.2962
  854YOPE   C3A12601  13.840   3.841   6.962 -0.0741  0.2898  0.0159
  854YOPE   C4A12602  14.095   3.926   7.362  0.0872  0.0976 -0.0240
  854YOPE   C1B12603  13.461   3.345   6.494 -0.0648 -0.2697 -0.1423
  854YOPE   C2B12604  13.501   3.435   6.914  0.1331  0.1807 -0.0331
  854YOPE   D3B12605  13.403   3.213   7.304  0.0028 -0.1027  0.0790
  854YOPE   C4B12606  13.272   3.271   7.641  0.2680 -0.2939 -0.0981
  855YOPE   NH312607  11.122   8.114   6.196 -0.3083 -0.1092  0.2209
  855YOPE   PO412608  11.141   8.477   6.456 -0.1848  0.0305  0.0346
  855YOPE   GL112609  11.006   8.210   6.731 -0.0868  0.1206  0.0836
  855YOPE   GL212610  11.159   8.102   7.022  0.3214  0.1440 -0.0403
  855YOPE   C1A12611  10.721   7.870   6.971 -0.0530  0.2960 -0.0502
  855YOPE   D2A12612  10.564   7.500   7.005  0.1539 -0.1360  0.0385
  855YOPE   C3A12613  10.544   7.637   7.451  0.0927 -0.2793  0.1040
  855YOPE   C4A12614  10.401   7.790   7.809 -0.0811  0.0529 -0.1407
  855YOPE   C1B12615  11.063   8.267   7.401  0.1184 -0.0294  0.2224
  855YOPE   C2B12616  10.997   8.385   7.837  0.1953  0.0338 -0.0210
  855YOPE   D3B12617  10.836   8.435   8.306  0.2677 -0.1392 -0.2378
  855YOPE   C4B12618  10.721   8.482   8.717 -0.0682  0.0985 -0.2168
  856YOPE   NH312619   2.874   3.391   6.238 -0.1016 -0.0507 -0.1760
  856YOPE   PO412620   3.326   3.501   6.106 -0.0361 -0.3166 -0.1598
  856YOPE   GL112621   3.341   3.523   6.520 -0.1951  0.1726 -0.0769
  856YOPE   GL212622   3.181   3.390   6.684 -0.2572  0.0209 -0.1108
  856YOPE   C1A12623   3.343   3.797   6.861 -0.1170  0.0134  0.1411
  856YOPE   D2A12624   3.511   3.905   7.232 -0.0808 -0.0360 -0.2378
  856YOPE   C3A12625   3.589   3.596   7.606  0.1151 -0.1205  0.2713
  856YOPE   C4A12626   3.651   3.345   7.924 -0.0792  0.0829  0.1894
  856YOPE   C1B12627   3.279   3.345   7.051 -0.1949  0.0298  0.1534
  856YOPE   C2B12628   3.232   3.411   7.374  0.0940  0.0350  0.0731
  856YOPE   D3B12629   3.144   3.313   7.742  0.2742  0.0298 -0.0804
  856YOPE   C4B12630   3.176   3.137   8.148 -0.1658 -0.0857 -0.1940
  857YOPE   NH312631  12.082   0.821   5.869  0.1718  0.2032 -0.1634
  857YOPE   PO412632  12.348   1.097   5.564  0.2797  0.0658 -0.1521
  857YOPE   GL112633  12.552   0.895   5.976 -0.1516  0.1607 -0.0573
  857YOPE   GL212634  12.407   1.003   6.214 -0.0611  0.1951 -0.0549
  857YOPE   C1A12635  12.903   0.803   6.254 -0.0410 -0.2103  0.2361
  857YOPE   D2A12636  13.336   0.615   6.129 -0.3382  0.0633 -0.3852
  857YOPE   C3A12637  13.685   0.755   6.322  0.2481 -0.1003 -0.1475
  857YOPE   C4A12638  13.702   0.898   6.647 -0.1699 -0.1614  0.0614
  857YOPE   C1B12639  12.269   1.335   6.523  0.0825 -0.0788  0.0982
  857YOPE   C2B12640  12.065   1.583   6.834 -0.0681  0.0803 -0.0253
  857YOPE   D3B12641  12.081   1.594   7.276  0.0199 -0.0031 -0.0471
  857YOPE   C4B12642  12.068   1.418   7.657 -0.0290  0.0505 -0.0665
  858YOPE   NH312643   0.023   1.594   6.061  0.0633  0.1905  0.2410
  858YOPE   PO412644  -0.379   1.440   6.076 -0.0946  0.0958  0.0369
  858YOPE   GL112645  -0.355   1.292   6.581 -0.1933  0.1933  0.0329
  858YOPE   GL212646  -0.627   1.286   6.769 -0.0080 -0.0739 -0.0400
  858YOPE   C1A12647  -0.173   1.468   6.934  0.0703 -0.2986 -0.1883
  858YOPE   D2A12648  -0.112   1.737   7.309 -0.0041 -0.2455  0.1723
  858YOPE   C3A12649  -0.059   1.965   7.608  0.0657 -0.2363  0.1549
  858YOPE   C4A12650  -0.351   2.097   8.034 -0.2252 -0.3431 -0.0875
  858YOPE   C1B12651  -0.697   1.389   7.132 -0.0362  0.0450 -0.0585
  858YOPE   C2B12652  -0.750   1.277   7.475 -0.0184 -0.1634  0.2418
  858YOPE   D3B12653  -0.617   1.321   7.894  0.4170 -0.1475  0.1792
  858YOPE   C4B12654  -0.658   1.612   8.203  0.2672  0.0350 -0.3371
  859YOPE   NH312655  13.312   2.343   5.748 -0.0691 -0.0497 -0.0656
  859YOPE   PO412656  13.741   2.259   5.775 -0.0825 -0.0431  0.2723
  859YOPE   GL112657  13.565   2.123   6.096  0.1249 -0.5158  0.0086
  859YOPE   GL212658  13.631   1.808   6.298  0.1152 -0.3525  0.0535
  859YOPE   C1A12659  13.389   2.288   6.414  0.0475  0.0673 -0.0308
  859YOPE   D2A12660  13.265   2.464   6.761  0.0447  0.0726  0.1188
  859YOPE   C3A12661  12.984   2.696   6.978 -0.2662 -0.2864  0.5929
  859YOPE   C4A12662  12.986   3.074   7.082 -0.0551  0.4032 -0.0699
  859YOPE   C1B12663  13.750   2.019   6.575 -0.1361  0.2649 -0.1347
  859YOPE   C2B12664  13.760   1.858   6.926 -0.1102 -0.3450  0.1409
  859YOPE   D3B12665  13.686   1.761   7.425 -0.0473 -0.1061  0.0784
  859YOPE   C4B12666  13.860   1.653   7.798  0.0175 -0.3227  0.1875
  860YOPE   NH312667   4.393   5.623   5.522  0.1085  0.1317  0.1593
  860YOPE   PO412668   4.313   5.843   5.846  0.0671 -0.0210 -0.2533
  860YOPE   GL112669   4.519   5.951   6.265 -0.0407  0.1001 -0.3771
  860YOPE   GL212670   4.782   5.774   6.387  0.2784  0.0062 -0.0855
  860YOPE   C1A12671   4.297   5.958   6.626 -0.0020 -0.2361  0.0411
  860YOPE   D2A12672   4.120   6.061   7.046  0.1582  0.0068 -0.0874
  860YOPE   C3A12673   4.192   6.072   7.415 -0.3502 -0.1061  0.0630
  860YOPE   C4A12674   4.211   6.177   7.815 -0.0865 -0.0628  0.1109
  860YOPE   C1B12675   4.761   5.898   6.757  0.0513 -0.0696  0.2577
  860YOPE   C2B12676   4.626   6.001   7.149 -0.3062  0.2991  0.1481
  860YOPE   D3B12677   4.645   6.096   7.619 -0.3515  0.2403  0.1108
  860YOPE   C4B12678   4.609   6.059   8.096 -0.0752  0.1306 -0.0773
  861YOPE   NH312679  11.285   9.258   6.427 -0.1568 -0.3506  0.1467
  861YOPE   PO412680  11.477   8.821   6.438 -0.0251  0.4249 -0.0135
  861YOPE   GL112681  11.722   8.510   6.685  0.1390  0.1047 -0.0491
  861YOPE   GL212682  11.503   8.478   6.852  0.1182 -0.5069 -0.0877
  861YOPE   C1A12683  11.997   8.439   6.989 -0.1075  0.1164  0.0360
  861YOPE   D2A12684  12.020   8.376   7.361 -0.2147 -0.1188  0.0121
  861YOPE   C3A12685  12.170   8.491   7.789  0.2838  0.0775 -0.1312
  861YOPE   C4A12686  11.858   8.578   8.124 -0.0242  0.0530  0.1174
  861YOPE   C1B12687  11.529   8.432   7.306 -0.1804  0.0656 -0.0569
  861YOPE   C2B12688  11.549   8.489   7.758 -0.1040  0.3339 -0.1093
  861YOPE   D3B12689  11.412   8.511   8.225 -0.1264 -0.1055 -0.0368
  861YOPE   C4B12690  11.219   8.372   8.677  0.0309  0.3476 -0.0699
  862YOPE   NH312691  17.073   9.361   6.228  0.1313 -0.1701 -0.1690
  862YOPE   PO412692  16.939   8.936   5.959 -0.2222  0.0180  0.0015
  862YOPE   GL112693  17.077   8.811   6.303 -0.1702  0.1713  0.1239
  862YOPE   GL212694  17.392   8.698   6.227 -0.0134  0.1614 -0.1968
  862YOPE   C1A12695  17.337   8.944   6.612 -0.0702 -0.0194 -0.1134
  862YOPE   D2A12696  17.522   8.927   6.929  0.3078 -0.5225  0.0899
  862YOPE   C3A12697  17.743   9.079   7.309 -0.0643  0.3218 -0.0389
  862YOPE   C4A12698  17.973   9.148   7.667  0.1741  0.3403 -0.1745
  862YOPE   C1B12699  17.686   8.601   6.549  0.2147  0.1830  0.0324
  862YOPE   C2B12700  17.874   8.683   7.076 -0.1365 -0.0644 -0.2327
  862YOPE   D3B12701  18.006   8.662   7.509  0.0100 -0.1423  0.1415
  862YOPE   C4B12702  18.028   8.465   7.885 -0.0649  0.0074 -0.0610
  863YOPE   NH312703   1.252   0.164   6.197  0.1477 -0.2487  0.2001
  863YOPE   PO412704   1.418   0.565   6.159  0.2261 -0.0444 -0.3663
  863YOPE   GL112705   1.415   0.517   6.516  0.2832 -0.1101  0.1045
  863YOPE   GL212706   1.567   0.770   6.622 -0.0798 -0.1309  0.4253
  863YOPE   C1A12707   1.309   0.462   6.986 -0.0336  0.0834 -0.0943
  863YOPE   D2A12708   1.277   0.467   7.439  0.0689  0.0389  0.0175
  863YOPE   C3A12709   1.542   0.703   7.807  0.2231 -0.1002  0.1535
  863YOPE   C4A12710   1.491   0.771   8.248  0.4760  0.1828 -0.4229
  863YOPE   C1B12711   1.552   0.957   6.951  0.1019 -0.1754  0.2143
  863YOPE   C2B12712   1.664   0.939   7.309  0.2358  0.1783  0.3071
  863YOPE   D3B12713   1.740   1.183   7.693  0.1633 -0.0751  0.2399
  863YOPE   C4B12714   1.962   1.553   7.983  0.1042  0.1314 -0.0097
  864YOPE   NH312715   9.833   2.603   6.203 -0.0662  0.3114 -0.2482
  864YOPE   PO412716  10.028   2.957   6.125  0.0927 -0.2440 -0.0216
  864YOPE   GL112717  10.083   2.931   6.585  0.2762  0.2642  0.1900
  864YOPE   GL212718   9.861   2.752   6.743  0.2139  0.1452  0.2994
  864YOPE   C1A12719  10.481   2.933   6.795 -0.3049  0.2228 -0.0093
  864YOPE   D2A12720  10.501   2.852   7.269  0.1849  0.0324  0.4559
  864YOPE   C3A12721  10.841   2.670   7.451 -0.2001 -0.0116 -0.1224
  864YOPE   C4A12722  10.970   2.369   7.747 -0.0736  0.3597  0.1583
  864YOPE   C1B12723  10.068   3.046   7.079 -0.1848 -0.1135 -0.1935
  864YOPE   C2B12724  10.318   3.293   7.420  0.0317  0.2272  0.2677
  864YOPE   D3B12725  10.576   3.619   7.760  0.0360 -0.0075  0.1573
  864YOPE   C4B12726  10.553   3.719   8.179 -0.2312  0.0726 -0.0895
  865YOPE   NH312727   3.865   1.789   5.873 -0.1270 -0.3089 -0.1792
  865YOPE   PO412728   3.869   2.196   5.803 -0.2112  0.0059 -0.0685
  865YOPE   GL112729   4.064   2.426   6.206 -0.0528  0.0335 -0.0641
  865YOPE   GL212730   4.438   2.620   6.263 -0.0674  0.0141  0.0086
  865YOPE   C1A12731   3.944   2.497   6.726  0.0805  0.1902  0.0191
  865YOPE   D2A12732   4.062   2.428   7.113 -0.3312 -0.0569 -0.2334
  865YOPE   C3A12733   3.830   2.198   7.524 -0.3453 -0.0148 -0.4202
  865YOPE   C4A12734   4.040   1.984   7.815  0.1299  0.1327  0.0485
  865YOPE   C1B12735   4.388   2.334   6.586  0.1343  0.0014  0.1081
  865YOPE   C2B12736   4.461   2.154   6.919 -0.0083  0.0096 -0.2462
  865YOPE   D3B12737   4.473   2.185   7.408 -0.2353 -0.0751  0.1472
  865YOPE   C4B12738   4.727   2.347   7.767  0.0530  0.0621 -0.0580
  866YOPE   NH312739   0.508  11.719   6.131 -0.0249  0.0115  0.0402
  866YOPE   PO412740   0.040  11.818   6.017 -0.0523 -0.1485 -0.4081
  866YOPE   GL112741   0.225  11.886   6.573  0.2387  0.2223 -0.2016
  866YOPE   GL212742   0.549  11.803   6.648  0.3020 -0.1674 -0.1618
  866YOPE   C1A12743   0.176  11.820   7.014  0.0673  0.3010  0.0593
  866YOPE   D2A12744   0.234  11.843   7.505  0.3786 -0.2459  0.2188
  866YOPE   C3A12745   0.581  11.894   7.944  0.1764 -0.1681  0.0395
  866YOPE   C4A12746   0.439  11.813   8.472 -0.1614 -0.1922  0.0211
  866YOPE   C1B12747   0.652  11.643   6.991 -0.2515  0.1330 -0.0729
  866YOPE   C2B12748   0.789  11.672   7.469  0.2549  0.1484 -0.4257
  866YOPE   D3B12749   0.843  11.447   7.882 -0.2057 -0.3254  0.0277
  866YOPE   C4B12750   0.858  11.411   8.335 -0.0206  0.0112 -0.1135
  867YOPE   NH312751   9.637   3.131   6.441  0.0579  0.2129 -0.0228
  867YOPE   PO412752   9.618   3.569   6.611  0.0643 -0.2817 -0.3999
  867YOPE   GL112753   9.635   3.215   6.937  0.2447  0.0115  0.3862
  867YOPE   GL212754   9.544   3.427   7.135  0.2469  0.0629 -0.2412
  867YOPE   C1A12755   9.644   2.913   7.336  0.0556  0.0052  0.1528
  867YOPE   D2A12756  10.011   2.915   7.706 -0.1165  0.0397  0.2253
  867YOPE   C3A12757   9.868   2.812   8.159  0.0373 -0.0183 -0.0678
  867YOPE   C4A12758   9.695   3.064   8.580  0.1347 -0.0744 -0.1079
  867YOPE   C1B12759   9.411   3.325   7.571 -0.0422 -0.1670  0.1023
  867YOPE   C2B12760   9.535   3.078   7.924 -0.0355 -0.1699 -0.2009
  867YOPE   D3B12761   9.353   2.871   8.270  0.0314 -0.3018  0.1680
  867YOPE   C4B12762   9.254   2.512   8.520 -0.3043 -0.1683  0.3410
  868YOPE   NH312763  11.472  15.401   5.571  0.0739  0.1081  0.3222
  868YOPE   PO412764  11.211  15.253   5.919 -0.1140  0.0630  0.1967
  868YOPE   GL112765  11.410  15.363   6.330  0.1400 -0.1926 -0.1186
  868YOPE   GL212766  11.709  15.404   6.424 -0.0684  0.0529 -0.0235
  868YOPE   C1A12767  11.269  15.297   6.792  0.0495  0.4806 -0.1063
  868YOPE   D2A12768  11.241  15.196   7.228  0.0880  0.2988 -0.2317
  868YOPE   C3A12769  11.430  15.208   7.546 -0.1511  0.0475 -0.1219
  868YOPE   C4A12770  11.409  15.452   7.895  0.0161  0.2494  0.2432
  868YOPE   C1B12771  11.693  15.650   6.861  0.0493 -0.0060  0.3276
  868YOPE   C2B12772  11.668  15.571   7.234 -0.0404  0.0308 -0.1290
  868YOPE   D3B12773  11.780  15.659   7.676  0.3839  0.2132 -0.1233
  868YOPE   C4B12774  11.843  15.770   8.019 -0.0191 -0.1726 -0.1335
  869YOPE   NH312775   1.106   4.869   5.722  0.1030 -0.0637 -0.0312
  869YOPE   PO412776   0.973   5.119   5.964 -0.1729  0.4151  0.0583
  869YOPE   GL112777   1.040   5.263   6.432 -0.0950 -0.1648  0.0682
  869YOPE   GL212778   1.366   5.476   6.452 -0.0592 -0.1431 -0.0736
  869YOPE   C1A12779   1.104   5.301   6.847 -0.0397 -0.2503 -0.3463
  869YOPE   D2A12780   1.104   5.460   7.248 -0.1099  0.2985 -0.2210
  869YOPE   C3A12781   1.271   5.085   7.544  0.0406  0.2518 -0.0543
  869YOPE   C4A12782   1.337   4.958   7.983 -0.0419  0.4434  0.1330
  869YOPE   C1B12783   1.334   5.764   6.804 -0.0486 -0.0369 -0.2509
  869YOPE   C2B12784   1.326   5.971   7.306  0.2655 -0.2192  0.0996
  869YOPE   D3B12785   1.761   6.094   7.553 -0.2471 -0.1859  0.0856
  869YOPE   C4B12786   2.077   6.092   7.793 -0.0809 -0.0351 -0.2296
  870YOPE   NH312787   9.082  11.132   6.490 -0.0037 -0.0503  0.1130
  870YOPE   PO412788   9.003  10.829   6.194  0.1683  0.0241  0.0615
  870YOPE   GL112789   9.218  10.613   6.489  0.1071  0.0184  0.5278
  870YOPE   GL212790   9.466  10.403   6.457  0.2626 -0.1660 -0.0730
  870YOPE   C1A12791   9.076  10.555   6.925 -0.2644 -0.3595 -0.0895
  870YOPE   D2A12792   9.163  10.823   7.346  0.0337  0.0815 -0.0330
  870YOPE   C3A12793   9.243  10.726   7.738  0.0013  0.2208  0.1740
  870YOPE   C4A12794   9.176  10.911   8.129 -0.0783  0.0228 -0.0395
  870YOPE   C1B12795   9.587  10.496   6.915 -0.1352  0.1189 -0.1205
  870YOPE   C2B12796   9.648  10.563   7.339 -0.0382 -0.1804 -0.1457
  870YOPE   D3B12797   9.528  10.375   7.791  0.1494  0.0936  0.1730
  870YOPE   C4B12798   9.409  10.468   8.196 -0.2599  0.0555 -0.0675
  871YOPE   NH312799  13.812  13.872   6.598 -0.0315  0.1052  0.2275
  871YOPE   PO412800  13.307  14.029   6.592  0.0077 -0.0588  0.1696
  871YOPE   GL112801  13.441  14.023   7.003  0.0739  0.0548  0.3628
  871YOPE   GL212802  13.608  14.300   7.041 -0.0380  0.4120 -0.1181
  871YOPE   C1A12803  13.350  14.022   7.361  0.3442 -0.1234 -0.5048
  871YOPE   D2A12804  13.205  13.992   7.766  0.1896 -0.1081  0.0709
  871YOPE   C3A12805  13.051  14.246   8.147  0.1763  0.1598 -0.1956
  871YOPE   C4A12806  13.048  14.405   8.549  0.3948 -0.0984  0.0155
  871YOPE   C1B12807  13.618  14.523   7.454 -0.2091 -0.1017 -0.0920
  871YOPE   C2B12808  13.619  14.585   7.812 -0.2207 -0.0658 -0.0063
  871YOPE   D3B12809  13.804  14.600   8.097 -0.1552  0.0797  0.1702
  871YOPE   C4B12810  13.770  14.524   8.520 -0.1801 -0.1924  0.1940
  872YOPE   NH312811   4.468   9.820   5.987 -0.0294 -0.0155 -0.3718
  872YOPE   PO412812   4.434  10.228   5.906  0.0193  0.1785 -0.2249
  872YOPE   GL112813   4.451  10.156   6.368 -0.3125 -0.1022 -0.0544
  872YOPE   GL212814   4.452  10.413   6.508 -0.0345  0.3965  0.0961
  872YOPE   C1A12815   4.536   9.908   6.752 -0.1554  0.1249  0.0900
  872YOPE   D2A12816   4.454   9.822   7.301  0.2418 -0.2012  0.0073
  872YOPE   C3A12817   4.602   9.503   7.613  0.1033 -0.0856 -0.0846
  872YOPE   C4A12818   4.689   9.369   8.045  0.1756 -0.0173 -0.1008
  872YOPE   C1B12819   4.525  10.376   6.975 -0.0397 -0.1627  0.1924
  872YOPE   C2B12820   4.573  10.310   7.424 -0.1481  0.0878 -0.0996
  872YOPE   D3B12821   4.304  10.138   7.696 -0.0705 -0.0237  0.1224
  872YOPE   C4B12822   4.046  10.234   7.917 -0.1762  0.1015 -0.2539
  873YOPE   NH312823  11.081  13.519   5.930  0.0415 -0.1312  0.1313
  873YOPE   PO412824  11.445  13.493   6.287 -0.3130  0.0405  0.2816
  873YOPE   GL112825  11.376  13.169   6.646  0.1077  0.0018  0.3720
  873YOPE   GL212826  11.651  13.157   6.641  0.0756  0.2246 -0.1832
  873YOPE   C1A12827  11.429  13.055   7.090  0.0434  0.0431 -0.2552
  873YOPE   D2A12828  11.306  13.304   7.477 -0.1096  0.0286  0.0125
  873YOPE   C3A12829  11.222  13.209   7.900 -0.0701  0.1756  0.1642
  873YOPE   C4A12830  11.231  13.196   8.412 -0.1207  0.2783  0.0964
  873YOPE   C1B12831  11.761  12.835   6.849 -0.1654  0.0735 -0.1095
  873YOPE   C2B12832  11.774  12.697   7.254 -0.1805 -0.0298 -0.1497
  873YOPE   D3B12833  11.549  12.814   7.588  0.2792 -0.0890 -0.2512
  873YOPE   C4B12834  11.492  12.753   8.039 -0.0015 -0.1251  0.0851
  874YOPE   NH312835   6.262  11.696   6.635 -0.0309 -0.1076 -0.0247
  874YOPE   PO412836   6.272  12.073   6.409  0.0898 -0.1765  0.1664
  874YOPE   GL112837   6.208  12.434   6.685 -0.1335 -0.0149 -0.3086
  874YOPE   GL212838   6.383  12.204   6.934  0.0565 -0.2775 -0.0132
  874YOPE   C1A12839   6.339  12.651   7.010  0.1716 -0.2398 -0.1250
  874YOPE   D2A12840   6.209  12.692   7.542  0.0379  0.1319 -0.3534
  874YOPE   C3A12841   6.501  12.519   7.810  0.2060  0.1630 -0.0468
  874YOPE   C4A12842   6.784  12.455   8.141 -0.1120  0.1309 -0.0947
  874YOPE   C1B12843   6.446  12.270   7.310 -0.0663  0.0723 -0.3779
  874YOPE   C2B12844   6.442  12.052   7.660 -0.0275 -0.0718 -0.3380
  874YOPE   D3B12845   6.254  12.002   8.106  0.1253  0.0933  0.0694
  874YOPE   C4B12846   6.238  12.090   8.548 -0.1825 -0.0225 -0.0708
  875YOPE   NH312847   3.819   2.677   5.809 -0.0337  0.1218 -0.4902
  875YOPE   PO412848   3.327   2.659   5.940 -0.0527 -0.0516  0.0125
  875YOPE   GL112849   3.241   2.688   6.404  0.0794  0.1231 -0.1008
  875YOPE   GL212850   3.019   2.916   6.507 -0.1189  0.2286  0.2289
  875YOPE   C1A12851   3.343   2.438   6.821 -0.1988  0.1969 -0.3786
  875YOPE   D2A12852   3.569   2.318   7.093  0.0249  0.0807 -0.0441
  875YOPE   C3A12853   3.462   2.505   7.513 -0.2877  0.4729 -0.1783
  875YOPE   C4A12854   3.624   2.767   7.919  0.3133 -0.1470  0.1137
  875YOPE   C1B12855   3.150   2.910   6.915  0.1458  0.4046  0.1194
  875YOPE   C2B12856   3.101   2.865   7.348  0.0989  0.0086 -0.1398
  875YOPE   D3B12857   3.097   2.806   7.816  0.1717  0.2081  0.1794
  875YOPE   C4B12858   3.205   2.450   8.035  0.2033 -0.2251 -0.3570
  876YOPE   NH312859  10.981   1.419   5.808  0.2773 -0.1187 -0.1211
  876YOPE   PO412860  11.127   0.956   5.954  0.0340  0.1084 -0.0033
  876YOPE   GL112861  11.246   0.924   6.418  0.0485 -0.2848 -0.0437
  876YOPE   GL212862  11.398   1.146   6.465 -0.1331 -0.0636  0.0848
  876YOPE   C1A12863  11.327   0.923   6.889  0.4450 -0.0775  0.2803
  876YOPE   D2A12864  11.250   0.711   7.175  0.0209 -0.0588 -0.0793
  876YOPE   C3A12865  11.142   0.720   7.591  0.0422 -0.1729 -0.0120
  876YOPE   C4A12866  11.342   0.846   8.012 -0.1374  0.0700 -0.0485
  876YOPE   C1B12867  11.750   1.113   6.729  0.0596 -0.1931  0.2482
  876YOPE   C2B12868  11.802   1.188   7.135 -0.0116  0.1615 -0.0428
  876YOPE   D3B12869  11.746   1.010   7.540 -0.1361 -0.0478  0.1024
  876YOPE   C4B12870  11.608   0.612   7.650 -0.2186 -0.0011  0.0831
  877YOPE   NH312871   6.261   9.353   6.126 -0.0600 -0.0168 -0.0026
  877YOPE   PO412872   6.064   8.893   6.106 -0.0080 -0.0327  0.0513
  877YOPE   GL112873   6.039   8.843   6.549  0.0021 -0.0888 -0.0991
  877YOPE   GL212874   6.217   8.623   6.678 -0.1158  0.0301 -0.1337
  877YOPE   C1A12875   5.625   8.927   6.706 -0.1536  0.0480 -0.3356
  877YOPE   D2A12876   5.240   9.151   6.581 -0.0751 -0.0619  0.0646
  877YOPE   C3A12877   4.967   9.012   6.943  0.2006 -0.0279 -0.0055
  877YOPE   C4A12878   4.791   8.840   7.263 -0.0173  0.0154  0.0710
  877YOPE   C1B12879   5.912   8.675   7.020  0.3652  0.0278  0.1240
  877YOPE   C2B12880   5.752   8.651   7.481  0.2495 -0.1675  0.1924
  877YOPE   D3B12881   5.514   8.453   7.757  0.3492  0.0694 -0.1372
  877YOPE   C4B12882   5.330   8.561   8.133 -0.3516 -0.0715 -0.2458
  878YOPE   NH312883  13.293  17.339   6.137 -0.0394 -0.0276  0.0859
  878YOPE   PO412884  13.709  17.587   6.109  0.1548 -0.1563  0.1284
  878YOPE   GL112885  13.471  17.607   6.544 -0.1739 -0.1299 -0.1737
  878YOPE   GL212886  13.194  17.645   6.521 -0.2874  0.0114 -0.2154
  878YOPE   C1A12887  13.471  17.430   6.946  0.1999 -0.4078 -0.0016
  878YOPE   D2A12888  13.571  17.454   7.412 -0.3494  0.0825  0.2582
  878YOPE   C3A12889  13.311  17.657   7.700 -0.0763 -0.2377  0.3123
  878YOPE   C4A12890  13.073  17.607   8.090 -0.0902  0.2142  0.0507
  878YOPE   C1B12891  13.331  17.925   6.899  0.1909  0.0882  0.1293
  878YOPE   C2B12892  13.439  17.921   7.283  0.0354 -0.0824 -0.2082
  878YOPE   D3B12893  13.261  18.151   7.681  0.0762 -0.0389  0.2676
  878YOPE   C4B12894  13.051  18.121   8.122  0.0135  0.1939 -0.2479
  879YOPE   NH312895   4.268   3.473   6.015  0.0265  0.1967 -0.0911
  879YOPE   PO412896   4.048   3.845   6.031 -0.1328  0.0586 -0.0003
  879YOPE   GL112897   4.220   3.815   6.495  0.0362 -0.2196  0.1372
  879YOPE   GL212898   4.564   3.837   6.516 -0.3857 -0.0197  0.1061
  879YOPE   C1A12899   4.069   3.972   6.887 -0.1200 -0.1882  0.0811
  879YOPE   D2A12900   4.249   4.093   7.304  0.1147 -0.1492  0.0316
  879YOPE   C3A12901   3.925   3.967   7.526  0.2489 -0.2427 -0.2844
  879YOPE   C4A12902   3.520   4.061   7.724 -0.4132 -0.1703 -0.2367
  879YOPE   C1B12903   4.620   3.913   6.952  0.1346  0.0425  0.1369
  879YOPE   C2B12904   4.686   3.857   7.394  0.2282 -0.0016 -0.0231
  879YOPE   D3B12905   4.567   3.683   7.795  0.0329 -0.0019 -0.0032
  879YOPE   C4B12906   4.747   3.534   8.176 -0.1601 -0.0778 -0.2992
  880YOPE   NH312907   2.671  16.396   6.097 -0.1196  0.0959  0.4437
  880YOPE   PO412908   2.447  16.695   6.389  0.1074 -0.3551 -0.1967
  880YOPE   GL112909   2.497  16.367   6.729  0.1181 -0.3584  0.0016
  880YOPE   GL212910   2.828  16.500   6.712  0.2674 -0.1884 -0.1196
  880YOPE   C1A12911   2.603  16.276   7.221  0.2001 -0.1332 -0.0027
  880YOPE   D2A12912   2.609  15.964   7.601  0.0515  0.0174  0.1250
  880YOPE   C3A12913   2.781  15.964   8.091  0.0790  0.0859  0.2078
  880YOPE   C4A12914   3.043  16.195   8.448  0.1897  0.0600  0.1465
  880YOPE   C1B12915   3.021  16.456   7.044 -0.1593 -0.1384  0.2206
  880YOPE   C2B12916   3.066  16.339   7.454  0.1305 -0.1046  0.0662
  880YOPE   D3B12917   3.153  16.245   7.894 -0.0662  0.0725  0.1284
  880YOPE   C4B12918   3.363  16.024   8.123 -0.1024  0.2148  0.1881
  881YOPE   NH312919   4.472   0.005   5.270 -0.0821  0.2641  0.1181
  881YOPE   PO412920   4.396   0.471   5.481 -0.1572  0.1491  0.0620
  881YOPE   GL112921   4.308   0.658   5.873 -0.3405 -0.0276  0.1028
  881YOPE   GL212922   4.218   0.951   5.828  0.2343 -0.0127 -0.0922
  881YOPE   C1A12923   4.352   0.459   6.294 -0.2089  0.1502  0.0555
  881YOPE   D2A12924   4.625   0.378   6.774 -0.2103  0.2182  0.4600
  881YOPE   C3A12925   4.550   0.537   7.159  0.0319  0.1581  0.3738
  881YOPE   C4A12926   4.341   0.690   7.458  0.0230  0.2819  0.0238
  881YOPE   C1B12927   4.161   0.979   6.260 -0.0062  0.0631  0.1003
  881YOPE   C2B12928   3.911   0.888   6.509  0.2372 -0.0294 -0.1561
  881YOPE   D3B12929   3.699   0.776   6.870 -0.2573  0.0184  0.0752
  881YOPE   C4B12930   3.589   0.840   7.260 -0.2046  0.1175  0.0615
  882YOPE   NH312931  16.942  15.825   6.387  0.0191  0.0217 -0.1456
  882YOPE   PO412932  16.727  15.423   6.343 -0.1161 -0.2715  0.1903
  882YOPE   GL112933  16.763  15.510   6.740  0.1881 -0.2080 -0.2246
  882YOPE   GL212934  16.718  15.705   6.879 -0.2874 -0.0427 -0.0304
  882YOPE   C1A12935  16.915  15.384   7.205 -0.2000  0.0933  0.4050
  882YOPE   D2A12936  16.901  15.326   7.612 -0.0725 -0.0805  0.0496
  882YOPE   C3A12937  17.036  15.505   8.037  0.0196  0.0639 -0.3234
  882YOPE   C4A12938  16.925  15.754   8.322  0.1898 -0.1635  0.0067
  882YOPE   C1B12939  16.550  15.731   7.329 -0.1445  0.2526 -0.0534
  882YOPE   C2B12940  16.674  15.922   7.732  0.0781 -0.0693  0.1675
  882YOPE   D3B12941  16.538  16.043   8.071  0.1694 -0.0898 -0.1157
  882YOPE   C4B12942  16.544  16.433   8.229  0.0297 -0.0176  0.0307
  883YOPE   NH312943  16.291   4.150   6.140 -0.1146  0.1137 -0.1126
  883YOPE   PO412944  16.445   3.701   6.035 -0.0976  0.3357  0.1702
  883YOPE   GL112945  16.463   3.408   6.367  0.0072  0.1019 -0.2102
  883YOPE   GL212946  16.419   2.996   6.319 -0.2074  0.1788 -0.1625
  883YOPE   C1A12947  16.485   3.158   6.826 -0.0338  0.3795 -0.1798
  883YOPE   D2A12948  16.391   2.995   7.258  0.1646  0.1870 -0.0478
  883YOPE   C3A12949  16.365   3.226   7.615  0.1308  0.2215  0.2460
  883YOPE   C4A12950  16.232   3.312   7.981 -0.0688 -0.0742 -0.0225
  883YOPE   C1B12951  16.459   2.609   6.590  0.0514 -0.0323  0.0121
  883YOPE   C2B12952  16.495   2.582   7.012 -0.2219  0.2059  0.1362
  883YOPE   D3B12953  16.833   2.631   7.229 -0.1571 -0.2488  0.0061
  883YOPE   C4B12954  17.145   2.431   7.114 -0.1905 -0.2185 -0.3655
  884YOPE   NH312955  10.135  11.853   6.081  0.0969  0.3099 -0.0577
  884YOPE   PO412956  10.421  12.045   6.471  0.1797  0.0734 -0.1252
  884YOPE   GL112957  10.720  12.246   6.661  0.0259 -0.1748  0.1255
  884YOPE   GL212958  10.636  12.506   6.673 -0.0008 -0.0294  0.4445
  884YOPE   C1A12959  10.787  12.111   7.065  0.3523 -0.0848 -0.0735
  884YOPE   D2A12960  10.818  12.100   7.525 -0.1364  0.3258 -0.5556
  884YOPE   C3A12961  10.633  11.992   7.811 -0.3332  0.0621  0.3376
  884YOPE   C4A12962  10.188  11.992   7.990  0.0021 -0.0448  0.2685
  884YOPE   C1B12963  10.505  12.598   7.065  0.1260  0.0644 -0.0341
  884YOPE   C2B12964  10.636  12.603   7.480  0.1868 -0.0811 -0.0799
  884YOPE   D3B12965  10.480  12.457   7.788 -0.1214  0.1244  0.0964
  884YOPE   C4B12966  10.476  12.310   8.239  0.0897 -0.3239  0.0961
  885YOPE   NH312967  12.043   7.631   6.227  0.2169 -0.1762  0.2158
  885YOPE   PO412968  11.722   7.631   6.579 -0.1093 -0.0957 -0.0365
  885YOPE   GL112969  11.808   7.538   6.986 -0.1027 -0.1845  0.0713
  885YOPE   GL212970  11.862   7.176   6.926 -0.0864  0.0973  0.0375
  885YOPE   C1A12971  11.900   7.546   7.425 -0.1805 -0.2271  0.0151
  885YOPE   D2A12972  11.936   7.588   7.817  0.0077 -0.2028 -0.3098
  885YOPE   C3A12973  12.340   7.569   7.987  0.0593  0.3144  0.0057
  885YOPE   C4A12974  12.619   7.510   8.303 -0.0411  0.0278 -0.0381
  885YOPE   C1B12975  11.539   7.200   7.235 -0.1971  0.4190 -0.0475
  885YOPE   C2B12976  11.439   7.363   7.669  0.2811 -0.1366 -0.1058
  885YOPE   D3B12977  11.255   7.517   8.046  0.0570  0.1263 -0.0592
  885YOPE   C4B12978  11.002   7.364   8.375 -0.2759  0.0325 -0.1249
  886YOPE   NH312979  12.699  11.935   6.381  0.0432  0.2662 -0.0334
  886YOPE   PO412980  12.988  12.352   6.432 -0.3871 -0.0249  0.4116
  886YOPE   GL112981  12.922  12.135   6.748 -0.1078 -0.0353 -0.2910
  886YOPE   GL212982  12.708  12.388   6.905  0.0731 -0.0665 -0.2566
  886YOPE   C1A12983  13.084  11.970   7.020 -0.2980  0.0588 -0.4470
  886YOPE   D2A12984  13.287  11.668   7.237  0.1691  0.1840  0.1188
  886YOPE   C3A12985  13.448  11.611   7.648  0.1152  0.0243  0.1704
  886YOPE   C4A12986  13.557  11.832   8.035  0.0823 -0.0699  0.0569
  886YOPE   C1B12987  12.922  12.430   7.208  0.1371 -0.0151 -0.2176
  886YOPE   C2B12988  12.912  12.251   7.542  0.0636  0.0541 -0.2534
  886YOPE   D3B12989  13.027  11.876   7.652  0.1164  0.0152  0.0980
  886YOPE   C4B12990  13.043  11.654   8.028 -0.0706 -0.0818  0.0106
  887YOPE   NH312991   2.187   0.121   6.411  0.0559  0.3900 -0.0422
  887YOPE   PO412992   1.743   0.128   6.374  0.3059  0.0391  0.1050
  887YOPE   GL112993   1.813   0.367   6.777 -0.0396 -0.0622  0.1678
  887YOPE   GL212994   2.127   0.473   6.759 -0.2540 -0.1347 -0.2064
  887YOPE   C1A12995   1.757   0.531   7.170  0.1708 -0.1853  0.2639
  887YOPE   D2A12996   1.967   0.523   7.603  0.1231  0.0101  0.1620
  887YOPE   C3A12997   2.173   0.564   8.039  0.2931  0.2595  0.1919
  887YOPE   C4A12998   2.002   0.649   8.422 -0.0674  0.1750  0.1086
  887YOPE   C1B12999   2.218   0.325   7.187  0.2531  0.1561 -0.2511
  887YOPE   C2B13000   2.475   0.323   7.570  0.0689 -0.1269 -0.0295
  887YOPE   D3B13001   2.727   0.224   7.969 -0.1212  0.0770 -0.0581
  887YOPE   C4B13002   3.086   0.269   8.335  0.2217 -0.1177 -0.1948
  888YOPE   NH313003   0.973   9.034   6.095  0.1276  0.1070  0.0655
  888YOPE   PO413004   0.562   9.023   5.882 -0.2277 -0.1714 -0.1491
  888YOPE   GL113005   0.476   8.918   6.350  0.1458  0.3555  0.4177
  888YOPE   GL213006   0.672   9.119   6.591 -0.0380  0.1664 -0.2223
  888YOPE   C1A13007   0.350   8.630   6.717 -0.1446 -0.1020  0.0268
  888YOPE   D2A13008   0.243   8.234   6.970 -0.2297 -0.2846 -0.1486
  888YOPE   C3A13009   0.359   8.187   7.453  0.3283 -0.0111  0.2690
  888YOPE   C4A13010   0.612   8.246   7.895 -0.0820 -0.2221  0.0665
  888YOPE   C1B13011   0.831   9.090   7.007 -0.2837  0.0564  0.1547
  888YOPE   C2B13012   0.977   9.029   7.326  0.0029  0.0187  0.0188
  888YOPE   D3B13013   0.968   8.686   7.559  0.0186  0.2203  0.0701
  888YOPE   C4B13014   0.869   8.258   7.444 -0.0799 -0.2299  0.0297
  889YOPE   NH313015   7.580   0.768   6.096 -0.1456 -0.2537 -0.3897
  889YOPE   PO413016   7.946   1.039   6.085  0.3292 -0.2150 -0.2558
  889YOPE   GL113017   7.744   1.156   6.512  0.0081 -0.1258 -0.1141
  889YOPE   GL213018   7.692   0.990   6.749 -0.0314  0.0460 -0.3219
  889YOPE   C1A13019   7.614   1.534   6.705 -0.1891 -0.0105  0.3620
  889YOPE   D2A13020   7.342   1.820   6.885  0.0532  0.1096 -0.3026
  889YOPE   C3A13021   7.337   1.839   7.301 -0.0809 -0.2560 -0.3665
  889YOPE   C4A13022   7.045   1.621   7.658  0.1416  0.0488  0.0829
  889YOPE   C1B13023   7.705   0.989   7.178 -0.0515  0.2909 -0.3247
  889YOPE   C2B13024   7.692   0.784   7.547 -0.0425  0.0625  0.2661
  889YOPE   D3B13025   7.912   0.551   7.773 -0.0601 -0.0910  0.0899
  889YOPE   C4B13026   8.218   0.298   8.088  0.1437  0.0194 -0.0187
  890YOPE   NH313027  14.573  13.372   6.696 -0.0042  0.0951 -0.2712
  890YOPE   PO413028  14.318  13.768   6.669  0.1181 -0.1209  0.0820
  890YOPE   GL113029  14.433  13.709   7.095  0.1819  0.1213 -0.1217
  890YOPE   GL213030  14.665  13.447   7.264  0.0720 -0.1388  0.0039
  890YOPE   C1A13031  14.457  13.990   7.587  0.5520  0.0909 -0.2951
  890YOPE   D2A13032  14.701  14.091   7.992  0.3356  0.0101  0.0763
  890YOPE   C3A13033  15.097  13.914   8.001 -0.0071 -0.0776 -0.0665
  890YOPE   C4A13034  15.316  13.554   7.783  0.1041 -0.2832  0.0782
  890YOPE   C1B13035  14.667  13.166   7.619 -0.2959  0.0205 -0.0994
  890YOPE   C2B13036  14.694  12.959   8.034  0.3390  0.2985  0.0669
  890YOPE   D3B13037  14.469  12.671   8.268 -0.0841 -0.3309  0.0051
  890YOPE   C4B13038  14.051  12.637   8.445 -0.2827  0.2358 -0.1167
  891YOPE   NH313039  12.741   4.513   5.797  0.0011  0.1065 -0.0358
  891YOPE   PO413040  12.545   4.941   5.822 -0.1069 -0.0450  0.0361
  891YOPE   GL113041  12.572   4.867   6.198 -0.2524  0.0357 -0.0834
  891YOPE   GL213042  12.238   4.933   6.289  0.1597 -0.0936 -0.2959
  891YOPE   C1A13043  12.623   4.908   6.617 -0.1787 -0.0382 -0.2222
  891YOPE   D2A13044  12.737   4.909   7.088 -0.0343  0.1055  0.1583
  891YOPE   C3A13045  12.843   4.976   7.557 -0.4127 -0.2392 -0.0400
  891YOPE   C4A13046  12.857   4.837   8.038 -0.3479  0.0669 -0.2671
  891YOPE   C1B13047  12.129   4.977   6.646  0.0658 -0.0448 -0.2070
  891YOPE   C2B13048  12.248   5.125   7.033 -0.3092  0.0870  0.0211
  891YOPE   D3B13049  12.338   5.099   7.411  0.0054 -0.0410  0.1366
  891YOPE   C4B13050  12.395   4.931   7.893 -0.4181  0.3923  0.2767
  892YOPE   NH313051   0.412   0.716   6.245  0.1533 -0.2113  0.1898
  892YOPE   PO413052   0.917   0.659   6.312 -0.2531 -0.2279  0.0726
  892YOPE   GL113053   0.926   0.518   6.664  0.1068 -0.0562  0.2342
  892YOPE   GL213054   0.916   0.149   6.644 -0.3553 -0.1069  0.0256
  892YOPE   C1A13055   0.777   0.528   7.159 -0.0724 -0.0403  0.1111
  892YOPE   D2A13056   0.805   0.657   7.553  0.1958  0.1614 -0.0056
  892YOPE   C3A13057   0.491   0.863   7.657 -0.0717  0.0662 -0.0506
  892YOPE   C4A13058   0.131   1.061   7.806  0.0255 -0.2844  0.0880
  892YOPE   C1B13059   0.996   0.109   7.131  0.0854 -0.2022 -0.0419
  892YOPE   C2B13060   1.039   0.094   7.628  0.1093 -0.0868  0.0056
  892YOPE   D3B13061   1.050   0.389   7.990  0.0232  0.0155 -0.1132
  892YOPE   C4B13062   1.074   0.885   8.049 -0.2999 -0.0343  0.0228
  893YOPE   NH313063  11.966   8.734   6.245  0.2161  0.2151  0.2348
  893YOPE   PO413064  11.864   9.117   6.361 -0.2035 -0.2816 -0.0513
  893YOPE   GL113065  12.054   9.100   6.689  0.0738  0.0722  0.0441
  893YOPE   GL213066  12.060   8.851   6.746 -0.0039 -0.2533 -0.0240
  893YOPE   C1A13067  12.104   9.244   7.141 -0.1201  0.1130  0.1679
  893YOPE   D2A13068  12.403   9.277   7.377  0.1027  0.2569  0.0878
  893YOPE   C3A13069  12.403   9.236   7.858 -0.1329 -0.3482  0.0970
  893YOPE   C4A13070  12.615   9.288   8.142  0.2812 -0.1238 -0.0429
  893YOPE   C1B13071  12.368   8.836   7.133  0.2463 -0.2021 -0.1093
  893YOPE   C2B13072  12.513   8.840   7.616  0.0135  0.0129  0.0728
  893YOPE   D3B13073  12.431   8.795   8.109 -0.0034 -0.0104  0.2835
  893YOPE   C4B13074  12.519   8.942   8.453  0.2340 -0.0751  0.2037
  894YOPE   NH313075   9.659   5.214   6.389 -0.0593  0.2853  0.0544
  894YOPE   PO413076   9.666   5.627   6.233 -0.0683 -0.2007  0.0991
  894YOPE   GL113077   9.813   5.746   6.688  0.0987 -0.1002  0.1794
  894YOPE   GL213078   9.809   6.084   6.629 -0.2621  0.0058  0.0041
  894YOPE   C1A13079   9.777   5.834   7.101 -0.0904 -0.2163  0.1942
  894YOPE   D2A13080   9.722   5.857   7.548 -0.0722  0.1325 -0.2070
  894YOPE   C3A13081   9.895   5.736   7.919  0.1384  0.1727 -0.3738
  894YOPE   C4A13082   9.870   5.403   8.239 -0.0869 -0.0103 -0.1584
  894YOPE   C1B13083   9.445   6.160   6.936  0.3132 -0.3071  0.1332
  894YOPE   C2B13084   9.388   6.203   7.375 -0.0731 -0.0384  0.2659
  894YOPE   D3B13085   9.431   6.201   7.735  0.3701 -0.0168  0.0043
  894YOPE   C4B13086   9.216   6.177   8.133 -0.2268  0.1901 -0.0612
  895YOPE   NH313087   7.107   7.018   6.324 -0.0303  0.3029  0.0247
  895YOPE   PO413088   7.453   6.651   6.470  0.0267  0.1384 -0.0114
  895YOPE   GL113089   7.574   6.388   6.799 -0.1320  0.0446 -0.0033
  895YOPE   GL213090   7.854   6.194   6.743  0.2462 -0.0728  0.1780
  895YOPE   C1A13091   7.481   6.427   7.272 -0.4154  0.3454 -0.0553
  895YOPE   D2A13092   7.449   6.293   7.752 -0.2486 -0.1800  0.1870
  895YOPE   C3A13093   7.565   6.482   8.167 -0.2192  0.1344  0.1140
  895YOPE   C4A13094   7.297   6.764   8.316 -0.0531 -0.1740  0.1323
  895YOPE   C1B13095   8.027   6.107   7.118  0.0057 -0.0073 -0.1478
  895YOPE   C2B13096   7.843   6.102   7.509  0.1394 -0.0485  0.0937
  895YOPE   D3B13097   8.011   6.233   7.903  0.2186 -0.0695  0.0056
  895YOPE   C4B13098   8.242   6.254   8.268  0.1042  0.1535 -0.1859
  896YOPE   NH313099   7.560  13.957   6.220 -0.1214 -0.1272 -0.1945
  896YOPE   PO413100   7.977  13.790   6.266  0.0510 -0.3942  0.0159
  896YOPE   GL113101   7.969  13.747   6.619  0.0964  0.0083  0.1696
  896YOPE   GL213102   7.907  14.040   6.812 -0.0143 -0.0220 -0.0256
  896YOPE   C1A13103   8.106  13.435   6.912  0.5026  0.2440 -0.0037
  896YOPE   D2A13104   8.155  13.498   7.402  0.0923 -0.0852 -0.1176
  896YOPE   C3A13105   8.264  13.889   7.595  0.0475 -0.1104 -0.0211
  896YOPE   C4A13106   8.233  14.005   7.995  0.1427  0.0581  0.1930
  896YOPE   C1B13107   7.855  14.281   7.096  0.3319 -0.0659  0.2017
  896YOPE   C2B13108   7.836  14.487   7.485 -0.2170 -0.2672 -0.0504
  896YOPE   D3B13109   7.910  14.393   7.939 -0.1473  0.0743  0.0880
  896YOPE   C4B13110   8.270  14.452   8.176 -0.2464 -0.0101  0.2781
  897YOPE   NH313111  17.808   4.109   5.976 -0.0632 -0.1899 -0.0042
  897YOPE   PO413112  18.427   4.142   5.950  0.1646 -0.1007 -0.0710
  897YOPE   GL113113  18.517   4.304   6.354 -0.0618  0.1345 -0.3438
  897YOPE   GL213114  18.196   4.497   6.408  0.0730 -0.0235  0.5138
  897YOPE   C1A13115  18.521   4.430   6.747  0.2582 -0.0913  0.0037
  897YOPE   D2A13116  18.173   4.566   6.979 -0.0133 -0.1324 -0.0215
  897YOPE   C3A13117  18.165   4.591   7.413  0.0583  0.0002 -0.1534
  897YOPE   C4A13118  18.307   4.405   7.897  0.0974 -0.2517 -0.4588
  897YOPE   C1B13119  18.073   4.810   6.562 -0.0501  0.0058  0.1184
  897YOPE   C2B13120  17.894   5.143   6.766 -0.0291 -0.0447  0.2326
  897YOPE   D3B13121  17.873   5.351   7.145 -0.0296 -0.1786 -0.1288
  897YOPE   C4B13122  18.112   5.450   7.516 -0.2952 -0.4040  0.0274
  898YOPE   NH313123   6.829  14.292   5.753  0.1222 -0.0278  0.1044
  898YOPE   PO413124   7.076  14.157   6.085 -0.2892  0.1975  0.4015
  898YOPE   GL113125   7.143  14.307   6.444 -0.0508  0.2092 -0.0669
  898YOPE   GL213126   7.462  14.403   6.496  0.1975  0.2063 -0.0734
  898YOPE   C1A13127   6.925  14.348   6.813  0.1226  0.1030 -0.1249
  898YOPE   D2A13128   6.627  14.336   7.139  0.4413 -0.1172 -0.2519
  898YOPE   C3A13129   6.693  14.246   7.586  0.0920  0.1783  0.0047
  898YOPE   C4A13130   6.839  14.395   7.973 -0.1293  0.2862 -0.1540
  898YOPE   C1B13131   7.401  14.420   6.909  0.0150  0.0268 -0.0087
  898YOPE   C2B13132   7.162  14.335   7.248  0.0934 -0.0393 -0.2088
  898YOPE   D3B13133   7.207  14.329   7.580 -0.2885  0.2106 -0.1330
  898YOPE   C4B13134   7.397  14.414   8.016  0.1702  0.0006 -0.0266
  899YOPE   NH313135  10.310   9.467   6.404  0.0953  0.0618 -0.0796
  899YOPE   PO413136   9.957   9.079   6.488  0.0058 -0.3039  0.0017
  899YOPE   GL113137  10.199   9.234   6.860 -0.0588 -0.0975 -0.0722
  899YOPE   GL213138  10.431   9.039   6.823 -0.1942 -0.2011 -0.0506
  899YOPE   C1A13139  10.306   9.177   7.385  0.3026  0.2407  0.2416
  899YOPE   D2A13140  10.249   9.031   7.881  0.0348 -0.0871 -0.2080
  899YOPE   C3A13141  10.472   9.265   8.181  0.1298 -0.0041  0.2634
  899YOPE   C4A13142  10.661   9.576   8.526 -0.2957  0.0481  0.2046
  899YOPE   C1B13143  10.590   8.824   7.207  0.4752 -0.1736  0.0522
  899YOPE   C2B13144  10.721   8.711   7.569  0.2028 -0.2726  0.0560
  899YOPE   D3B13145  10.728   8.817   7.965 -0.0512  0.1057  0.1474
  899YOPE   C4B13146  10.592   8.823   8.419  0.1683 -0.2552  0.1600
  900YOPE   NH313147  10.545   5.283   6.299 -0.1888 -0.1921 -0.1607
  900YOPE   PO413148  10.118   5.471   6.339 -0.1597 -0.0424 -0.0357
  900YOPE   GL113149  10.056   5.297   6.765  0.3216  0.1855 -0.0437
  900YOPE   GL213150  10.398   5.170   6.876  0.2153 -0.0164 -0.1541
  900YOPE   C1A13151   9.796   5.296   7.114  0.0393 -0.1620  0.4642
  900YOPE   D2A13152   9.910   5.332   7.417 -0.1955  0.2272 -0.0813
  900YOPE   C3A13153   9.644   5.253   7.796 -0.1257  0.0128  0.2417
  900YOPE   C4A13154   9.442   5.010   8.163 -0.1599  0.3098  0.0937
  900YOPE   C1B13155  10.450   5.271   7.393 -0.0648 -0.0812  0.0654
  900YOPE   C2B13156  10.259   5.367   7.761  0.3401 -0.1870 -0.0149
  900YOPE   D3B13157  10.306   5.589   8.148  0.1009  0.0619  0.1879
  900YOPE   C4B13158  10.199   5.324   8.585  0.1253 -0.2619  0.0843
  901POPC   NC313159  14.156  17.196   6.031  0.0616 -0.0452 -0.0543
  901POPC   PO413160  14.229  16.809   6.059 -0.2557 -0.1061 -0.2665
  901POPC   GL113161  14.121  16.503   6.289 -0.1403 -0.0033 -0.1279
  901POPC   GL213162  14.156  16.152   6.245  0.0341  0.1105 -0.0441
  901POPC   C1A13163  14.097  16.463   6.688  0.0928  0.1548  0.1798
  901POPC   D2A13164  14.069  16.163   7.068  0.0126  0.1512 -0.0321
  901POPC   C3A13165  13.961  16.137   7.505  0.0108  0.4548  0.2650
  901POPC   C4A13166  13.777  15.958   7.861 -0.0326  0.0817 -0.1085
  901POPC   C1B13167  14.049  15.953   6.583  0.2028 -0.2004  0.2602
  901POPC   C2B13168  14.327  15.755   6.854  0.2473  0.2696 -0.0528
  901POPC   C3B13169  14.214  15.732   7.306 -0.2135  0.2175 -0.0756
  901POPC   C4B13170  14.237  15.763   7.847 -0.1413  0.0779 -0.0571
  902POPC   NC313171   2.750   2.694   5.916 -0.3955 -0.0570  0.0915
  902POPC   PO413172   2.567   3.100   5.973  0.0403 -0.0672  0.0379
  902POPC   GL113173   2.534   2.949   6.395  0.0655 -0.1855  0.4295
  902POPC   GL213174   2.542   3.207   6.605  0.1777  0.0303 -0.0226
  902POPC   C1A13175   2.219   2.689   6.580 -0.0049  0.0938 -0.2000
  902POPC   D2A13176   1.793   2.621   6.403  0.5014 -0.0110 -0.0693
  902POPC   C3A13177   1.491   2.852   6.608  0.1306  0.1889  0.0240
  902POPC   C4A13178   1.516   3.076   6.919  0.4111 -0.1766  0.0834
  902POPC   C1B13179   2.794   3.255   7.013  0.2785  0.0766 -0.1491
  902POPC   C2B13180   2.745   3.308   7.443  0.2239  0.3303 -0.3346
  902POPC   C3B13181   2.672   3.600   7.799  0.0187  0.1051 -0.4571
  902POPC   C4B13182   2.602   3.736   8.211 -0.1963 -0.1048 -0.0982
  903POPC   NC313183   7.995  11.003   6.775 -0.2726  0.0593 -0.2082
  903POPC   PO413184   7.728  11.327   6.677  0.1193  0.0424  0.0631
  903POPC   GL113185   7.646  11.253   7.061 -0.1279 -0.0518 -0.2803
  903POPC   GL213186   7.794  10.921   7.194 -0.1497 -0.2844 -0.0271
  903POPC   C1A13187   7.825  11.473   7.446  0.1776 -0.0373 -0.2710
  903POPC   D2A13188   7.845  11.537   7.864  0.1867  0.0456  0.2073
  903POPC   C3A13189   8.197  11.795   8.025 -0.0323 -0.1112  0.2608
  903POPC   C4A13190   8.523  11.807   8.351  0.0801  0.1314 -0.2895
  903POPC   C1B13191   7.915  11.045   7.636  0.3050  0.0436 -0.0562
  903POPC   C2B13192   7.949  11.063   8.015  0.0158 -0.3163 -0.0476
  903POPC   C3B13193   8.135  11.409   8.365  0.1202  0.1076  0.0181
  903POPC   C4B13194   8.075  11.794   8.605  0.3225 -0.2625 -0.0323
  904POPC   NC313195  16.438   5.812   5.422  0.0576 -0.0187  0.1575
  904POPC   PO413196  16.124   5.711   5.716  0.1060  0.0426 -0.0739
  904POPC   GL113197  16.150   5.617   6.151 -0.2533 -0.0640 -0.3905
  904POPC   GL213198  15.892   5.450   6.337 -0.0263  0.1668  0.2489
  904POPC   C1A13199  16.379   5.403   6.521  0.0041 -0.1782  0.2800
  904POPC   D2A13200  16.343   5.382   6.972  0.2097  0.0436  0.1036
  904POPC   C3A13201  16.496   5.046   7.206 -0.0478 -0.2367 -0.0720
  904POPC   C4A13202  16.715   4.958   7.571  0.1954 -0.0317  0.0343
  904POPC   C1B13203  15.850   5.561   6.710  0.1379  0.1038  0.0326
  904POPC   C2B13204  15.889   5.548   7.112 -0.1639  0.1497 -0.2061
  904POPC   C3B13205  15.730   5.504   7.471  0.0962 -0.2106 -0.0004
  904POPC   C4B13206  15.466   5.604   7.823 -0.1543  0.2341  0.1300
  905POPC   NC313207  16.056   7.364   5.763 -0.0790 -0.1211  0.2807
  905POPC   PO413208  16.184   6.967   5.888  0.0095  0.1584  0.1969
  905POPC   GL113209  16.358   6.986   6.345 -0.2025  0.3087  0.0565
  905POPC   GL213210  16.564   7.182   6.545  0.1408  0.0174 -0.1034
  905POPC   C1A13211  16.239   6.852   6.788  0.3783  0.0260 -0.1187
  905POPC   D2A13212  16.445   6.966   7.148  0.0446 -0.0554  0.2094
  905POPC   C3A13213  16.348   6.895   7.557  0.1665  0.0617  0.2072
  905POPC   C4A13214  16.475   6.730   7.950  0.1845  0.3818 -0.1841
  905POPC   C1B13215  16.501   7.339   6.888 -0.1990 -0.0461 -0.0444
  905POPC   C2B13216  16.343   7.540   7.270 -0.2012  0.2352  0.1558
  905POPC   C3B13217  16.290   7.461   7.695  0.0307 -0.2109  0.0171
  905POPC   C4B13218  15.988   7.321   8.006 -0.1276 -0.0123  0.0926
  906POPC   NC313219  10.012  17.098   6.230  0.1374 -0.1797  0.0279
  906POPC   PO413220   9.636  17.239   6.387  0.1078 -0.4333 -0.3675
  906POPC   GL113221   9.680  17.439   6.726  0.0614  0.0347 -0.1068
  906POPC   GL213222   9.839  17.721   6.879  0.0512  0.0931 -0.0422
  906POPC   C1A13223   9.550  17.428   7.113 -0.0416 -0.0121 -0.1367
  906POPC   D2A13224   9.472  17.435   7.505 -0.2415  0.2065  0.3123
  906POPC   C3A13225   9.301  17.147   7.806  0.1576 -0.0097 -0.0784
  906POPC   C4A13226   9.103  17.024   8.276  0.3307 -0.3208 -0.2881
  906POPC   C1B13227   9.967  17.757   7.263 -0.0263  0.1343 -0.2929
  906POPC   C2B13228   9.922  17.786   7.677  0.3123 -0.1110  0.0850
  906POPC   C3B13229   9.830  17.989   8.066  0.0571  0.0697 -0.2775
  906POPC   C4B13230   9.685  17.923   8.448 -0.1912  0.0473 -0.1601
  907POPC   NC313231   6.593  16.881   5.942  0.0852  0.0105 -0.3328
  907POPC   PO413232   6.291  17.032   6.210 -0.0835  0.0293 -0.0537
  907POPC   GL113233   6.465  17.379   6.523 -0.4218  0.1959 -0.1056
  907POPC   GL213234   6.355  17.430   6.766 -0.0495  0.1090  0.0462
  907POPC   C1A13235   6.845  17.327   6.825 -0.3152 -0.0144 -0.1792
  907POPC   D2A13236   7.007  17.523   7.172  0.0511  0.0252 -0.3334
  907POPC   C3A13237   7.041  17.477   7.636  0.1810 -0.1260 -0.1814
  907POPC   C4A13238   6.937  17.348   8.093  0.1305 -0.0349 -0.0720
  907POPC   C1B13239   6.401  17.514   7.163 -0.0162  0.0633  0.3564
  907POPC   C2B13240   6.198  17.584   7.650  0.0993 -0.0102 -0.2673
  907POPC   C3B13241   5.956  17.676   8.050  0.0824  0.2482  0.1216
  907POPC   C4B13242   5.670  17.612   8.349  0.1493  0.0453 -0.1442
  908POPC   NC313243   4.918   7.972   5.591 -0.0377  0.0576  0.1530
  908POPC   PO413244   4.985   7.716   5.901 -0.0633  0.1569 -0.0796
  908POPC   GL113245   5.039   7.780   6.386 -0.1693 -0.2581  0.0447
  908POPC   GL213246   5.329   7.612   6.506  0.0893 -0.1893  0.0903
  908POPC   C1A13247   4.875   8.013   6.667 -0.1470  0.0698 -0.3703
  908POPC   D2A13248   4.531   8.184   6.611 -0.0152  0.1129 -0.0849
  908POPC   C3A13249   4.495   8.613   6.453 -0.1035  0.0887 -0.3995
  908POPC   C4A13250   4.756   8.999   6.475 -0.2232  0.3050 -0.0460
  908POPC   C1B13251   5.618   7.470   6.831 -0.1950  0.3730  0.0137
  908POPC   C2B13252   5.632   7.261   7.224  0.2911 -0.1540 -0.0426
  908POPC   C3B13253   5.514   7.315   7.724 -0.4434  0.3407  0.1390
  908POPC   C4B13254   5.312   7.076   7.949 -0.1948 -0.2864  0.4048
  909POPC   NC313255   7.960   8.877   6.344  0.1647 -0.1758 -0.1200
  909POPC   PO413256   8.100   9.244   6.309  0.1249  0.2022  0.2478
  909POPC   GL113257   8.206   9.164   6.744  0.2618 -0.1008  0.0987
  909POPC   GL213258   8.228   8.823   6.830  0.1167 -0.1873 -0.1253
  909POPC   C1A13259   8.094   9.283   7.117  0.0074  0.0263  0.1187
  909POPC   D2A13260   8.008   9.613   7.379 -0.1826  0.1386 -0.2385
  909POPC   C3A13261   8.153   9.676   7.846  0.0026  0.2884  0.0086
  909POPC   C4A13262   8.135   9.676   8.261  0.0419 -0.2864  0.0460
  909POPC   C1B13263   8.311   8.886   7.283 -0.1266  0.2952  0.0463
  909POPC   C2B13264   8.416   8.772   7.690  0.0973  0.0057  0.1196
  909POPC   C3B13265   8.387   8.760   8.135  0.0073  0.1711 -0.2481
  909POPC   C4B13266   8.499   8.902   8.396 -0.1463 -0.2199 -0.2676
  910POPC   NC313267  12.105  12.072   5.908  0.0432  0.1230 -0.0133
  910POPC   PO413268  11.638  12.079   5.931  0.1271 -0.1836  0.0300
  910POPC   GL113269  11.602  12.179   6.380 -0.0346 -0.1753 -0.3647
  910POPC   GL213270  11.776  12.376   6.624 -0.0885  0.2444  0.0467
  910POPC   C1A13271  11.398  12.150   6.758 -0.1095 -0.1802  0.1355
  910POPC   D2A13272  11.247  11.992   7.143  0.0755  0.2973  0.2303
  910POPC   C3A13273  11.291  11.838   7.445 -0.0980 -0.0786 -0.1663
  910POPC   C4A13274  11.260  11.984   7.762 -0.0583 -0.1893 -0.0430
  910POPC   C1B13275  11.797  12.248   7.029  0.5366  0.0074  0.3565
  910POPC   C2B13276  11.638  12.292   7.435 -0.0005 -0.1207  0.0171
  910POPC   C3B13277  11.695  12.379   7.830  0.0657  0.2016 -0.5070
  910POPC   C4B13278  11.479  12.259   8.150 -0.1871  0.1520  0.0836
  911POPC   NC313279  12.028   4.837   5.844 -0.1682  0.1555 -0.1310
  911POPC   PO413280  11.725   4.555   6.042  0.5598 -0.1464  0.2074
  911POPC   GL113281  11.682   4.664   6.532  0.1405  0.1446  0.2141
  911POPC   GL213282  11.629   4.910   6.652  0.0083  0.0943  0.1870
  911POPC   C1A13283  11.783   4.356   6.809 -0.0585  0.1369 -0.1451
  911POPC   D2A13284  11.964   4.263   7.087  0.1615  0.1532 -0.0378
  911POPC   C3A13285  11.990   4.282   7.529  0.0632 -0.0398  0.1992
  911POPC   C4A13286  12.067   4.371   7.893  0.0996  0.3089  0.3133
  911POPC   C1B13287  11.853   4.863   7.121 -0.1814 -0.0612 -0.0752
  911POPC   C2B13288  11.927   4.800   7.576 -0.0138  0.1020  0.1679
  911POPC   C3B13289  11.858   4.896   7.991 -0.0706  0.0972 -0.0822
  911POPC   C4B13290  11.926   4.998   8.347 -0.2578  0.0229 -0.0685
  912POPC   NC313291  14.337   1.788   5.378 -0.3492 -0.0483  0.1844
  912POPC   PO413292  14.239   2.117   5.716 -0.0865  0.0494  0.1853
  912POPC   GL113293  14.057   2.248   6.114  0.1833  0.3070  0.0121
  912POPC   GL213294  13.809   2.525   6.283 -0.1498 -0.2210  0.2366
  912POPC   C1A13295  14.202   2.292   6.481  0.0267 -0.1192  0.2346
  912POPC   D2A13296  14.166   2.103   6.954 -0.0871 -0.1557  0.1819
  912POPC   C3A13297  14.139   1.782   7.221  0.0752 -0.0581  0.0677
  912POPC   C4A13298  14.165   1.500   7.424 -0.0155 -0.1305 -0.1701
  912POPC   C1B13299  13.807   2.469   6.745 -0.0540 -0.2606  0.1671
  912POPC   C2B13300  14.042   2.584   7.190 -0.1191  0.2566 -0.1356
  912POPC   C3B13301  14.211   2.649   7.597  0.3648  0.0049 -0.1266
  912POPC   C4B13302  14.247   2.752   8.042  0.1602 -0.1609 -0.0876
  913POPC   NC313303   8.017  15.850   6.198 -0.3672  0.0615 -0.0996
  913POPC   PO413304   7.528  16.176   6.212  0.0408  0.2006  0.0886
  913POPC   GL113305   7.340  15.953   6.606 -0.2165 -0.0433 -0.0282
  913POPC   GL213306   7.096  15.848   6.554  0.2321  0.0544  0.1999
  913POPC   C1A13307   7.522  16.109   7.004 -0.0177  0.0754 -0.0285
  913POPC   D2A13308   7.498  16.104   7.416  0.0864 -0.1871 -0.1222
  913POPC   C3A13309   7.647  16.350   7.643  0.0305  0.2462  0.0888
  913POPC   C4A13310   7.903  16.549   7.981  0.1319 -0.0867  0.2522
  913POPC   C1B13311   6.983  16.132   6.977  0.4888  0.1448 -0.0286
  913POPC   C2B13312   6.937  16.143   7.434 -0.0884  0.0613  0.0021
  913POPC   C3B13313   6.759  16.296   7.841 -0.1388 -0.0877  0.0769
  913POPC   C4B13314   6.552  16.434   8.179 -0.2172  0.2541 -0.0167
  914POPC   NC313315  16.381   6.099   5.983 -0.0569  0.1419  0.0513
  914POPC   PO413316  16.336   6.494   6.102 -0.0173 -0.0763  0.2315
  914POPC   GL113317  16.034   6.581   6.430  0.1811  0.1225 -0.1548
  914POPC   GL213318  15.959   6.447   6.641 -0.0042  0.0260  0.1532
  914POPC   C1A13319  15.780   6.947   6.692 -0.1026 -0.2655  0.1587
  914POPC   D2A13320  15.476   7.249   6.927  0.1797 -0.0471  0.2149
  914POPC   C3A13321  15.563   7.470   7.221 -0.2157 -0.1486 -0.2121
  914POPC   C4A13322  15.383   7.510   7.586 -0.0068 -0.1747 -0.1912
  914POPC   C1B13323  15.896   6.611   7.042 -0.0885 -0.0621 -0.0366
  914POPC   C2B13324  15.809   6.689   7.392  0.2135  0.1744  0.1754
  914POPC   C3B13325  15.690   6.450   7.741 -0.0135 -0.1000  0.0490
  914POPC   C4B13326  15.593   6.371   8.176 -0.0386 -0.2199 -0.1768
  915POPC   NC313327   2.450  17.122   6.152 -0.0018 -0.0301  0.0027
  915POPC   PO413328   2.779  16.911   6.055 -0.1343  0.0270  0.2438
  915POPC   GL113329   2.818  16.969   6.636 -0.1353  0.1670  0.2060
  915POPC   GL213330   3.105  16.896   6.804  0.1792 -0.0261  0.0855
  915POPC   C1A13331   2.656  16.838   7.068 -0.1068  0.1409 -0.2561
  915POPC   D2A13332   2.437  16.774   7.495  0.1477  0.1575 -0.1036
  915POPC   C3A13333   2.666  16.491   7.731  0.1886  0.3919 -0.1650
  915POPC   C4A13334   2.718  16.489   8.089  0.2468  0.1024 -0.1720
  915POPC   C1B13335   3.191  16.833   7.257 -0.0454  0.0740 -0.0632
  915POPC   C2B13336   3.029  16.811   7.634  0.1295  0.0935 -0.2616
  915POPC   C3B13337   3.034  16.888   8.121 -0.1372  0.0723 -0.0190
  915POPC   C4B13338   2.897  16.722   8.524 -0.3003 -0.1658  0.0378
  916POPC   NC313339   1.231  16.666   5.639 -0.1025 -0.0638 -0.1151
  916POPC   PO413340   1.172  16.669   6.125  0.0552 -0.1815  0.0281
  916POPC   GL113341   0.999  16.640   6.580 -0.1549 -0.1557  0.1192
  916POPC   GL213342   1.204  16.448   6.781  0.1215  0.2541  0.0645
  916POPC   C1A13343   0.742  16.687   6.922  0.2117  0.2360 -0.1245
  916POPC   D2A13344   0.609  16.620   7.339 -0.3515  0.3258 -0.1570
  916POPC   C3A13345   1.006  16.626   7.628 -0.3026  0.0885 -0.2071
  916POPC   C4A13346   1.230  16.668   8.007 -0.0589 -0.1655 -0.0707
  916POPC   C1B13347   1.119  16.401   7.207  0.0197  0.0104  0.2147
  916POPC   C2B13348   1.251  16.155   7.628 -0.2802 -0.2407  0.0178
  916POPC   C3B13349   1.225  16.187   8.034  0.3936  0.1597 -0.4607
  916POPC   C4B13350   1.088  15.998   8.383  0.1092 -0.2478 -0.0881
  917POPC   NC313351  11.495   4.090   6.026 -0.0869  0.1555 -0.0181
  917POPC   PO413352  11.431   3.705   6.115 -0.1708 -0.1077 -0.1070
  917POPC   GL113353  11.199   3.400   6.387  0.2471 -0.3887 -0.0911
  917POPC   GL213354  11.293   3.074   6.317  0.0665  0.3150 -0.1242
  917POPC   C1A13355  10.956   3.301   6.719 -0.0514 -0.0283 -0.1874
  917POPC   D2A13356  10.833   3.172   7.097  0.0809  0.2213  0.1372
  917POPC   C3A13357  10.833   3.237   7.497  0.0585 -0.0985  0.0167
  917POPC   C4A13358  10.549   3.152   7.867  0.0885  0.0748 -0.0706
  917POPC   C1B13359  11.375   3.074   6.767 -0.2860  0.2946  0.2317
  917POPC   C2B13360  11.659   3.191   7.149  0.0283  0.1562 -0.3118
  917POPC   C3B13361  11.735   3.299   7.608 -0.0439 -0.0911 -0.0776
  917POPC   C4B13362  12.023   3.170   7.980 -0.2703  0.3480 -0.1962
  918POPC   NC313363   8.621  12.458   6.146  0.3504  0.0086  0.1382
  918POPC   PO413364   8.877  12.726   6.505 -0.5127  0.0701  0.3214
  918POPC   GL113365   9.123  12.646   6.869  0.2741  0.0621 -0.0634
  918POPC   GL213366   9.049  12.336   6.900  0.2146 -0.0968 -0.0049
  918POPC   C1A13367   9.061  12.786   7.311 -0.1224  0.2089  0.1830
  918POPC   D2A13368   9.276  12.995   7.562 -0.0502  0.0565 -0.2895
  918POPC   C3A13369   8.947  13.104   7.790  0.2009  0.1068  0.1487
  918POPC   C4A13370   9.235  13.233   8.209  0.0624  0.0143 -0.0250
  918POPC   C1B13371   9.377  12.430   7.244  0.1530  0.0861  0.2398
  918POPC   C2B13372   9.478  12.570   7.699  0.0222 -0.0345  0.1548
  918POPC   C3B13373   9.638  12.926   7.891 -0.0337  0.3676 -0.0777
  918POPC   C4B13374   9.662  13.343   7.856  0.0871  0.0473  0.2257
  919POPC   NC313375   6.561  11.185   6.089  0.0036 -0.0769  0.0739
  919POPC   PO413376   6.736  11.395   6.492  0.0959 -0.1641 -0.0191
  919POPC   GL113377   6.837  11.508   6.871 -0.0328 -0.2645  0.1029
  919POPC   GL213378   6.615  11.715   6.948 -0.1181  0.0584  0.1815
  919POPC   C1A13379   6.910  11.355   7.302 -0.0206 -0.2455  0.1555
  919POPC   D2A13380   6.938  11.172   7.766 -0.0542 -0.3226  0.2620
  919POPC   C3A13381   6.721  11.340   8.067 -0.1878 -0.0631  0.3268
  919POPC   C4A13382   6.604  11.456   8.491  0.0440  0.0273 -0.0778
  919POPC   C1B13383   6.425  11.565   7.333  0.1961  0.0210  0.1142
  919POPC   C2B13384   6.248  11.556   7.727 -0.1919 -0.1412  0.1337
  919POPC   C3B13385   6.164  11.537   8.157  0.1508 -0.2582  0.3460
  919POPC   C4B13386   6.133  11.551   8.624  0.0927  0.0409  0.0457
  920POPC   NC313387   2.873   0.862   6.364  0.2052 -0.1572 -0.0026
  920POPC   PO413388   3.041   1.228   6.132  0.1746  0.2106 -0.3434
  920POPC   GL113389   3.126   1.229   6.581 -0.2253 -0.0996  0.1085
  920POPC   GL213390   3.266   0.944   6.703 -0.0678  0.0220  0.3676
  920POPC   C1A13391   3.221   1.387   6.992 -0.0934 -0.0126  0.0976
  920POPC   D2A13392   3.298   1.282   7.416  0.1875  0.3777 -0.0099
  920POPC   C3A13393   3.245   1.540   7.550  0.1541 -0.1612 -0.0683
  920POPC   C4A13394   3.131   1.493   7.983 -0.1843  0.0482 -0.0421
  920POPC   C1B13395   3.118   0.792   7.034 -0.1611  0.1982  0.0334
  920POPC   C2B13396   3.055   0.739   7.500 -0.0208  0.1405  0.4420
  920POPC   C3B13397   3.125   1.025   7.844  0.0887  0.0532  0.3745
  920POPC   C4B13398   2.930   1.083   8.254  0.1594 -0.1671 -0.2288
  921POPC   NC313399   9.288  14.204   5.754  0.2512  0.0002 -0.1353
  921POPC   PO413400   9.341  14.344   6.186  0.1620 -0.3281  0.0375
  921POPC   GL113401   9.307  14.462   6.606 -0.1669  0.1872 -0.5325
  921POPC   GL213402   9.388  14.119   6.754 -0.1414  0.2320  0.2799
  921POPC   C1A13403   9.142  14.576   6.898 -0.0491  0.3992  0.1284
  921POPC   D2A13404   9.242  14.725   7.302  0.1376  0.4225  0.0391
  921POPC   C3A13405   8.931  14.897   7.546 -0.3106 -0.0930  0.2312
  921POPC   C4A13406   8.882  15.012   7.980  0.1921 -0.0998  0.2611
  921POPC   C1B13407   9.260  14.213   7.194 -0.1814  0.1818 -0.0554
  921POPC   C2B13408   9.295  14.017   7.600  0.0387  0.1819  0.3401
  921POPC   C3B13409   9.303  13.994   8.001  0.5831  0.1833  0.2249
  921POPC   C4B13410   9.438  13.739   8.295  0.0124  0.0448 -0.0369
  922POPC   NC313411  13.842   5.163   5.778  0.0768 -0.1544  0.2338
  922POPC   PO413412  13.445   5.119   5.714 -0.1188 -0.0272  0.1111
  922POPC   GL113413  13.558   5.080   6.168  0.3928 -0.0870 -0.2463
  922POPC   GL213414  13.508   5.434   6.418  0.0981  0.1467 -0.0571
  922POPC   C1A13415  13.848   5.099   6.618  0.4315 -0.1067  0.1527
  922POPC   D2A13416  14.082   5.171   6.822 -0.1921 -0.0813 -0.2861
  922POPC   C3A13417  14.087   4.688   6.967  0.1763 -0.0205 -0.3446
  922POPC   C4A13418  13.855   4.312   6.911  0.0451 -0.3375  0.3593
  922POPC   C1B13419  13.649   5.619   6.740 -0.0143 -0.3075 -0.1244
  922POPC   C2B13420  13.626   5.476   7.165  0.3071  0.0884  0.3018
  922POPC   C3B13421  13.412   5.497   7.611 -0.1390 -0.0053 -0.0262
  922POPC   C4B13422  13.056   5.349   7.813 -0.2304 -0.0263 -0.1069
  923POPC   NC313423  10.908   7.320   6.033 -0.2425 -0.2830  0.0887
  923POPC   PO413424  11.116   7.615   6.249  0.1935  0.0649  0.4667
  923POPC   GL113425  11.085   7.614   6.736 -0.0195 -0.0315 -0.0752
  923POPC   GL213426  11.358   7.609   6.881 -0.2504  0.2100 -0.1145
  923POPC   C1A13427  11.029   7.224   6.931 -0.2144  0.2341 -0.0960
  923POPC   D2A13428  11.044   7.186   7.444 -0.1334  0.2414  0.0070
  923POPC   C3A13429  11.026   7.061   7.884  0.3312 -0.1050 -0.2767
  923POPC   C4A13430  10.808   6.916   8.159 -0.1952  0.0799 -0.1576
  923POPC   C1B13431  11.148   7.677   7.274  0.1546  0.0162  0.0072
  923POPC   C2B13432  10.937   7.846   7.621  0.1235 -0.2577 -0.0140
  923POPC   C3B13433  10.781   7.953   8.085  0.2692  0.0679  0.0830
  923POPC   C4B13434  10.684   7.982   8.510 -0.0364  0.3077  0.2258
  924POPC   NC313435   6.897   1.408   6.090 -0.0218  0.1666 -0.1744
  924POPC   PO413436   6.895   1.837   6.056 -0.1588  0.3153 -0.2466
  924POPC   GL113437   6.540   1.793   6.329  0.4871 -0.1173 -0.1421
  924POPC   GL213438   6.396   2.048   6.250  0.0337  0.0274  0.0630
  924POPC   C1A13439   6.285   1.668   6.772  0.3870 -0.2119  0.1012
  924POPC   D2A13440   6.220   1.684   7.146  0.0437  0.2132  0.0489
  924POPC   C3A13441   6.015   2.009   7.302  0.0089  0.0283  0.0753
  924POPC   C4A13442   5.979   2.326   7.022  0.0686  0.1263  0.1147
  924POPC   C1B13443   6.297   2.142   6.620 -0.4041  0.1145 -0.1520
  924POPC   C2B13444   6.411   2.119   6.969  0.0171  0.4695 -0.1437
  924POPC   C3B13445   6.328   2.366   7.403  0.0569 -0.1037  0.1425
  924POPC   C4B13446   6.012   2.210   7.785 -0.4483  0.1929  0.0606
  925POPC   NC313447  16.020  17.526   5.577 -0.2642  0.4093 -0.2009
  925POPC   PO413448  16.163  17.454   5.995 -0.0675 -0.1342 -0.1409
  925POPC   GL113449  16.113  17.505   6.386  0.1991 -0.2349  0.0007
  925POPC   GL213450  16.313  17.229   6.559  0.1701  0.3676 -0.1601
  925POPC   C1A13451  15.937  17.483   6.771  0.1628  0.1327 -0.0451
  925POPC   D2A13452  15.694  17.415   7.091 -0.0422 -0.0942  0.1649
  925POPC   C3A13453  15.755  17.542   7.494 -0.0123  0.0683  0.1786
  925POPC   C4A13454  15.879  17.759   7.892 -0.0659  0.2937 -0.1900
  925POPC   C1B13455  16.335  17.184   6.966 -0.0943  0.0568 -0.0701
  925POPC   C2B13456  16.322  17.242   7.381  0.2372  0.1705 -0.1869
  925POPC   C3B13457  16.187  17.385   7.783 -0.2726  0.2460 -0.2876
  925POPC   C4B13458  16.322  17.548   8.215 -0.0477  0.0337  0.1909
  926POPC   NC313459   0.266  17.707   6.090  0.2382  0.1158  0.0005
  926POPC   PO413460  -0.164  17.621   6.245  0.1361  0.0070 -0.2371
  926POPC   GL113461   0.132  17.682   6.607 -0.1616  0.0262 -0.2153
  926POPC   GL213462   0.236  17.381   6.775 -0.1334 -0.1452  0.1724
  926POPC   C1A13463  -0.039  17.775   6.902  0.1067 -0.1122  0.2444
  926POPC   D2A13464  -0.076  18.017   7.315 -0.1421 -0.0302  0.3613
  926POPC   C3A13465  -0.088  18.011   7.703 -0.0492  0.0467 -0.0103
  926POPC   C4A13466  -0.465  18.019   8.053 -0.0867  0.1856  0.3151
  926POPC   C1B13467   0.241  17.472   7.236 -0.2342 -0.2259  0.0709
  926POPC   C2B13468   0.217  17.649   7.688  0.0934  0.2375 -0.0668
  926POPC   C3B13469   0.143  17.866   8.144  0.1327  0.0382 -0.0712
  926POPC   C4B13470  -0.105  18.011   8.460  0.1232 -0.2184 -0.0539
  927POPC   NC313471   0.996  13.292   6.129  0.1320  0.1746 -0.0104
  927POPC   PO413472   0.574  13.215   6.311  0.3386  0.0942  0.1152
  927POPC   GL113473   0.475  13.089   6.740  0.3217 -0.1597 -0.1141
  927POPC   GL213474   0.202  12.909   6.906  0.0027  0.0526  0.1586
  927POPC   C1A13475   0.621  13.010   7.257 -0.0071  0.0502 -0.1740
  927POPC   D2A13476   0.856  12.786   7.485 -0.0677 -0.0889  0.3099
  927POPC   C3A13477   1.124  12.751   7.885  0.0826 -0.0116  0.1398
  927POPC   C4A13478   1.043  12.972   8.247  0.1338 -0.3075  0.3262
  927POPC   C1B13479   0.117  12.796   7.239 -0.1946 -0.1166 -0.0405
  927POPC   C2B13480   0.306  12.685   7.508  0.2988 -0.0557 -0.1694
  927POPC   C3B13481   0.474  12.810   7.794  0.0021 -0.0443 -0.1157
  927POPC   C4B13482   0.700  13.139   7.968 -0.0540 -0.0937  0.3157
  928POPC   NC313483   1.813   3.159   5.122 -0.1081  0.0028  0.1495
  928POPC   PO413484   1.643   2.983   5.588  0.1156  0.0448  0.2910
  928POPC   GL113485   1.734   3.176   6.017 -0.2102  0.1468  0.2000
  928POPC   GL213486   2.011   3.048   6.158 -0.3190 -0.1567  0.2845
  928POPC   C1A13487   1.613   3.305   6.349  0.0715 -0.0103 -0.0191
  928POPC   D2A13488   1.577   3.515   6.709 -0.1177  0.0008 -0.0805
  928POPC   C3A13489   1.353   3.514   7.166 -0.0116  0.2054  0.1456
  928POPC   C4A13490   1.337   3.351   7.607  0.0714 -0.0554 -0.0556
  928POPC   C1B13491   2.027   3.124   6.656 -0.3800  0.1574  0.0361
  928POPC   C2B13492   1.920   3.262   7.104 -0.1345 -0.1245  0.0058
  928POPC   C3B13493   1.623   3.028   7.442 -0.0584 -0.1260 -0.0666
  928POPC   C4B13494   1.639   2.846   7.889  0.0881 -0.1054  0.0613
  929POPC   NC313495   9.605  13.823   5.708 -0.0899  0.1980 -0.3298
  929POPC   PO413496   9.797  13.496   6.011 -0.0256 -0.1050 -0.2461
  929POPC   GL113497   9.578  13.370   6.382 -0.1448  0.0538 -0.2916
  929POPC   GL213498   9.474  13.065   6.487  0.0681  0.2260  0.0969
  929POPC   C1A13499   9.627  13.541   6.802 -0.1817 -0.2780  0.0499
  929POPC   D2A13500   9.521  13.850   7.110 -0.3894  0.0173  0.0133
  929POPC   C3A13501   9.693  13.705   7.426  0.0341  0.1045  0.0376
  929POPC   C4A13502   9.730  13.869   7.816  0.2273  0.2854 -0.0138
  929POPC   C1B13503   9.229  13.142   6.883  0.2293  0.4008 -0.0566
  929POPC   C2B13504   9.311  13.434   7.250  0.1783  0.0912 -0.1531
  929POPC   C3B13505   9.237  13.494   7.507 -0.1304  0.1401  0.0155
  929POPC   C4B13506   9.043  13.579   7.847  0.0288 -0.2288 -0.0104
  930POPC   NC313507  14.368  12.538   6.689 -0.2440  0.1785  0.1844
  930POPC   PO413508  14.699  12.919   6.625 -0.0884  0.4536  0.2846
  930POPC   GL113509  14.943  13.144   7.007 -0.0194  0.1659 -0.0157
  930POPC   GL213510  15.071  13.422   6.932 -0.1140  0.2312  0.0793
  930POPC   C1A13511  15.146  13.233   7.378  0.1460  0.2439  0.0970
  930POPC   D2A13512  15.128  13.116   7.843  0.0690 -0.0186 -0.0155
  930POPC   C3A13513  15.252  13.313   8.226 -0.0031 -0.1233  0.0540
  930POPC   C4A13514  15.177  13.566   8.597  0.1152 -0.0415 -0.0249
  930POPC   C1B13515  15.415  13.670   7.241 -0.0918 -0.2717  0.2440
  930POPC   C2B13516  15.439  14.067   7.600 -0.1720 -0.2391  0.0439
  930POPC   C3B13517  15.501  14.161   8.063  0.0062 -0.1100 -0.0840
  930POPC   C4B13518  15.410  13.951   8.432 -0.2369 -0.0561  0.1270
  931POPC   NC313519  17.773   4.417   5.569 -0.3051  0.1335 -0.3187
  931POPC   PO413520  17.933   4.622   5.917 -0.1112 -0.0201 -0.1567
  931POPC   GL113521  17.734   4.638   6.198 -0.2583 -0.1350 -0.0321
  931POPC   GL213522  17.485   4.456   6.252 -0.0084  0.3139  0.4152
  931POPC   C1A13523  17.555   4.830   6.536  0.4740  0.1830  0.1654
  931POPC   D2A13524  17.148   4.861   6.559  0.1160  0.1854  0.2960
  931POPC   C3A13525  16.895   4.790   6.847 -0.0249  0.0002 -0.0245
  931POPC   C4A13526  16.866   4.672   7.186 -0.1697 -0.2092 -0.2106
  931POPC   C1B13527  17.755   4.313   6.607  0.0409  0.1344 -0.0472
  931POPC   C2B13528  17.685   4.284   7.008 -0.2935 -0.0617  0.0016
  931POPC   C3B13529  17.574   4.386   7.403  0.1613  0.2798 -0.1020
  931POPC   C4B13530  17.694   4.799   7.658  0.0684 -0.0128  0.3447
  932POPC   NC313531  10.233  12.626   6.338 -0.3319  0.0819  0.0636
  932POPC   PO413532   9.783  12.689   6.287 -0.0252 -0.0342 -0.0459
  932POPC   GL113533   9.983  13.051   6.522 -0.1238 -0.2041  0.1108
  932POPC   GL213534  10.176  12.927   6.729  0.2193 -0.0227 -0.2123
  932POPC   C1A13535  10.102  13.443   6.831 -0.2273  0.4169  0.3773
  932POPC   D2A13536  10.068  13.848   7.005  0.0957 -0.1026  0.1146
  932POPC   C3A13537  10.128  13.922   7.467  0.0785 -0.2133 -0.1792
  932POPC   C4A13538  10.175  14.196   7.837 -0.2133  0.0563 -0.1284
  932POPC   C1B13539  10.337  13.055   7.146  0.1020  0.0735  0.0280
  932POPC   C2B13540  10.460  13.096   7.590  0.2666 -0.2289 -0.2492
  932POPC   C3B13541  10.437  13.280   8.040 -0.3208 -0.1380  0.0898
  932POPC   C4B13542  10.405  13.319   8.540 -0.4365  0.3737  0.0897
  933POPC   NC313543   1.925  17.641   5.787 -0.2406 -0.0984  0.2878
  933POPC   PO413544   2.195  17.563   6.078 -0.2552  0.0132  0.0753
  933POPC   GL113545   2.148  17.384   6.450 -0.3722  0.2555 -0.1387
  933POPC   GL213546   2.044  17.626   6.742 -0.0626  0.0624  0.1111
  933POPC   C1A13547   1.943  17.093   6.842 -0.0582  0.0501  0.3410
  933POPC   D2A13548   1.685  17.323   7.085  0.1085  0.0647  0.0627
  933POPC   C3A13549   1.740  17.393   7.512 -0.2750 -0.2992  0.1465
  933POPC   C4A13550   1.786  17.613   7.923  0.1378 -0.0465 -0.2677
  933POPC   C1B13551   2.137  17.675   7.101 -0.2138  0.2281  0.0241
  933POPC   C2B13552   2.128  17.787   7.553  0.2506 -0.1892  0.1647
  933POPC   C3B13553   2.214  17.868   7.985 -0.0835  0.0494  0.0835
  933POPC   C4B13554   2.442  17.994   8.367  0.1060 -0.0166  0.2519
  934POPC   NC313555  14.819   8.720   6.162  0.1385  0.1455 -0.1055
  934POPC   PO413556  14.456   8.498   6.284  0.1306  0.3899  0.0320
  934POPC   GL113557  14.652   8.443   6.577 -0.0034  0.3501  0.3648
  934POPC   GL213558  14.699   8.648   6.653  0.0768 -0.5297  0.0692
  934POPC   C1A13559  14.922   8.387   6.953  0.0537  0.2761 -0.0804
  934POPC   D2A13560  14.804   8.476   7.323  0.2617  0.1512 -0.0157
  934POPC   C3A13561  15.055   8.378   7.615  0.1754 -0.1214  0.1483
  934POPC   C4A13562  15.194   8.457   8.054 -0.2642  0.1628  0.0203
  934POPC   C1B13563  14.884   8.864   6.894  0.1924 -0.0973  0.1222
  934POPC   C2B13564  15.005   9.018   7.185 -0.1338  0.1297  0.0500
  934POPC   C3B13565  14.998   8.852   7.586  0.2365 -0.0606 -0.2199
  934POPC   C4B13566  14.911   8.995   8.033 -0.1296 -0.0614  0.2655
  935POPC   NC313567  11.556   0.177   6.355  0.2735 -0.0209  0.1033
  935POPC   PO413568  11.652   0.674   6.202 -0.1236  0.1429 -0.2144
  935POPC   GL113569  11.617   0.619   6.694 -0.1021  0.1082  0.0799
  935POPC   GL213570  11.702   0.308   6.840 -0.0439  0.2139  0.2406
  935POPC   C1A13571  11.794   0.708   7.120  0.0271  0.1007  0.3443
  935POPC   D2A13572  12.164   0.654   7.345 -0.0747  0.0515 -0.0761
  935POPC   C3A13573  12.196   0.922   7.657 -0.0169  0.2039 -0.0498
  935POPC   C4A13574  12.428   1.195   7.921  0.0225  0.2117  0.0594
  935POPC   C1B13575  11.762   0.219   7.271 -0.0208  0.0546 -0.3685
  935POPC   C2B13576  11.881   0.110   7.628  0.0831  0.2273  0.0410
  935POPC   C3B13577  11.940  -0.059   8.013 -0.0804  0.2286 -0.1367
  935POPC   C4B13578  12.122  -0.385   8.184 -0.1669  0.0254  0.0472
  936POPC   NC313579  14.580   5.739   5.320  0.0288  0.0822 -0.1004
  936POPC   PO413580  14.608   6.066   5.746 -0.1187 -0.2474  0.0920
  936POPC   GL113581  14.615   5.864   6.092 -0.0731  0.1926  0.1017
  936POPC   GL213582  14.803   5.577   6.182  0.1850 -0.1626  0.0381
  936POPC   C1A13583  14.470   5.595   6.501 -0.0303 -0.1250  0.1626
  936POPC   D2A13584  14.178   5.623   6.766 -0.2823 -0.3238  0.0040
  936POPC   C3A13585  14.134   5.546   7.203 -0.2419 -0.3253  0.1116
  936POPC   C4A13586  14.250   5.659   7.638 -0.1703 -0.1686  0.0305
  936POPC   C1B13587  14.910   5.332   6.580 -0.1942  0.1120  0.2723
  936POPC   C2B13588  15.028   5.370   7.012 -0.3266  0.0735  0.0520
  936POPC   C3B13589  15.066   5.449   7.437 -0.1700  0.1177  0.0528
  936POPC   C4B13590  14.979   5.487   7.817 -0.1895 -0.3259  0.0647
  937POPC   NC313591  12.479   2.743   5.487  0.0752  0.0128  0.2991
  937POPC   PO413592  12.554   2.968   5.913  0.1802  0.0049  0.2401
  937POPC   GL113593  12.625   2.882   6.199 -0.0485 -0.0523  0.0551
  937POPC   GL213594  12.500   3.091   6.453  0.0488 -0.0249 -0.1062
  937POPC   C1A13595  12.947   3.188   6.533 -0.1323  0.0966 -0.1644
  937POPC   D2A13596  12.998   3.499   6.812  0.2440  0.1034 -0.1309
  937POPC   C3A13597  13.107   3.658   7.135 -0.1682  0.0504 -0.1200
  937POPC   C4A13598  13.453   3.675   7.406 -0.1377  0.1265  0.0750
  937POPC   C1B13599  12.518   3.052   6.884 -0.0356 -0.0601  0.1108
  937POPC   C2B13600  12.327   3.005   7.209  0.1114 -0.1484 -0.3382
  937POPC   C3B13601  12.215   2.818   7.607 -0.0562  0.2112  0.0185
  937POPC   C4B13602  11.984   2.642   7.938 -0.3612 -0.2168  0.3112
  938POPC   NC313603  16.249  16.967   6.176 -0.1970 -0.0643 -0.0018
  938POPC   PO413604  15.934  16.659   6.004  0.0783  0.1459  0.2761
  938POPC   GL113605  15.689  16.593   6.390  0.1584 -0.0545 -0.0300
  938POPC   GL213606  15.390  16.702   6.535 -0.1933 -0.2533  0.0185
  938POPC   C1A13607  15.640  16.231   6.654  0.2539  0.0547  0.1374
  938POPC   D2A13608  15.769  15.982   6.915 -0.0737  0.1087 -0.0979
  938POPC   C3A13609  16.201  15.904   6.962 -0.0692 -0.1323  0.0969
  938POPC   C4A13610  16.447  16.154   7.090 -0.0441 -0.2717  0.2896
  938POPC   C1B13611  15.541  16.564   6.974  0.1025  0.2412 -0.0454
  938POPC   C2B13612  15.489  16.620   7.382 -0.1501  0.2503 -0.0796
  938POPC   C3B13613  15.508  16.566   7.850  0.2221 -0.1418 -0.0191
  938POPC   C4B13614  15.519  16.667   8.215  0.0216  0.2119  0.0406
  939POPC   NC313615  14.400   7.895   6.102  0.2297  0.0645  0.0351
  939POPC   PO413616  14.764   7.737   6.031 -0.0400 -0.1431 -0.1292
  939POPC   GL113617  14.587   7.504   6.458  0.1606  0.0762 -0.0835
  939POPC   GL213618  14.295   7.492   6.494  0.3852 -0.4080 -0.0756
  939POPC   C1A13619  14.676   7.395   6.893  0.1808  0.3230 -0.1720
  939POPC   D2A13620  14.470   7.300   7.324 -0.4356 -0.0783 -0.2210
  939POPC   C3A13621  14.654   7.261   7.761 -0.2002 -0.0085  0.1475
  939POPC   C4A13622  15.027   7.156   7.982 -0.2658 -0.3026  0.0672
  939POPC   C1B13623  14.218   7.167   6.865  0.1472  0.0430  0.1232
  939POPC   C2B13624  14.247   6.901   7.167 -0.2570  0.0066  0.0749
  939POPC   C3B13625  14.247   6.837   7.541 -0.0010 -0.1836 -0.2930
  939POPC   C4B13626  14.268   6.722   7.969  0.2861  0.0995 -0.0574
  940POPC   NC313627   1.438  16.203   6.015 -0.1175  0.0958  0.2142
  940POPC   PO413628   1.773  16.070   6.272  0.1361  0.1388  0.0179
  940POPC   GL113629   1.921  16.217   6.743  0.1827 -0.0834 -0.0163
  940POPC   GL213630   1.875  16.590   6.863 -0.1365  0.2774 -0.0036
  940POPC   C1A13631   2.099  16.221   7.172 -0.0377  0.1541  0.1642
  940POPC   D2A13632   2.224  16.284   7.622  0.3096  0.2052 -0.1557
  940POPC   C3A13633   2.091  16.136   7.988  0.0832  0.1568  0.4416
  940POPC   C4A13634   1.980  16.282   8.371 -0.0530 -0.1404 -0.0720
  940POPC   C1B13635   1.997  16.709   7.266  0.0225  0.1700  0.1237
  940POPC   C2B13636   1.999  16.831   7.699 -0.0119  0.1214  0.1452
  940POPC   C3B13637   2.084  16.731   8.133  0.0132  0.0319 -0.1497
  940POPC   C4B13638   2.356  16.640   8.385  0.0984  0.1361 -0.2338
  941YOPC   NC313639  14.933   0.130   6.067 -0.0048 -0.0827  0.1318
  941YOPC   PO413640  15.316   0.421   5.968  0.0944 -0.0690 -0.3606
  941YOPC   GL113641  15.322   0.371   6.380 -0.1673  0.1374 -0.0388
  941YOPC   GL213642  15.685   0.495   6.400 -0.0092  0.1291 -0.0246
  941YOPC   C1A13643  15.215   0.355   6.811 -0.1402 -0.0816 -0.0354
  941YOPC   D2A13644  15.249   0.696   7.077  0.3667  0.1787 -0.0476
  941YOPC   C3A13645  15.244   0.618   7.517 -0.1807 -0.0075  0.0692
  941YOPC   C4A13646  15.096   0.496   7.913 -0.0989  0.2087 -0.3329
  941YOPC   C1B13647  15.515   0.802   6.654  0.1737 -0.1824  0.0383
  941YOPC   C2B13648  15.098   0.869   6.619 -0.0920 -0.0504  0.3133
  941YOPC   D3B13649  14.821   0.996   6.967  0.0879  0.0623  0.0404
  941YOPC   C4B13650  14.681   0.556   7.163  0.2140 -0.0168 -0.1486
  942YOPC   NC313651   7.848  15.026   5.993  0.1904 -0.1269 -0.2560
  942YOPC   PO413652   7.807  15.370   6.223 -0.0630  0.0552  0.1137
  942YOPC   GL113653   8.120  15.364   6.460 -0.0482 -0.1878 -0.1539
  942YOPC   GL213654   8.159  15.587   6.724  0.1955  0.3525 -0.0794
  942YOPC   C1A13655   8.367  15.056   6.673 -0.0645  0.1605 -0.0061
  942YOPC   D2A13656   8.215  14.857   7.044  0.1128  0.1856  0.0015
  942YOPC   C3A13657   7.924  15.040   7.408  0.1934 -0.0434  0.0367
  942YOPC   C4A13658   7.784  15.212   7.837 -0.1404 -0.1739 -0.1410
  942YOPC   C1B13659   8.191  15.439   7.148  0.0909 -0.1713  0.0127
  942YOPC   C2B13660   8.167  15.450   7.665 -0.0221  0.1934  0.0826
  942YOPC   D3B13661   8.386  15.189   8.027  0.0139  0.0444  0.0798
  942YOPC   C4B13662   8.242  15.112   8.341 -0.1516  0.0465  0.0761
  943YOPC   NC313663   0.190  13.593   6.169  0.2376  0.3026 -0.1206
  943YOPC   PO413664  -0.136  13.679   6.474 -0.1759 -0.2387 -0.5135
  943YOPC   GL113665   0.225  13.767   6.752  0.3543 -0.2561  0.0969
  943YOPC   GL213666   0.517  13.603   6.697  0.3116  0.0871 -0.1382
  943YOPC   C1A13667   0.209  14.098   6.974  0.0120 -0.0041  0.0918
  943YOPC   D2A13668  -0.014  14.345   7.240 -0.2106 -0.0982 -0.1433
  943YOPC   C3A13669   0.038  14.331   7.641 -0.2748  0.1696 -0.0070
  943YOPC   C4A13670   0.358  14.320   7.911 -0.0587  0.0737 -0.2429
  943YOPC   C1B13671   0.636  13.725   7.163  0.1957 -0.1672  0.2746
  943YOPC   C2B13672   0.675  13.460   7.517 -0.4395  0.1402 -0.1194
  943YOPC   D3B13673   0.952  13.381   7.632  0.0084 -0.1134  0.2486
  943YOPC   C4B13674   1.063  13.531   8.130  0.1441  0.1375  0.1270
  944YOPC   NC313675   1.291   3.279   5.772  0.0543 -0.1783  0.1698
  944YOPC   PO413676   1.246   3.637   5.669 -0.0139  0.0128  0.0614
  944YOPC   GL113677   1.353   3.663   6.095  0.1201  0.1129  0.2111
  944YOPC   GL213678   1.158   3.475   6.235 -0.1130  0.1325  0.0206
  944YOPC   C1A13679   1.409   3.918   6.474  0.1115  0.0515 -0.1331
  944YOPC   D2A13680   1.474   3.988   6.932 -0.3927 -0.1493  0.0731
  944YOPC   C3A13681   1.442   3.937   7.384  0.1644 -0.2433  0.0011
  944YOPC   C4A13682   1.503   4.185   7.862 -0.2809  0.0229  0.3356
  944YOPC   C1B13683   1.146   3.287   6.509  0.4166 -0.1582 -0.0943
  944YOPC   C2B13684   1.004   3.280   6.959 -0.0237  0.1940  0.2825
  944YOPC   D3B13685   1.121   2.999   7.284  0.1642 -0.2111  0.0387
  944YOPC   C4B13686   0.896   3.030   7.699 -0.3661  0.0387  0.1112
  945YOPC   NC313687  15.728   6.527   5.417  0.1479 -0.2547 -0.0991
  945YOPC   PO413688  15.387   6.686   5.782  0.1242  0.1584  0.1230
  945YOPC   GL113689  15.373   6.764   6.275  0.0624  0.0253  0.0872
  945YOPC   GL213690  15.454   6.552   6.613  0.0203 -0.1002  0.2153
  945YOPC   C1A13691  15.448   7.170   6.450  0.1071 -0.1348 -0.2937
  945YOPC   D2A13692  15.107   7.427   6.588 -0.0121 -0.1970  0.1431
  945YOPC   C3A13693  15.097   7.521   7.029 -0.1846 -0.0408  0.0771
  945YOPC   C4A13694  15.007   7.320   7.348  0.0663  0.2384  0.1457
  945YOPC   C1B13695  15.443   6.725   7.013  0.0913 -0.2614 -0.0208
  945YOPC   C2B13696  15.416   7.043   7.364 -0.1374  0.1860 -0.1922
  945YOPC   D3B13697  15.456   6.957   7.716 -0.2184 -0.4810 -0.0121
  945YOPC   C4B13698  15.268   6.687   7.901  0.1071  0.0395 -0.1313
  946YOPC   NC313699  11.709  13.418   5.864  0.1014  0.2222 -0.2846
  946YOPC   PO413700  11.662  13.947   6.060  0.2002 -0.0148 -0.1712
  946YOPC   GL113701  11.508  13.932   6.487  0.0492 -0.2123  0.0573
  946YOPC   GL213702  11.271  13.734   6.658  0.0646 -0.2501 -0.0316
  946YOPC   C1A13703  11.567  13.978   6.953  0.1442 -0.0538 -0.1251
  946YOPC   D2A13704  11.847  14.073   7.220 -0.0189  0.2103  0.2352
  946YOPC   C3A13705  11.811  14.195   7.663 -0.0790  0.0719 -0.0513
  946YOPC   C4A13706  11.627  14.191   8.012 -0.0330 -0.0354 -0.2410
  946YOPC   C1B13707  11.199  13.556   7.032 -0.3098 -0.2524 -0.2778
  946YOPC   C2B13708  11.268  13.782   7.308  0.3033  0.2766  0.1019
  946YOPC   D3B13709  11.510  13.745   7.699  0.0427 -0.2411  0.1453
  946YOPC   C4B13710  11.412  13.721   8.125 -0.0524 -0.0008  0.2950
  947YOPC   NC313711  15.654   1.154   5.690 -0.3431 -0.0843 -0.2856
  947YOPC   PO413712  15.995   1.436   5.860  0.2595  0.1983 -0.2224
  947YOPC   GL113713  15.811   1.422   6.236 -0.0337  0.1418  0.2685
  947YOPC   GL213714  15.994   1.689   6.323 -0.0303 -0.2072  0.4587
  947YOPC   C1A13715  15.938   1.169   6.737 -0.0711 -0.0522 -0.1596
  947YOPC   D2A13716  16.010   1.225   7.185  0.2017  0.3117 -0.1509
  947YOPC   C3A13717  15.789   1.445   7.461 -0.1114 -0.2264  0.0331
  947YOPC   C4A13718  15.481   1.576   7.690  0.0233  0.1571 -0.5933
  947YOPC   C1B13719  15.864   1.795   6.647  0.0354 -0.0520 -0.2456
  947YOPC   C2B13720  15.783   1.596   6.980  0.0015 -0.0860 -0.0489
  947YOPC   D3B13721  15.346   1.803   6.987 -0.1433 -0.1527  0.3135
  947YOPC   C4B13722  15.054   1.775   6.608  0.3946  0.2946 -0.1325
  948YOPC   NC313723   3.102  10.669   6.101  0.0787 -0.0742 -0.0475
  948YOPC   PO413724   3.004  11.049   6.137  0.2519 -0.0465 -0.1269
  948YOPC   GL113725   3.135  11.012   6.622  0.1353 -0.0444 -0.0414
  948YOPC   GL213726   3.062  11.378   6.743  0.1410  0.1123 -0.2653
  948YOPC   C1A13727   3.283  10.896   7.058  0.0081 -0.2116  0.2653
  948YOPC   D2A13728   3.630  10.924   7.273  0.0925  0.1993  0.1501
  948YOPC   C3A13729   3.778  10.886   7.707 -0.0037 -0.0361  0.0262
  948YOPC   C4A13730   3.835  10.702   8.088  0.0834 -0.0710  0.1133
  948YOPC   C1B13731   3.151  11.360   7.236 -0.0272  0.0670 -0.1745
  948YOPC   C2B13732   2.979  11.629   7.562  0.1122  0.2087  0.1774
  948YOPC   D3B13733   2.769  11.664   7.899 -0.1471  0.1941  0.0645
  948YOPC   C4B13734   2.671  11.995   8.160  0.0094 -0.0142 -0.0824
  949YOPC   NC313735  13.538   7.922   5.938  0.4984 -0.4603 -0.2853
  949YOPC   PO413736  13.486   8.396   5.987  0.0293  0.2139 -0.2309
  949YOPC   GL113737  13.472   8.499   6.353  0.0757 -0.1522 -0.1939
  949YOPC   GL213738  13.592   8.304   6.532  0.0649 -0.6097  0.0162
  949YOPC   C1A13739  13.269   8.733   6.658 -0.2737 -0.1081  0.1032
  949YOPC   D2A13740  12.988   8.997   6.823  0.0030 -0.2041  0.1815
  949YOPC   C3A13741  12.917   9.108   7.270  0.2564 -0.0221 -0.0533
  949YOPC   C4A13742  12.853   9.160   7.696  0.1171  0.0588 -0.3601
  949YOPC   C1B13743  13.492   8.361   6.916 -0.0063  0.0266  0.2088
  949YOPC   C2B13744  13.415   8.236   7.295  0.0306 -0.2031  0.0215
  949YOPC   D3B13745  13.415   8.344   7.712 -0.0602 -0.0771  0.1778
  949YOPC   C4B13746  13.594   8.304   8.118 -0.1354  0.0262  0.1026
  950YOPC   NC313747   9.762  16.218   6.280  0.1409  0.0042  0.1379
  950YOPC   PO413748   9.321  15.999   6.095 -0.4201 -0.1489  0.0307
  950YOPC   GL113749   9.459  15.782   6.487 -0.4255  0.2450  0.1517
  950YOPC   GL213750   9.569  15.451   6.455 -0.4275 -0.1107 -0.1228
  950YOPC   C1A13751   9.449  16.006   6.871 -0.1979  0.3045  0.0527
  950YOPC   D2A13752   9.476  16.173   7.310  0.2536  0.1950 -0.0333
  950YOPC   C3A13753   9.751  16.182   7.619 -0.0961 -0.0298 -0.1749
  950YOPC   C4A13754   9.636  16.137   8.079  0.0966  0.1972  0.1159
  950YOPC   C1B13755   9.640  15.430   6.928  0.1536  0.0978 -0.2283
  950YOPC   C2B13756  10.020  15.449   7.242  0.0669  0.0511 -0.1015
  950YOPC   D3B13757   9.909  15.303   7.747 -0.0984 -0.3096  0.0406
  950YOPC   C4B13758   9.676  15.248   8.137  0.2240 -0.0295 -0.2029
  951YOPC   NC313759   7.770   2.504   5.729 -0.0989 -0.2902  0.0349
  951YOPC   PO413760   8.203   2.247   5.722  0.1284 -0.2236  0.0663
  951YOPC   GL113761   8.394   2.359   6.160 -0.1718 -0.0899 -0.1323
  951YOPC   GL213762   8.311   2.183   6.398 -0.2351  0.3153  0.0382
  951YOPC   C1A13763   8.518   2.636   6.500  0.1828  0.0632 -0.0845
  951YOPC   D2A13764   8.814   2.809   6.718  0.5143  0.0057 -0.0667
  951YOPC   C3A13765   9.122   2.503   6.767  0.2188  0.1126  0.0827
  951YOPC   C4A13766   9.479   2.409   6.908  0.1783  0.1605 -0.1991
  951YOPC   C1B13767   8.070   2.426   6.592  0.0660 -0.1560 -0.0127
  951YOPC   C2B13768   7.721   2.168   6.755 -0.0640  0.1542 -0.4012
  951YOPC   D3B13769   7.765   1.864   7.058  0.0789 -0.1516 -0.0169
  951YOPC   C4B13770   7.733   1.520   7.218 -0.1953  0.2267  0.0037
  952YOPC   NC313771   6.107   6.445   5.801 -0.1463 -0.2085  0.1657
  952YOPC   PO413772   5.824   6.851   5.936  0.1025 -0.0169  0.4587
  952YOPC   GL113773   5.847   6.804   6.418  0.1431 -0.1875  0.0455
  952YOPC   GL213774   6.022   6.618   6.648  0.0126  0.1176 -0.0350
  952YOPC   C1A13775   5.589   6.967   6.742 -0.0482 -0.2545 -0.0620
  952YOPC   D2A13776   5.252   6.938   7.025 -0.0779 -0.0278  0.2192
  952YOPC   C3A13777   5.325   6.952   7.489  0.1840 -0.0923  0.1601
  952YOPC   C4A13778   5.376   6.545   7.693 -0.0799  0.1229  0.1566
  952YOPC   C1B13779   6.371   6.439   6.851 -0.1490  0.4041 -0.3288
  952YOPC   C2B13780   6.671   6.530   7.111  0.1531  0.0633  0.0517
  952YOPC   D3B13781   6.766   6.843   7.241 -0.2451 -0.2153 -0.1813
  952YOPC   C4B13782   6.980   7.019   7.705  0.1330  0.0546  0.0431
  953YOPC   NC313783  13.592  13.162   6.516 -0.0126 -0.2018  0.0814
  953YOPC   PO413784  13.368  13.463   6.312  0.0488  0.3000 -0.1688
  953YOPC   GL113785  13.242  13.528   6.802 -0.1236 -0.1124 -0.1824
  953YOPC   GL213786  13.300  13.241   6.976  0.2128  0.2246  0.2033
  953YOPC   C1A13787  12.903  13.631   7.114  0.0227 -0.1088  0.1706
  953YOPC   D2A13788  12.733  13.756   7.504 -0.1512 -0.1457  0.0635
  953YOPC   C3A13789  12.946  13.545   7.829  0.0149 -0.1549 -0.2518
  953YOPC   C4A13790  12.888  13.080   7.950 -0.1606  0.2074 -0.1541
  953YOPC   C1B13791  12.985  13.083   7.077 -0.0478 -0.1238  0.1817
  953YOPC   C2B13792  12.656  12.860   7.185 -0.1160  0.0469  0.0343
  953YOPC   D3B13793  12.723  12.743   7.577 -0.1445  0.1181 -0.0033
  953YOPC   C4B13794  12.568  12.683   7.972  0.1084  0.2822 -0.2096
  954YOPC   NC313795   6.471   5.639   6.338 -0.0023 -0.1388 -0.2481
  954YOPC   PO413796   6.503   5.295   6.246 -0.0382 -0.0790 -0.1057
  954YOPC   GL113797   6.524   5.221   6.710 -0.1718 -0.3618 -0.0643
  954YOPC   GL213798   6.848   5.346   6.614 -0.2113  0.0118  0.0491
  954YOPC   C1A13799   6.576   5.085   7.083  0.1601 -0.0177 -0.1582
  954YOPC   D2A13800   6.812   4.943   7.499 -0.0538 -0.2718 -0.1521
  954YOPC   C3A13801   6.748   5.035   7.958  0.2660  0.0617 -0.1460
  954YOPC   C4A13802   6.764   4.908   8.367  0.2433  0.0856  0.0721
  954YOPC   C1B13803   6.822   5.503   7.013 -0.2925  0.1397 -0.0196
  954YOPC   C2B13804   6.902   5.681   7.316 -0.1174 -0.0305  0.0483
  954YOPC   D3B13805   6.733   5.612   7.747  0.0277 -0.1821  0.1938
  954YOPC   C4B13806   6.618   5.493   8.136  0.2473  0.2632 -0.1148
  955YOPC   NC313807  14.921   9.808   5.912 -0.1948 -0.1816  0.0485
  955YOPC   PO413808  14.769  10.134   6.183 -0.0654  0.0674  0.1982
  955YOPC   GL113809  15.113   9.952   6.475  0.1893 -0.1433 -0.0385
  955YOPC   GL213810  15.123  10.082   6.708 -0.0731  0.2466  0.0938
  955YOPC   C1A13811  14.899   9.614   6.784 -0.1631 -0.2453 -0.0326
  955YOPC   D2A13812  14.464   9.475   6.796 -0.0665 -0.0372 -0.0341
  955YOPC   C3A13813  14.128   9.790   6.828  0.0427 -0.0784 -0.1843
  955YOPC   C4A13814  14.059   9.925   7.172  0.1034  0.3396 -0.1912
  955YOPC   C1B13815  15.175  10.027   7.190  0.0990 -0.0233  0.0438
  955YOPC   C2B13816  15.036   9.870   7.636  0.0727  0.0977 -0.2169
  955YOPC   D3B13817  15.090   9.936   8.006  0.1553  0.0918 -0.0240
  955YOPC   C4B13818  14.845   9.637   8.273 -0.2589  0.2191 -0.1968
  956YOPC   NC313819   6.752   4.359   6.400 -0.0486  0.1841 -0.0134
  956YOPC   PO413820   6.640   3.941   6.158  0.0908  0.2290  0.2741
  956YOPC   GL113821   6.446   3.964   6.560  0.0062 -0.3112 -0.0722
  956YOPC   GL213822   6.150   4.227   6.520  0.4010  0.2112 -0.2388
  956YOPC   C1A13823   6.514   3.981   7.027 -0.2619 -0.0250  0.2830
  956YOPC   D2A13824   6.874   3.769   7.229 -0.0267  0.2009 -0.3422
  956YOPC   C3A13825   6.882   3.553   7.634  0.0380  0.0506  0.3218
  956YOPC   C4A13826   6.743   3.541   8.030  0.0182  0.2527  0.2108
  956YOPC   C1B13827   6.074   4.259   6.973 -0.0949 -0.0958 -0.2529
  956YOPC   C2B13828   6.309   4.314   7.362 -0.2054  0.2229  0.1671
  956YOPC   D3B13829   6.035   4.255   7.751  0.0212 -0.1756 -0.2976
  956YOPC   C4B13830   5.953   4.235   8.176  0.0360  0.0180 -0.3189
  957YOPC   NC313831  16.979   3.993   5.353  0.0408 -0.0897 -0.3264
  957YOPC   PO413832  17.342   4.050   5.712  0.1427 -0.2247 -0.2241
  957YOPC   GL113833  17.325   3.836   6.178 -0.1347  0.0017 -0.2137
  957YOPC   GL213834  17.486   3.909   6.414 -0.0917  0.3595 -0.3010
  957YOPC   C1A13835  17.033   3.649   6.383  0.1840  0.1713 -0.0545
  957YOPC   D2A13836  16.916   3.437   6.727  0.0358  0.0729  0.0817
  957YOPC   C3A13837  16.989   3.670   7.118  0.0834 -0.0089 -0.0165
  957YOPC   C4A13838  17.109   3.783   7.631  0.0960  0.2061  0.1366
  957YOPC   C1B13839  17.494   3.877   6.882 -0.1281  0.1396 -0.2401
  957YOPC   C2B13840  17.438   3.916   7.280  0.1547 -0.0181 -0.1831
  957YOPC   D3B13841  17.620   3.740   7.588  0.1602  0.1856  0.0962
  957YOPC   C4B13842  17.667   3.751   7.962 -0.0795  0.2392  0.2492
  958YOPC   NC313843   9.294  11.319   5.724 -0.1312 -0.1927  0.1360
  958YOPC   PO413844   9.450  11.171   6.101 -0.2590 -0.1092 -0.3987
  958YOPC   GL113845   9.503  11.429   6.532 -0.0606 -0.3359 -0.1850
  958YOPC   GL213846   9.823  11.630   6.506  0.2934 -0.2954  0.0316
  958YOPC   C1A13847   9.448  11.447   6.943 -0.0596 -0.2744 -0.2124
  958YOPC   D2A13848   9.642  11.635   7.228 -0.0811  0.2465  0.1232
  958YOPC   C3A13849   9.725  11.537   7.554  0.0080  0.1131 -0.0763
  958YOPC   C4A13850   9.815  11.626   7.947  0.1370  0.0228  0.1174
  958YOPC   C1B13851   9.995  11.399   6.855  0.2033 -0.1346  0.3817
  958YOPC   C2B13852  10.122  11.411   7.237 -0.0815 -0.3454 -0.0140
  958YOPC   D3B13853  10.119  11.809   7.510  0.2907 -0.2437 -0.1251
  958YOPC   C4B13854  10.271  12.169   7.367  0.0577  0.0067 -0.0011
  959YOPC   NC313855   8.517   0.028   6.064  0.0960  0.0732 -0.0427
  959YOPC   PO413856   8.106   0.086   6.069  0.3260 -0.0725 -0.1504
  959YOPC   GL113857   8.276   0.048   6.498 -0.1965  0.1518 -0.1002
  959YOPC   GL213858   8.642   0.057   6.594 -0.0423  0.4406 -0.0087
  959YOPC   C1A13859   8.152   0.207   6.888 -0.0109  0.1557  0.0181
  959YOPC   D2A13860   8.234   0.362   7.319  0.2633  0.1673  0.0800
  959YOPC   C3A13861   8.099   0.105   7.701  0.2484  0.1965  0.0998
  959YOPC   C4A13862   8.039  -0.175   8.008 -0.1436  0.2954 -0.3386
  959YOPC   C1B13863   8.871   0.200   7.032  0.1610 -0.1551 -0.0968
  959YOPC   C2B13864   8.782   0.128   7.456  0.0395  0.2939  0.2201
  959YOPC   D3B13865   9.028  -0.134   7.720 -0.0643  0.1844  0.0364
  959YOPC   C4B13866   8.973  -0.252   8.012 -0.1415  0.0154  0.1152
  960YOPC   NC313867  15.188  13.013   6.564 -0.1044 -0.1935  0.1451
  960YOPC   PO413868  15.682  12.892   6.674  0.0443 -0.1713  0.0635
  960YOPC   GL113869  15.820  12.681   7.121 -0.0477  0.0528  0.2611
  960YOPC   GL213870  15.905  12.385   7.148  0.0140  0.0794 -0.1260
  960YOPC   C1A13871  15.866  12.700   7.590 -0.0007 -0.1077  0.1018
  960YOPC   D2A13872  15.954  12.635   8.072  0.2781  0.0778 -0.3494
  960YOPC   C3A13873  15.632  12.586   8.416  0.0412 -0.0602 -0.3772
  960YOPC   C4A13874  15.462  12.673   8.824  0.1935  0.1142 -0.0705
  960YOPC   C1B13875  15.919  12.167   7.519  0.1706 -0.2135  0.0094
  960YOPC   C2B13876  16.081  12.150   7.848  0.1266 -0.2012 -0.4345
  960YOPC   D3B13877  16.323  12.028   8.087  0.0009 -0.0545 -0.2870
  960YOPC   C4B13878  16.455  11.930   8.480 -0.4030  0.0830  0.0036
  961YOPC   NC313879   0.245   2.525   5.821  0.1418 -0.1174 -0.1810
  961YOPC   PO413880   0.248   2.154   5.901  0.3076  0.0427 -0.3960
  961YOPC   GL113881   0.160   2.010   6.289 -0.0875  0.1325 -0.3015
  961YOPC   GL213882   0.367   1.882   6.309  0.0161 -0.1673 -0.5522
  961YOPC   C1A13883   0.054   2.349   6.669 -0.0024 -0.1106 -0.0479
  961YOPC   D2A13884   0.376   2.427   7.012 -0.0149  0.1838 -0.0325
  961YOPC   C3A13885   0.675   2.569   6.796  0.0981 -0.1771 -0.3010
  961YOPC   C4A13886   1.056   2.757   6.792  0.0058 -0.0484 -0.3135
  961YOPC   C1B13887   0.557   2.029   6.689  0.2601 -0.1229 -0.1168
  961YOPC   C2B13888   0.860   2.071   7.065  0.0313 -0.3003 -0.0961
  961YOPC   D3B13889   0.799   2.202   7.476  0.1436 -0.0415 -0.0903
  961YOPC   C4B13890   0.768   2.270   7.860 -0.0478 -0.1713  0.0229
  962YOPC   NC313891  11.432   0.166   5.660 -0.2871  0.0159 -0.1180
  962YOPC   PO413892  11.779   0.299   5.873  0.2245 -0.0728  0.3168
  962YOPC   GL113893  12.073   0.332   6.294 -0.1552 -0.2406  0.2942
  962YOPC   GL213894  12.365   0.355   6.241 -0.0924 -0.0651  0.2315
  962YOPC   C1A13895  12.189   0.178   6.671  0.0860  0.0349 -0.0749
  962YOPC   D2A13896  12.424   0.362   7.007  0.2427  0.0954 -0.0386
  962YOPC   C3A13897  12.378   0.222   7.486  0.1732  0.0531  0.3894
  962YOPC   C4A13898  12.273   0.352   7.900  0.1124  0.0239  0.0138
  962YOPC   C1B13899  12.527   0.595   6.563 -0.0762 -0.2376 -0.3214
  962YOPC   C2B13900  12.818   0.703   6.858  0.2779  0.0577  0.1619
  962YOPC   D3B13901  12.724   0.681   7.273 -0.0886 -0.0236 -0.0417
  962YOPC   C4B13902  12.721   0.500   7.752 -0.0109  0.2186  0.3736
  963YOPC   NC313903   3.168   4.578   5.529 -0.1861 -0.2582 -0.1100
  963YOPC   PO413904   3.377   4.472   5.877  0.3346  0.0611 -0.0825
  963YOPC   GL113905   3.511   4.443   6.342 -0.1735 -0.0719  0.1085
  963YOPC   GL213906   3.307   4.463   6.677 -0.0131 -0.1065 -0.1747
  963YOPC   C1A13907   3.801   4.637   6.713  0.2735 -0.1394  0.0391
  963YOPC   D2A13908   3.743   4.797   7.117  0.2419 -0.0738 -0.0783
  963YOPC   C3A13909   3.386   4.773   7.189  0.2100 -0.0149 -0.1405
  963YOPC   C4A13910   3.143   4.547   7.416 -0.1121 -0.2034  0.1110
  963YOPC   C1B13911   3.174   4.238   6.996  0.2648  0.1352 -0.0944
  963YOPC   C2B13912   2.733   4.288   7.142  0.4038 -0.0063  0.0445
  963YOPC   D3B13913   2.719   4.318   7.537 -0.0168 -0.2475 -0.0261
  963YOPC   C4B13914   2.558   4.127   7.889  0.1221  0.2238 -0.3088
  964YOPC   NC313915   4.937  16.518   5.740  0.0205  0.1004 -0.1220
  964YOPC   PO413916   4.636  16.121   5.886 -0.3746 -0.3277 -0.1832
  964YOPC   GL113917   4.559  16.103   6.415  0.0983 -0.0637  0.0324
  964YOPC   GL213918   4.650  16.345   6.546  0.2674 -0.2986  0.0815
  964YOPC   C1A13919   4.571  16.010   6.896 -0.2229 -0.0969  0.1329
  964YOPC   D2A13920   4.701  15.580   7.093  0.0170 -0.1492  0.0288
  964YOPC   C3A13921   4.423  15.375   7.388 -0.2746 -0.1952  0.3506
  964YOPC   C4A13922   4.150  15.120   7.733  0.1521 -0.4525  0.1312
  964YOPC   C1B13923   4.650  16.476   6.934  0.2694  0.2385  0.2602
  964YOPC   C2B13924   4.652  16.411   7.421 -0.0227 -0.3176  0.1788
  964YOPC   D3B13925   4.706  16.220   7.747  0.1319 -0.0870 -0.1588
  964YOPC   C4B13926   4.633  16.244   8.169 -0.0036 -0.0778 -0.1736
  965YOPC   NC313927   0.355   3.354   5.845 -0.0395 -0.2323  0.2949
  965YOPC   PO413928   0.418   2.961   5.629 -0.0710 -0.0044 -0.1088
  965YOPC   GL113929   0.360   2.910   6.150 -0.2484  0.2232  0.3259
  965YOPC   GL213930   0.062   3.154   6.260 -0.1357  0.1329  0.0627
  965YOPC   C1A13931   0.345   2.847   6.611  0.2060  0.1909  0.0398
  965YOPC   D2A13932   0.562   3.003   6.975  0.0026  0.1512  0.0735
  965YOPC   C3A13933   0.650   2.727   7.316  0.0583  0.1221  0.2875
  965YOPC   C4A13934   0.539   2.717   7.714 -0.3431 -0.1010 -0.4555
  965YOPC   C1B13935   0.016   3.153   6.772  0.2146  0.0309 -0.0144
  965YOPC   C2B13936   0.078   3.152   7.246  0.2589 -0.1430  0.0330
  965YOPC   D3B13937  -0.094   3.235   7.700 -0.0083  0.2307 -0.0255
  965YOPC   C4B13938  -0.316   3.283   8.101 -0.1488 -0.3730 -0.1575
  966YOPC   NC313939   0.390  12.232   6.243  0.0339 -0.2848  0.1801
  966YOPC   PO413940   0.812  12.103   6.294 -0.1375  0.3096  0.0770
  966YOPC   GL113941   0.985  12.175   6.713  0.3837 -0.0253 -0.1316
  966YOPC   GL213942   1.137  12.453   6.719 -0.1257 -0.1686  0.1837
  966YOPC   C1A13943   1.107  12.013   7.047 -0.0333  0.0805  0.0206
  966YOPC   D2A13944   1.444  11.944   7.293 -0.1782 -0.1248 -0.1641
  966YOPC   C3A13945   1.712  11.750   7.213 -0.0155 -0.3143  0.3714
  966YOPC   C4A13946   2.116  11.625   7.164  0.1102  0.1062  0.0889
  966YOPC   C1B13947   1.393  12.395   7.088 -0.1451  0.3278  0.1021
  966YOPC   C2B13948   1.202  12.369   7.450 -0.1298  0.0186  0.2469
  966YOPC   D3B13949   1.301  12.286   7.855 -0.0702  0.0744  0.1420
  966YOPC   C4B13950   1.664  12.299   8.094  0.3307  0.0947  0.2935
  967YOPC   NC313951   0.683   6.585   6.081  0.1639  0.0838  0.1393
  967YOPC   PO413952   0.387   6.865   5.952  0.0235 -0.0640 -0.0189
  967YOPC   GL113953   0.019   6.692   6.232  0.0608  0.0880 -0.0732
  967YOPC   GL213954   0.216   6.259   6.313  0.1450  0.0923 -0.0972
  967YOPC   C1A13955  -0.150   6.782   6.619  0.0672 -0.2057 -0.2333
  967YOPC   D2A13956  -0.051   6.755   7.007 -0.1301 -0.1535 -0.0714
  967YOPC   C3A13957   0.307   6.772   7.094 -0.1093  0.2272 -0.2541
  967YOPC   C4A13958   0.610   6.724   7.347 -0.0698 -0.0924  0.2332
  967YOPC   C1B13959   0.306   6.445   6.706 -0.0737  0.1366 -0.1365
  967YOPC   C2B13960   0.582   6.346   6.908 -0.1771  0.0032 -0.1302
  967YOPC   D3B13961   0.472   6.276   7.347  0.1009  0.4048  0.2045
  967YOPC   C4B13962   0.606   6.241   7.750 -0.1257 -0.1694  0.1068
  968YOPC   NC313963  16.751   6.746   6.083 -0.2546  0.1593  0.0162
  968YOPC   PO413964  16.860   7.123   6.141  0.0367 -0.1115  0.1803
  968YOPC   GL113965  16.975   6.907   6.481  0.2152  0.0413  0.1682
  968YOPC   GL213966  17.233   6.852   6.537 -0.1693 -0.2039 -0.1170
  968YOPC   C1A13967  16.838   6.755   6.869 -0.1028  0.2006  0.0727
  968YOPC   D2A13968  16.868   6.749   7.298 -0.3379  0.1985  0.2427
  968YOPC   C3A13969  16.865   6.415   7.619 -0.0612 -0.1740 -0.3598
  968YOPC   C4A13970  17.153   6.278   7.886 -0.0280  0.0888 -0.2870
  968YOPC   C1B13971  17.347   6.651   6.993  0.1726 -0.0525 -0.2900
  968YOPC   C2B13972  17.394   6.570   7.406  0.0654 -0.5329  0.2751
  968YOPC   D3B13973  17.201   6.816   7.689 -0.0408  0.1018  0.1084
  968YOPC   C4B13974  16.954   6.712   7.976 -0.1382 -0.3498  0.0677
  969YOPC   NC313975   0.631  15.834   6.129 -0.1239  0.0935  0.0857
  969YOPC   PO413976   1.156  15.791   6.120  0.0628  0.1068 -0.1203
  969YOPC   GL113977   1.393  15.802   6.463 -0.0088  0.1348 -0.0208
  969YOPC   GL213978   1.464  15.509   6.417 -0.0797 -0.1682 -0.2245
  969YOPC   C1A13979   1.452  16.015   6.828 -0.0238  0.2553  0.0014
  969YOPC   D2A13980   1.617  16.278   7.126 -0.0115 -0.3289 -0.0651
  969YOPC   C3A13981   1.699  16.317   7.572 -0.0987  0.1484  0.2549
  969YOPC   C4A13982   1.694  16.425   7.902 -0.0716 -0.2490 -0.0349
  969YOPC   C1B13983   1.425  15.532   7.015  0.0358  0.0904  0.0493
  969YOPC   C2B13984   1.405  15.634   7.494 -0.1894  0.1130  0.0453
  969YOPC   D3B13985   1.565  15.874   7.904  0.1583 -0.3371 -0.1420
  969YOPC   C4B13986   1.601  15.942   8.292  0.0251 -0.0730  0.4256
  970YOPC   NC313987   5.545   9.833   5.933 -0.1847  0.1052  0.0883
  970YOPC   PO413988   5.858   9.777   6.138  0.0274  0.0908 -0.2668
  970YOPC   GL113989   5.797   9.748   6.564  0.0627 -0.1903  0.3209
  970YOPC   GL213990   6.022   9.520   6.617  0.0532  0.0495 -0.0556
  970YOPC   C1A13991   5.947   9.941   6.925 -0.0451 -0.0195  0.1575
  970YOPC   D2A13992   5.961   9.735   7.213 -0.0388  0.1255 -0.2124
  970YOPC   C3A13993   5.641   9.756   7.499  0.1170 -0.1120  0.0111
  970YOPC   C4A13994   5.473   9.381   7.567 -0.0533  0.2625 -0.1112
  970YOPC   C1B13995   5.880   9.335   6.953 -0.0179  0.0672  0.0747
  970YOPC   C2B13996   5.863   9.150   7.299  0.1734 -0.2599 -0.2250
  970YOPC   D3B13997   5.841   9.038   7.804  0.1202  0.1175 -0.0982
  970YOPC   C4B13998   5.988   9.307   8.155 -0.1581  0.3412 -0.1235
  971YOPC   NC313999   2.202   8.155   5.684 -0.2311 -0.2073  0.1013
  971YOPC   PO414000   2.520   7.923   5.806  0.2592  0.1229  0.1277
  971YOPC   GL114001   2.545   7.829   6.220  0.0014 -0.2693  0.1167
  971YOPC   GL214002   2.636   7.492   6.215 -0.1628 -0.1165  0.1299
  971YOPC   C1A14003   2.427   7.756   6.591  0.0008 -0.1863 -0.1481
  971YOPC   D2A14004   2.546   7.731   6.955 -0.1459 -0.0935  0.0455
  971YOPC   C3A14005   2.643   7.786   7.363  0.1433  0.3041 -0.2047
  971YOPC   C4A14006   2.754   7.564   7.816  0.1370 -0.0971 -0.0213
  971YOPC   C1B14007   2.815   7.482   6.627 -0.1798 -0.1423 -0.0542
  971YOPC   C2B14008   3.153   7.664   6.845  0.0870 -0.0273  0.1452
  971YOPC   D3B14009   3.553   7.675   6.623 -0.0171 -0.1507 -0.0960
  971YOPC   C4B14010   3.797   7.734   6.329 -0.1118 -0.0930  0.2274
  972YOPC   NC314011  17.556   7.663   5.697 -0.0960  0.1949 -0.0294
  972YOPC   PO414012  17.537   7.663   6.189  0.0469  0.3354  0.4245
  972YOPC   GL114013  17.454   7.770   6.597 -0.1073  0.1099  0.2606
  972YOPC   GL214014  17.193   7.930   6.781  0.0618 -0.0479 -0.2393
  972YOPC   C1A14015  17.724   7.620   6.913  0.0172 -0.0800  0.0490
  972YOPC   D2A14016  18.116   7.642   7.056  0.0177 -0.1992 -0.1527
  972YOPC   C3A14017  18.032   7.718   7.522 -0.0274  0.0109 -0.2068
  972YOPC   C4A14018  17.991   7.493   7.813 -0.1205  0.1046 -0.0187
  972YOPC   C1B14019  17.246   7.648   7.145 -0.1635  0.1279  0.1211
  972YOPC   C2B14020  17.571   7.583   7.414 -0.1662  0.1937 -0.0304
  972YOPC   D3B14021  17.487   7.401   7.776 -0.3828 -0.0046  0.0705
  972YOPC   C4B14022  17.368   7.095   8.129  0.0526 -0.0326 -0.0826
  973YOPC   NC314023   0.086  14.953   6.367 -0.1749 -0.1935  0.2118
  973YOPC   PO414024  -0.313  14.984   6.278  0.1688 -0.0120 -0.0363
  973YOPC   GL114025  -0.559  15.079   6.656  0.2102  0.3657 -0.0193
  973YOPC   GL214026  -0.593  15.436   6.788  0.0086 -0.1016 -0.1027
  973YOPC   C1A14027  -0.763  14.876   7.033  0.1752  0.0789 -0.2308
  973YOPC   D2A14028  -0.780  14.809   7.434 -0.1367  0.1467  0.0831
  973YOPC   C3A14029  -1.024  14.413   7.442 -0.0579  0.0971  0.3544
  973YOPC   C4A14030  -1.123  14.186   7.082  0.1407 -0.1935 -0.0305
  973YOPC   C1B14031  -0.489  15.248   7.246  0.1594  0.1567 -0.0019
  973YOPC   C2B14032  -0.455  15.304   7.591 -0.0806 -0.0678  0.0909
  973YOPC   D3B14033  -0.643  15.033   7.858 -0.0025 -0.2079  0.1577
  973YOPC   C4B14034  -0.949  14.680   7.905 -0.0963 -0.1109 -0.2667
  974YOPC   NC314035  16.654   7.630   6.244  0.0692  0.0501 -0.0346
  974YOPC   PO414036  17.004   7.881   6.336  0.1685 -0.0101  0.0036
  974YOPC   GL114037  17.039   8.304   6.480  0.0271 -0.1686  0.0706
  974YOPC   GL214038  16.789   8.487   6.605 -0.0006 -0.1453  0.0522
  974YOPC   C1A14039  17.247   8.501   6.843  0.1829  0.0088  0.1315
  974YOPC   D2A14040  17.311   8.593   7.231  0.4766  0.1569 -0.2424
  974YOPC   C3A14041  17.550   8.704   7.607  0.2854  0.0953 -0.0037
  974YOPC   C4A14042  17.713   8.821   7.996 -0.1958 -0.0579 -0.0902
  974YOPC   C1B14043  16.856   8.275   6.956 -0.0630 -0.0781 -0.0028
  974YOPC   C2B14044  17.055   8.122   7.332  0.0762 -0.1504  0.0906
  974YOPC   D3B14045  17.129   8.448   7.744  0.5625  0.0229  0.0515
  974YOPC   C4B14046  17.298   8.684   8.198  0.2143  0.0068 -0.0286
  975YOPC   NC314047  11.933  17.160   5.519  0.0284  0.0612  0.1550
  975YOPC   PO414048  11.930  17.059   5.892  0.0874 -0.2133  0.2289
  975YOPC   GL114049  11.840  17.241   6.244  0.3661  0.0382 -0.0067
  975YOPC   GL214050  12.034  17.049   6.483 -0.0222 -0.1247  0.2985
  975YOPC   C1A14051  11.838  17.468   6.654  0.2675 -0.3472 -0.1295
  975YOPC   D2A14052  11.980  17.692   6.997 -0.1077 -0.0810  0.1381
  975YOPC   C3A14053  12.148  17.600   7.399 -0.1687 -0.0865 -0.0258
  975YOPC   C4A14054  12.395  17.547   7.739  0.0539  0.2048  0.0116
  975YOPC   C1B14055  11.909  16.806   6.833  0.0028  0.0548  0.1675
  975YOPC   C2B14056  11.952  16.519   7.150 -0.1135 -0.2886 -0.4217
  975YOPC   D3B14057  11.953  16.658   7.544 -0.0267 -0.0531  0.1265
  975YOPC   C4B14058  11.958  16.728   7.952 -0.0624 -0.0157  0.0477
  976YOPC   NC314059   5.272   1.882   5.456  0.0372  0.1622 -0.1449
  976YOPC   PO414060   5.549   2.180   5.589  0.1492 -0.1029  0.0048
  976YOPC   GL114061   5.606   2.096   6.051 -0.0613  0.0988 -0.1463
  976YOPC   GL214062   5.908   2.267   6.181 -0.0130 -0.0309  0.0073
  976YOPC   C1A14063   5.192   1.921   6.313  0.3008 -0.1996 -0.1710
  976YOPC   D2A14064   4.871   2.012   6.511  0.2762 -0.0977  0.1648
  976YOPC   C3A14065   5.053   1.805   6.889 -0.2120  0.0039 -0.1180
  976YOPC   C4A14066   5.038   1.348   7.027 -0.1913 -0.0963  0.0291
  976YOPC   C1B14067   5.825   2.344   6.554  0.0983  0.1565  0.1023
  976YOPC   C2B14068   5.409   2.371   6.743  0.3083  0.1969 -0.0317
  976YOPC   D3B14069   5.447   2.253   7.160  0.2127  0.0628  0.0010
  976YOPC   C4B14070   5.690   2.325   7.382 -0.0162 -0.1308  0.0314
  977YOPC   NC314071   9.501  15.596   5.947 -0.0105  0.1641 -0.1067
  977YOPC   PO414072   9.372  15.097   6.102  0.2004 -0.0590  0.1008
  977YOPC   GL114073   9.326  14.947   6.557 -0.1408 -0.2603  0.1378
  977YOPC   GL214074   9.651  15.033   6.673 -0.1543 -0.2260  0.1073
  977YOPC   C1A14075   9.134  15.100   6.981  0.0454  0.0109  0.2072
  977YOPC   D2A14076   9.274  15.349   7.304  0.1388  0.1244 -0.1774
  977YOPC   C3A14077   9.408  15.139   7.680 -0.0932  0.0347 -0.1696
  977YOPC   C4A14078   9.475  14.808   7.860  0.2151  0.2169  0.0365
  977YOPC   C1B14079   9.682  15.021   7.167  0.1786  0.1918  0.1517
  977YOPC   C2B14080   9.964  14.946   7.316 -0.0167 -0.1783 -0.0407
  977YOPC   D3B14081   9.972  14.797   7.729  0.2220  0.1785 -0.0293
  977YOPC   C4B14082   9.885  14.742   8.202 -0.0917 -0.3190 -0.2848
  978YOPC   NC314083  17.594  10.179   5.816  0.0624  0.1348 -0.3159
  978YOPC   PO414084  17.107  10.013   5.999 -0.4076  0.0294 -0.2045
  978YOPC   GL114085  17.030  10.321   6.431 -0.0282 -0.1711  0.0957
  978YOPC   GL214086  17.085  10.631   6.493  0.0893 -0.0922 -0.1568
  978YOPC   C1A14087  17.321  10.187   6.737 -0.1326 -0.1515 -0.0939
  978YOPC   D2A14088  17.423   9.947   7.190  0.1618 -0.1142 -0.3246
  978YOPC   C3A14089  17.342  10.133   7.660  0.0167  0.1279 -0.1007
  978YOPC   C4A14090  17.322  10.150   8.130  0.0093  0.1536  0.0139
  978YOPC   C1B14091  16.829  10.566   6.828  0.1166  0.1132 -0.0365
  978YOPC   C2B14092  16.656  10.277   7.095 -0.1434  0.0557  0.0250
  978YOPC   D3B14093  16.859  10.104   7.428  0.0611 -0.1608  0.0610
  978YOPC   C4B14094  16.873  10.133   7.855 -0.1530  0.3989  0.2666
  979YOPC   NC314095   9.313   6.058   6.154 -0.4251 -0.1975 -0.0377
  979YOPC   PO414096   9.059   6.351   6.054  0.3949 -0.7879 -0.2125
  979YOPC   GL114097   9.011   6.373   6.426  0.0379  0.2276 -0.1958
  979YOPC   GL214098   8.856   6.620   6.723  0.0092  0.1608  0.1800
  979YOPC   C1A14099   8.929   6.130   6.748  0.0956 -0.0117 -0.4310
  979YOPC   D2A14100   8.965   5.831   6.959  0.3765  0.2473 -0.0987
  979YOPC   C3A14101   8.918   5.876   7.384  0.1521  0.0275  0.0774
  979YOPC   C4A14102   8.988   5.930   7.795  0.1734  0.1111  0.1567
  979YOPC   C1B14103   8.979   6.446   7.220 -0.1364  0.0336  0.0995
  979YOPC   C2B14104   8.962   6.388   7.570  0.1554  0.0543 -0.1272
  979YOPC   D3B14105   9.076   6.645   7.920  0.2573  0.1704 -0.2795
  979YOPC   C4B14106   9.138   6.548   8.363 -0.1478  0.4458 -0.0766
  980YOPC   NC314107   4.663   4.695   6.208 -0.1069  0.3013  0.2514
  980YOPC   PO414108   4.552   5.102   6.091  0.2464  0.1716 -0.0657
  980YOPC   GL114109   4.719   5.188   6.469 -0.1573  0.0517 -0.0162
  980YOPC   GL214110   5.035   5.266   6.567  0.7524  0.0120  0.0302
  980YOPC   C1A14111   4.786   5.148   6.976  0.1810  0.0804  0.1701
  980YOPC   D2A14112   4.953   5.325   7.372  0.0501  0.0206 -0.4759
  980YOPC   C3A14113   4.920   5.081   7.775  0.2914  0.1125 -0.3157
  980YOPC   C4A14114   4.991   5.221   8.148 -0.1168  0.1667  0.0861
  980YOPC   C1B14115   5.092   5.585   6.907 -0.0616 -0.2641 -0.4559
  980YOPC   C2B14116   5.082   5.844   7.211 -0.3247  0.2937 -0.1908
  980YOPC   D3B14117   5.024   5.787   7.593 -0.1591 -0.0900  0.1743
  980YOPC   C4B14118   4.775   5.619   7.851  0.1128 -0.1207  0.0713
  981YOPC   NC314119   5.700   5.708   6.246  0.0401 -0.3584 -0.1173
  981YOPC   PO414120   6.018   5.867   6.293 -0.1386 -0.2160  0.1026
  981YOPC   GL114121   5.934   6.040   6.724  0.1379  0.0747 -0.0293
  981YOPC   GL214122   6.241   5.836   6.754  0.0925 -0.1449  0.0860
  981YOPC   C1A14123   5.875   5.761   7.105 -0.4764 -0.0359  0.0672
  981YOPC   D2A14124   5.933   5.696   7.513 -0.1709  0.3266  0.4576
  981YOPC   C3A14125   5.700   5.652   7.883 -0.0095 -0.1677  0.3229
  981YOPC   C4A14126   5.491   5.402   8.182  0.2089  0.2084  0.0845
  981YOPC   C1B14127   6.409   5.625   7.176  0.2454 -0.1095 -0.1586
  981YOPC   C2B14128   6.401   5.320   7.488  0.1557 -0.3461  0.3527
  981YOPC   D3B14129   6.240   5.287   7.836 -0.0290 -0.1507 -0.0242
  981YOPC   C4B14130   5.934   5.188   8.160 -0.2885  0.4515 -0.0331
  982YOPC   NC314131   9.055   1.337   6.268 -0.2610  0.0970 -0.2225
  982YOPC   PO414132   8.788   1.753   6.336  0.1780  0.0639 -0.0464
  982YOPC   GL114133   8.726   1.964   6.725  0.1220 -0.0086 -0.3230
  982YOPC   GL214134   8.631   2.306   6.812  0.0226  0.2162 -0.2490
  982YOPC   C1A14135   9.006   2.072   6.976 -0.2193 -0.2428 -0.0438
  982YOPC   D2A14136   9.028   2.171   7.304  0.0028  0.3084  0.0184
  982YOPC   C3A14137   8.842   1.992   7.692  0.1762 -0.0159 -0.0746
  982YOPC   C4A14138   8.815   1.659   8.077 -0.1354  0.1713  0.0602
  982YOPC   C1B14139   8.830   2.593   7.196 -0.0467  0.0698  0.2858
  982YOPC   C2B14140   8.854   2.496   7.650  0.0681 -0.0982 -0.3229
  982YOPC   D3B14141   9.045   2.389   7.955 -0.3585 -0.2935  0.0250
  982YOPC   C4B14142   9.013   2.152   8.282  0.1893  0.2452 -0.0963
  983YOPC   NC314143   9.346  12.366   6.454  0.0301  0.1627 -0.2125
  983YOPC   PO414144   9.429  11.949   6.440  0.1613  0.1782 -0.2888
  983YOPC   GL114145   9.587  11.998   6.787  0.3686 -0.1372 -0.0090
  983YOPC   GL214146   9.420  12.015   6.974  0.1026  0.3261 -0.1448
  983YOPC   C1A14147   9.962  11.932   6.997  0.0143 -0.1708 -0.0119
  983YOPC   D2A14148  10.384  11.843   6.958 -0.0620  0.0638 -0.2268
  983YOPC   C3A14149  10.516  11.431   6.934  0.0581  0.0876 -0.0586
  983YOPC   C4A14150  10.283  10.993   6.978 -0.0250  0.1157  0.1136
  983YOPC   C1B14151   9.677  12.104   7.389  0.1549  0.2646 -0.1182
  983YOPC   C2B14152   9.817  12.223   7.775 -0.0931 -0.1176  0.0746
  983YOPC   D3B14153   9.810  12.526   8.133  0.4228  0.0192 -0.1371
  983YOPC   C4B14154   9.775  12.625   8.553 -0.1468 -0.2948 -0.4070
  984YOPC   NC314155   9.022  14.723   6.216  0.3318  0.2254  0.2641
  984YOPC   PO414156   8.856  14.368   5.968  0.1038 -0.0321  0.0009
  984YOPC   GL114157   8.826  14.350   6.451  0.1124  0.0469 -0.0033
  984YOPC   GL214158   8.951  14.126   6.518 -0.0545 -0.2758 -0.0585
  984YOPC   C1A14159   8.615  14.630   6.729 -0.0260  0.2339 -0.0140
  984YOPC   D2A14160   8.725  14.801   7.119  0.0298  0.0454 -0.0457
  984YOPC   C3A14161   8.448  15.009   7.535 -0.1285  0.0991 -0.3481
  984YOPC   C4A14162   8.097  14.812   7.840 -0.1673 -0.0386  0.1549
  984YOPC   C1B14163   8.823  14.176   6.908 -0.1070  0.0833 -0.2819
  984YOPC   C2B14164   8.815  14.415   7.370 -0.1760  0.0259 -0.1837
  984YOPC   D3B14165   9.126  14.440   7.709  0.0631 -0.1617  0.1400
  984YOPC   C4B14166   9.158  14.510   8.197 -0.2607  0.1188 -0.1599
  985YOPC   NC314167  14.921   4.870   5.543  0.2246  0.3527  0.2245
  985YOPC   PO414168  15.132   4.511   5.755  0.1509 -0.2611 -0.1649
  985YOPC   GL114169  14.977   4.601   6.176  0.1086 -0.0108  0.1466
  985YOPC   GL214170  15.069   4.900   6.402 -0.1420  0.2815 -0.1008
  985YOPC   C1A14171  14.676   4.575   6.475 -0.1321 -0.0083  0.4170
  985YOPC   D2A14172  14.545   4.721   6.882  0.0279 -0.1136  0.2117
  985YOPC   C3A14173  14.522   5.213   6.958 -0.0736  0.2758  0.4442
  985YOPC   C4A14174  14.600   5.376   7.352  0.1947 -0.0243 -0.2639
  985YOPC   C1B14175  14.983   4.905   6.846 -0.1273 -0.0704  0.1046
  985YOPC   C2B14176  14.865   4.947   7.320 -0.3668  0.0641  0.2742
  985YOPC   D3B14177  14.362   4.908   7.336 -0.4404 -0.1894 -0.1821
  985YOPC   C4B14178  13.940   5.077   7.266 -0.0842 -0.0898  0.1023
  986YOPC   NC314179  13.838  15.672   5.651 -0.0355 -0.1348 -0.0701
  986YOPC   PO414180  13.823  16.083   5.818 -0.0388  0.2072 -0.0626
  986YOPC   GL114181  13.643  15.990   6.264 -0.1993  0.2294  0.1754
  986YOPC   GL214182  13.562  16.307   6.382  0.3880 -0.0680  0.0356
  986YOPC   C1A14183  13.509  15.972   6.728 -0.2215  0.2183  0.1717
  986YOPC   D2A14184  13.329  15.589   6.948 -0.1610  0.1961 -0.0285
  986YOPC   C3A14185  13.343  15.445   7.414  0.1688  0.0974 -0.0201
  986YOPC   C4A14186  13.195  15.474   7.831  0.3068  0.4168 -0.0688
  986YOPC   C1B14187  13.614  16.473   6.737 -0.2532  0.4272  0.1050
  986YOPC   C2B14188  13.738  16.520   7.221  0.0200 -0.1487 -0.3408
  986YOPC   D3B14189  13.549  16.350   7.602 -0.2814  0.0317 -0.4812
  986YOPC   C4B14190  13.461  16.599   7.961 -0.0521  0.0034  0.0496
  987YOPC   NC314191  13.284  10.637   5.845  0.0457 -0.0070 -0.0024
  987YOPC   PO414192  13.241  10.663   6.269 -0.0654  0.1501 -0.3036
  987YOPC   GL114193  13.489  10.518   6.639 -0.0369  0.1819 -0.0438
  987YOPC   GL214194  13.720  10.733   6.838  0.2710  0.1059 -0.0276
  987YOPC   C1A14195  13.618  10.216   7.031 -0.2624  0.2244 -0.2403
  987YOPC   D2A14196  13.710  10.264   7.449 -0.1200 -0.1603  0.1030
  987YOPC   C3A14197  13.593  10.254   7.922 -0.0021  0.0396 -0.0078
  987YOPC   C4A14198  13.536  10.187   8.350  0.0718  0.0420  0.0082
  987YOPC   C1B14199  13.728  10.688   7.199 -0.2589 -0.0979  0.1633
  987YOPC   C2B14200  13.658  10.813   7.564  0.1946  0.0816 -0.1367
  987YOPC   D3B14201  13.699  11.029   7.992  0.0019 -0.0387 -0.0047
  987YOPC   C4B14202  13.423  11.383   8.242  0.2115 -0.0715  0.1620
  988YOPC   NC314203   0.986   1.135   6.248 -0.0345 -0.0421  0.4663
  988YOPC   PO414204   0.549   1.184   6.120 -0.2026 -0.1296 -0.0831
  988YOPC   GL114205   0.534   1.185   6.525  0.1497  0.0037 -0.3307
  988YOPC   GL214206   0.560   0.858   6.696 -0.0077 -0.5380 -0.0143
  988YOPC   C1A14207   0.765   1.397   6.834  0.2872 -0.1033 -0.0513
  988YOPC   D2A14208   0.921   1.622   7.127  0.0270 -0.0411 -0.1279
  988YOPC   C3A14209   0.971   1.637   7.539  0.0865 -0.0238  0.0644
  988YOPC   C4A14210   1.046   1.793   7.888 -0.3737 -0.0394  0.2889
  988YOPC   C1B14211   0.513   0.999   7.147  0.2140  0.2290  0.1967
  988YOPC   C2B14212   0.564   1.297   7.366  0.3180 -0.3151 -0.0283
  988YOPC   D3B14213   0.651   1.372   7.805  0.1034  0.3276  0.0042
  988YOPC   C4B14214   0.863   1.339   8.140  0.2819  0.2396 -0.0442
  989YOPC   NC314215  14.404  11.645   6.101  0.0487  0.0086 -0.1620
  989YOPC   PO414216  14.342  11.494   6.515  0.0490  0.1558  0.0068
  989YOPC   GL114217  14.440  11.721   6.877 -0.4994  0.1397  0.3812
  989YOPC   GL214218  14.790  11.717   6.937  0.2056 -0.0219 -0.3309
  989YOPC   C1A14219  14.347  11.777   7.264  0.1774 -0.0386  0.2770
  989YOPC   D2A14220  14.311  11.393   7.471 -0.0151 -0.2196 -0.0457
  989YOPC   C3A14221  14.320  11.308   7.948  0.2260 -0.0749  0.0499
  989YOPC   C4A14222  14.435  11.013   8.138  0.0820  0.1803 -0.1204
  989YOPC   C1B14223  14.823  11.613   7.382  0.0184  0.1347  0.0530
  989YOPC   C2B14224  14.802  11.476   7.835  0.0727 -0.2232  0.4771
  989YOPC   D3B14225  14.672  11.828   8.118  0.0786  0.1056 -0.0952
  989YOPC   C4B14226  14.489  12.239   8.066 -0.0174  0.1078 -0.0226
  990YOPC   NC314227   2.369   6.988   5.869 -0.1180 -0.2086 -0.0447
  990YOPC   PO414228   2.532   6.552   5.716 -0.0471 -0.1919 -0.0027
  990YOPC   GL114229   2.799   6.820   6.090  0.0836  0.0963  0.0447
  990YOPC   GL214230   3.160   6.798   6.056 -0.0384  0.3539  0.2581
  990YOPC   C1A14231   2.800   6.949   6.494  0.2441  0.3382  0.1071
  990YOPC   D2A14232   2.907   6.824   6.945  0.0243 -0.3498  0.4220
  990YOPC   C3A14233   2.856   6.889   7.463 -0.1747  0.0266 -0.2000
  990YOPC   C4A14234   2.915   7.083   7.893 -0.0855  0.2905  0.1374
  990YOPC   C1B14235   3.438   6.852   6.390 -0.0264  0.0542  0.0448
  990YOPC   C2B14236   3.467   6.611   6.812 -0.6362  0.0263 -0.1111
  990YOPC   D3B14237   3.710   6.793   7.085  0.2240 -0.0083  0.0278
  990YOPC   C4B14238   3.733   6.953   7.407 -0.0457  0.3562  0.0228
  991YOPC   NC314239   1.936   5.775   5.667 -0.2544  0.1715 -0.2146
  991YOPC   PO414240   2.313   5.571   6.023 -0.0569 -0.1678  0.1344
  991YOPC   GL114241   2.424   5.483   6.400  0.0694 -0.2859  0.2231
  991YOPC   GL214242   2.368   5.226   6.479  0.0215  0.0558  0.2244
  991YOPC   C1A14243   2.512   5.690   6.747  0.0252  0.1081  0.0514
  991YOPC   D2A14244   2.667   5.568   7.171 -0.2308  0.2387 -0.0069
  991YOPC   C3A14245   3.013   5.620   7.499 -0.1100 -0.0666 -0.0379
  991YOPC   C4A14246   3.289   5.630   7.597  0.0086  0.0592 -0.1411
  991YOPC   C1B14247   2.583   5.161   6.885 -0.1562 -0.3573 -0.2491
  991YOPC   C2B14248   2.996   5.217   7.196 -0.1754 -0.0631 -0.0392
  991YOPC   D3B14249   3.005   5.032   7.571 -0.2398  0.3192  0.0491
  991YOPC   C4B14250   2.802   4.719   7.828  0.2259 -0.1071  0.3772
  992YOPC   NC314251   7.545  16.669   6.300 -0.0648 -0.3431 -0.0903
  992YOPC   PO414252   7.833  16.959   6.258  0.1823  0.0749 -0.1619
  992YOPC   GL114253   7.873  16.888   6.672  0.1598 -0.0606  0.0936
  992YOPC   GL214254   8.091  16.512   6.666  0.1212  0.0012  0.1490
  992YOPC   C1A14255   7.990  17.146   7.041  0.1490 -0.2256  0.2615
  992YOPC   D2A14256   8.077  17.338   7.503 -0.3006  0.0710  0.2180
  992YOPC   C3A14257   7.831  17.190   7.892 -0.1693  0.1573  0.2350
  992YOPC   C4A14258   7.464  17.473   8.139  0.0554  0.1313 -0.0979
  992YOPC   C1B14259   8.243  16.739   7.078  0.1272  0.0088  0.5354
  992YOPC   C2B14260   8.107  16.625   7.469  0.0947  0.2208 -0.1482
  992YOPC   D3B14261   8.181  16.927   7.734  0.1759  0.1007  0.4709
  992YOPC   C4B14262   8.365  16.929   8.170 -0.0730  0.0077  0.0612
  993YOPC   NC314263  17.098  14.597   5.910  0.0210 -0.3181  0.0822
  993YOPC   PO414264  17.457  14.498   6.088 -0.1466 -0.0627  0.0915
  993YOPC   GL114265  17.239  14.478   6.488  0.0526  0.2090  0.0829
  993YOPC   GL214266  17.382  14.489   6.747  0.0905 -0.1267 -0.3541
  993YOPC   C1A14267  16.836  14.553   6.781 -0.0299  0.1261 -0.2953
  993YOPC   D2A14268  16.497  14.655   7.100  0.1740  0.0794  0.0452
  993YOPC   C3A14269  16.446  14.610   7.582  0.0371 -0.1750 -0.0068
  993YOPC   C4A14270  16.323  14.597   7.897 -0.0437  0.1232  0.0546
  993YOPC   C1B14271  17.171  14.369   7.115 -0.0640 -0.2277  0.0547
  993YOPC   C2B14272  17.404  14.302   7.413 -0.0996  0.1907  0.2046
  993YOPC   D3B14273  17.354  14.364   7.814  0.1558  0.1103  0.0562
  993YOPC   C4B14274  17.452  14.568   8.271 -0.1652  0.0941  0.1072
  994YOPC   NC314275  13.922   8.649   6.195  0.2444  0.0476 -0.0326
  994YOPC   PO414276  14.038   8.251   6.379  0.0688  0.1282 -0.0631
  994YOPC   GL114277  14.051   8.468   6.698  0.0465 -0.3071 -0.3188
  994YOPC   GL214278  13.817   8.762   6.694 -0.0871 -0.0715 -0.1293
  994YOPC   C1A14279  14.335   8.487   7.025  0.4295 -0.1529  0.1270
  994YOPC   D2A14280  14.344   8.173   7.379  0.3203  0.0130  0.1029
  994YOPC   C3A14281  14.478   8.350   7.750  0.2924 -0.0283  0.1894
  994YOPC   C4A14282  14.694   8.391   8.082  0.0825  0.2149 -0.2883
  994YOPC   C1B14283  13.613   8.794   7.091  0.4058  0.0582 -0.2000
  994YOPC   C2B14284  13.611   8.704   7.446 -0.0815  0.2787 -0.0258
  994YOPC   D3B14285  13.829   9.037   7.656  0.1186  0.0489 -0.1749
  994YOPC   C4B14286  13.946   9.259   8.036  0.2259  0.3340  0.0287
  995YOPC   NC314287   6.784   7.909   6.260  0.0492  0.1358  0.0066
  995YOPC   PO414288   6.392   7.870   6.332 -0.2037  0.0950 -0.0248
  995YOPC   GL114289   6.199   8.017   6.723 -0.2908 -0.0308 -0.3527
  995YOPC   GL214290   6.299   7.731   6.974  0.0869  0.0299  0.0164
  995YOPC   C1A14291   5.955   8.159   6.922 -0.0320  0.1092 -0.0661
  995YOPC   D2A14292   5.731   8.161   7.218 -0.1001 -0.0187  0.2166
  995YOPC   C3A14293   5.825   8.060   7.641 -0.3962 -0.0204  0.2751
  995YOPC   C4A14294   5.933   7.669   7.753  0.0313  0.0973  0.1642
  995YOPC   C1B14295   5.877   7.696   7.177  0.0303 -0.1240  0.3590
  995YOPC   C2B14296   5.481   7.725   7.342  0.1126  0.2121 -0.1207
  995YOPC   D3B14297   5.424   7.795   7.811 -0.0772  0.2037 -0.0727
  995YOPC   C4B14298   5.047   7.645   8.038  0.2299  0.1478 -0.2303
  996YOPC   NC314299   1.837   2.634   5.859 -0.4109  0.0520  0.0759
  996YOPC   PO414300   1.934   2.250   5.718 -0.1240 -0.1202 -0.0017
  996YOPC   GL114301   1.740   2.120   6.082 -0.0130  0.2379 -0.1133
  996YOPC   GL214302   1.950   2.090   6.360  0.1252  0.0285 -0.2832
  996YOPC   C1A14303   1.388   2.316   6.355 -0.0778  0.2581  0.3270
  996YOPC   D2A14304   1.268   2.330   6.782 -0.1086 -0.3682  0.0484
  996YOPC   C3A14305   1.499   2.588   7.009  0.1168  0.2076 -0.1642
  996YOPC   C4A14306   1.926   2.761   6.976  0.0120  0.0750  0.2960
  996YOPC   C1B14307   1.799   2.290   6.796  0.4309  0.2021 -0.0730
  996YOPC   C2B14308   1.911   2.336   7.273  0.0582 -0.2733  0.0155
  996YOPC   D3B14309   1.563   2.503   7.501 -0.0925 -0.0189  0.1137
  996YOPC   C4B14310   1.099   2.469   7.268 -0.0707 -0.1509 -0.0464
  997YOPC   NC314311  10.287  14.917   5.911  0.1496  0.0129  0.3221
  997YOPC   PO414312  10.357  15.292   6.179 -0.3031  0.1987 -0.2356
  997YOPC   GL114313  10.313  15.300   6.554  0.0076 -0.2656  0.0008
  997YOPC   GL214314  10.050  15.411   6.620 -0.1368 -0.2418 -0.4145
  997YOPC   C1A14315  10.534  15.254   6.879 -0.1519  0.0697 -0.1225
  997YOPC   D2A14316  10.490  15.267   7.305 -0.1777  0.0142  0.0613
  997YOPC   C3A14317  10.795  15.129   7.513 -0.3299  0.3599  0.1644
  997YOPC   C4A14318  11.045  15.081   7.880  0.1867  0.1059  0.0441
  997YOPC   C1B14319   9.920  15.804   6.778  0.1568  0.1155  0.0278
  997YOPC   C2B14320   9.926  15.898   7.167 -0.1224 -0.0443 -0.4207
  997YOPC   D3B14321   9.617  15.715   7.412  0.0526  0.0208 -0.2053
  997YOPC   C4B14322   9.512  15.661   7.849 -0.0948 -0.0108  0.1255
  998YOPC   NC314323  11.815  16.695   6.169 -0.0257 -0.0075 -0.1871
  998YOPC   PO414324  11.563  16.451   6.177  0.1262 -0.1453 -0.2339
  998YOPC   GL114325  11.653  16.347   6.588  0.1474  0.0627 -0.1036
  998YOPC   GL214326  11.963  16.316   6.505  0.0005 -0.0301  0.1457
  998YOPC   C1A14327  11.434  16.316   6.970  0.1332 -0.0313  0.0149
  998YOPC   D2A14328  11.277  16.358   7.466  0.1053  0.0408  0.0525
  998YOPC   C3A14329  11.494  16.493   7.864  0.0927 -0.4050 -0.1784
  998YOPC   C4A14330  11.618  16.555   8.325  0.2281  0.1841 -0.1607
  998YOPC   C1B14331  11.924  16.078   6.964 -0.1637  0.0587  0.0130
  998YOPC   C2B14332  11.871  16.008   7.342  0.0212 -0.1571 -0.1582
  998YOPC   D3B14333  11.937  16.200   7.720  0.1034  0.3804  0.1624
  998YOPC   C4B14334  12.049  16.207   8.154  0.0201  0.1002  0.2750
  999YOPC   NC314335   1.722  11.931   5.573 -0.2932  0.1336 -0.1688
  999YOPC   PO414336   1.529  11.762   5.968 -0.3384  0.0215 -0.3449
  999YOPC   GL114337   1.475  11.539   6.393  0.2553 -0.1469  0.1163
  999YOPC   GL214338   1.724  11.611   6.721  0.2201  0.2540  0.2063
  999YOPC   C1A14339   1.519  11.169   6.651  0.0938 -0.0007  0.1866
  999YOPC   D2A14340   1.361  10.892   6.971  0.0781 -0.1491  0.2993
  999YOPC   C3A14341   1.425  10.930   7.314  0.0369 -0.0378 -0.3105
  999YOPC   C4A14342   1.387  11.093   7.698  0.0986 -0.1815 -0.1373
  999YOPC   C1B14343   1.366  11.511   6.964 -0.2244  0.1349  0.2936
  999YOPC   C2B14344   1.247  11.468   7.368 -0.0728 -0.3546 -0.0217
  999YOPC   D3B14345   1.311  11.778   7.719  0.1691  0.1856  0.3598
  999YOPC   C4B14346   1.143  11.862   8.163 -0.1462  0.1931  0.0570
 1000YOPC   NC314347   4.009  14.672   5.655  0.1118  0.0340 -0.0573
 1000YOPC   PO414348   4.197  15.117   5.809  0.0630  0.1730  0.1215
 1000YOPC   GL114349   4.342  14.922   6.153  0.0031  0.2426  0.2115
 1000YOPC   GL214350   4.165  15.217   6.307 -0.2272 -0.1286 -0.0250
 1000YOPC   C1A14351   4.473  14.753   6.494  0.2881  0.2440 -0.1732
 1000YOPC   D2A14352   4.916  14.669   6.622  0.0530 -0.2199  0.2103
 1000YOPC   C3A14353   4.954  14.637   7.121  0.2108 -0.0275 -0.1004
 1000YOPC   C4A14354   5.272  14.880   7.324  0.0386 -0.0826 -0.1683
 1000YOPC   C1B14355   3.901  15.481   6.545  0.1902 -0.0745  0.1240
 1000YOPC   C2B14356   3.977  15.788   6.871 -0.0712  0.0516 -0.0118
 1000YOPC   D3B14357   4.247  15.751   7.122  0.2686 -0.0105 -0.3695
 1000YOPC   C4B14358   4.474  15.893   7.470  0.1519 -0.0316  0.2580
 1001YOPC   NC314359   5.315  14.584   5.924 -0.1544  0.1197 -0.3086
 1001YOPC   PO414360   5.160  14.447   6.291  0.0073  0.0712  0.0778
 1001YOPC   GL114361   5.189  14.256   6.656 -0.1503  0.0232  0.0087
 1001YOPC   GL214362   5.384  14.041   6.598 -0.1572  0.0948  0.0321
 1001YOPC   C1A14363   5.186  14.186   7.096 -0.2017 -0.3399 -0.1178
 1001YOPC   D2A14364   5.397  14.030   7.415 -0.0798  0.1306 -0.1718
 1001YOPC   C3A14365   5.230  13.924   7.833  0.1605  0.2980  0.1506
 1001YOPC   C4A14366   5.012  13.884   8.128 -0.0556  0.2081 -0.1000
 1001YOPC   C1B14367   5.306  13.739   6.877 -0.0419  0.0096  0.0066
 1001YOPC   C2B14368   5.227  13.480   7.083  0.0912  0.2273  0.1057
 1001YOPC   D3B14369   5.134  13.592   7.476  0.3351  0.0028  0.0605
 1001YOPC   C4B14370   5.118  13.431   7.935  0.1919 -0.3531  0.0354
 1002YOPC   NC314371  13.574   9.523   6.158  0.1006  0.0523 -0.3795
 1002YOPC   PO414372  13.348   9.936   6.142 -0.2024 -0.0555 -0.1402
 1002YOPC   GL114373  13.224   9.714   6.522  0.3453 -0.2694  0.0486
 1002YOPC   GL214374  13.252   9.947   6.729  0.1181  0.1344  0.0921
 1002YOPC   C1A14375  13.147   9.506   6.909 -0.0230  0.0640 -0.0897
 1002YOPC   D2A14376  13.371   9.203   7.145 -0.0433 -0.2266  0.0235
 1002YOPC   C3A14377  13.324   9.090   7.616 -0.2626  0.0281 -0.2133
 1002YOPC   C4A14378  13.512   8.779   7.952 -0.0357 -0.0659 -0.2448
 1002YOPC   C1B14379  13.144   9.991   7.104 -0.1165  0.0465  0.0115
 1002YOPC   C2B14380  13.192  10.030   7.566 -0.1369  0.1254 -0.0396
 1002YOPC   D3B14381  13.262   9.934   8.041  0.1128  0.0793 -0.1603
 1002YOPC   C4B14382  13.347   9.716   8.444 -0.0576 -0.0273  0.1809
 1003YOPC   NC314383   9.913   0.360   6.010 -0.0915 -0.1952 -0.0485
 1003YOPC   PO414384  10.236   0.721   5.999  0.0255  0.1558 -0.0151
 1003YOPC   GL114385  10.170   0.864   6.460 -0.1263  0.0426  0.4429
 1003YOPC   GL214386  10.336   1.002   6.629 -0.2736  0.2192  0.0281
 1003YOPC   C1A14387   9.907   0.882   6.864 -0.1759  0.2588  0.0379
 1003YOPC   D2A14388   9.754   0.996   7.408  0.2445 -0.0489 -0.1780
 1003YOPC   C3A14389   9.315   0.892   7.580  0.0189 -0.0027  0.1656
 1003YOPC   C4A14390   8.886   0.923   7.573 -0.1543  0.0195 -0.1578
 1003YOPC   C1B14391  10.064   1.464   6.608 -0.0148 -0.1013  0.1152
 1003YOPC   C2B14392  10.003   1.797   6.965  0.1689  0.0138 -0.0197
 1003YOPC   D3B14393  10.219   2.116   7.262  0.0546 -0.0247 -0.0961
 1003YOPC   C4B14394  10.382   2.425   7.087 -0.4063 -0.1433 -0.3251
 1004YOPC   NC314395   2.803   0.140   5.746 -0.1859 -0.2457 -0.1231
 1004YOPC   PO414396   2.628  -0.004   6.181  0.0372  0.1964 -0.0416
 1004YOPC   GL114397   2.642  -0.362   6.435 -0.1325 -0.0547 -0.1584
 1004YOPC   GL214398   2.897  -0.392   6.666  0.0744 -0.0045  0.0526
 1004YOPC   C1A14399   2.465  -0.521   6.884  0.1051 -0.1751 -0.1280
 1004YOPC   D2A14400   2.282  -0.662   7.165 -0.1466 -0.0281  0.2178
 1004YOPC   C3A14401   2.260  -0.603   7.576 -0.0936  0.1453  0.2420
 1004YOPC   C4A14402   2.117  -0.562   8.016 -0.1474  0.2774 -0.0115
 1004YOPC   C1B14403   2.958  -0.488   7.046 -0.0634  0.0433 -0.1445
 1004YOPC   C2B14404   2.738  -0.690   7.433 -0.2438 -0.1286  0.0671
 1004YOPC   D3B14405   2.940  -0.525   7.823  0.3796 -0.0740 -0.3931
 1004YOPC   C4B14406   3.035  -0.221   8.113 -0.0872  0.2189  0.2561
 1005YOPC   NC314407   5.993  17.515   5.871 -0.0756 -0.0951 -0.1753
 1005YOPC   PO414408   5.852  17.335   6.205  0.1355 -0.0702 -0.1517
 1005YOPC   GL114409   5.888  17.207   6.613 -0.0297 -0.1637 -0.1091
 1005YOPC   GL214410   5.992  16.936   6.728 -0.1023  0.1289 -0.0942
 1005YOPC   C1A14411   5.604  17.114   6.954 -0.0180  0.0308  0.0496
 1005YOPC   D2A14412   5.608  17.005   7.397 -0.0983 -0.3000  0.1582
 1005YOPC   C3A14413   5.355  17.016   7.672  0.2073 -0.1191  0.1971
 1005YOPC   C4A14414   5.164  16.902   8.012 -0.1718 -0.0320 -0.0470
 1005YOPC   C1B14415   6.069  17.127   7.065 -0.0626  0.0939  0.1254
 1005YOPC   C2B14416   6.180  17.128   7.473 -0.1368 -0.1474  0.1583
 1005YOPC   D3B14417   5.928  17.118   7.795 -0.1506  0.3186 -0.0946
 1005YOPC   C4B14418   5.671  17.108   8.161  0.1301 -0.2110  0.3707
 1006YOPC   NC314419  15.119  12.109   6.842 -0.0696  0.0660  0.1150
 1006YOPC   PO414420  14.710  12.157   6.760  0.1364  0.1391 -0.1439
 1006YOPC   GL114421  14.756  12.104   7.225 -0.0474 -0.2091 -0.1848
 1006YOPC   GL214422  15.031  12.046   7.344 -0.0991  0.0088 -0.4431
 1006YOPC   C1A14423  14.559  12.056   7.617 -0.0248  0.3883  0.1509
 1006YOPC   D2A14424  14.327  11.776   7.779  0.0829  0.2572  0.0659
 1006YOPC   C3A14425  14.163  11.812   8.137  0.3229  0.3640  0.0805
 1006YOPC   C4A14426  14.052  12.153   8.317 -0.0271 -0.1445 -0.1212
 1006YOPC   C1B14427  15.064  11.935   7.785 -0.2397 -0.2366 -0.0500
 1006YOPC   C2B14428  15.192  11.776   8.227  0.0410  0.1763  0.0971
 1006YOPC   D3B14429  15.401  11.924   8.380  0.1566  0.0396 -0.1583
 1006YOPC   C4B14430  15.665  12.191   8.780  0.0570 -0.2887  0.0028
 1007YOPC   NC314431  12.765   6.603   5.597  0.1412 -0.3444  0.1106
 1007YOPC   PO414432  13.098   6.774   5.879  0.0577  0.3616  0.0147
 1007YOPC   GL114433  13.092   6.997   6.255 -0.2228  0.3515 -0.0932
 1007YOPC   GL214434  13.474   6.964   6.297  0.1165 -0.5625  0.0611
 1007YOPC   C1A14435  13.039   6.991   6.742  0.0257  0.1303  0.0289
 1007YOPC   D2A14436  12.743   7.022   7.016 -0.0604  0.0848 -0.1521
 1007YOPC   C3A14437  12.951   6.922   7.345  0.1584  0.1488 -0.0199
 1007YOPC   C4A14438  13.194   6.661   7.692 -0.3333 -0.1271  0.3526
 1007YOPC   C1B14439  13.522   6.817   6.703 -0.1950 -0.2069  0.1048
 1007YOPC   C2B14440  13.382   6.743   7.208 -0.4814  0.1071 -0.2667
 1007YOPC   D3B14441  13.452   6.349   7.328  0.1334 -0.2958 -0.0326
 1007YOPC   C4B14442  13.498   5.945   7.300 -0.0052 -0.0294 -0.0741
 1008YOPC   NC314443   3.111  14.719   6.066 -0.0526 -0.1058 -0.2148
 1008YOPC   PO414444   2.870  15.107   6.108  0.0733  0.0638 -0.1843
 1008YOPC   GL114445   2.725  15.193   6.601 -0.2484 -0.1557 -0.0241
 1008YOPC   GL214446   2.481  15.058   6.717  0.2143  0.0678  0.0029
 1008YOPC   C1A14447   2.833  15.421   7.004  0.0187  0.0552 -0.1671
 1008YOPC   D2A14448   2.977  15.377   7.453  0.0107 -0.1568  0.1902
 1008YOPC   C3A14449   2.737  15.002   7.618 -0.1234  0.2733  0.2195
 1008YOPC   C4A14450   2.510  14.723   7.911  0.1373 -0.0407  0.3393
 1008YOPC   C1B14451   2.716  14.909   7.045  0.0006  0.0464 -0.3033
 1008YOPC   C2B14452   3.033  14.709   7.285  0.1049  0.1942 -0.2331
 1008YOPC   D3B14453   3.281  14.938   7.589  0.1780  0.0614  0.0540
 1008YOPC   C4B14454   3.641  15.039   7.854 -0.1270  0.0145 -0.0118
 1009YOPC   NC314455   5.793   7.382   5.797 -0.2146  0.0227  0.1145
 1009YOPC   PO414456   6.015   7.687   6.041 -0.2897  0.0915  0.0358
 1009YOPC   GL114457   5.704   7.938   6.512  0.1318  0.0875 -0.0454
 1009YOPC   GL214458   5.407   8.196   6.441 -0.1225 -0.3355  0.1683
 1009YOPC   C1A14459   5.410   7.937   6.876  0.1497  0.0319  0.0267
 1009YOPC   D2A14460   5.115   8.006   7.113  0.2178  0.0318 -0.2512
 1009YOPC   C3A14461   5.083   7.997   7.567 -0.1331 -0.1310 -0.1281
 1009YOPC   C4A14462   5.112   8.129   8.053  0.1082  0.0541  0.2944
 1009YOPC   C1B14463   5.389   8.534   6.793  0.0377  0.1940 -0.1138
 1009YOPC   C2B14464   5.339   8.475   7.243  0.0921  0.0385 -0.1579
 1009YOPC   D3B14465   5.069   8.520   7.556  0.0448 -0.0543  0.0775
 1009YOPC   C4B14466   4.792   8.804   7.838 -0.2551 -0.0616 -0.2012
 1010YOPC   NC314467  15.596   3.761   5.884  0.0697 -0.1355  0.0355
 1010YOPC   PO414468  15.830   4.117   6.171  0.0421  0.0244 -0.2624
 1010YOPC   GL114469  15.902   4.215   6.590 -0.0969  0.1041 -0.2347
 1010YOPC   GL214470  16.192   4.252   6.649 -0.0720 -0.2256  0.0512
 1010YOPC   C1A14471  15.896   4.105   6.980 -0.1583  0.0575  0.2249
 1010YOPC   D2A14472  15.915   3.935   7.276 -0.0290 -0.0640  0.1565
 1010YOPC   C3A14473  16.214   4.149   7.498  0.0526 -0.1019  0.2110
 1010YOPC   C4A14474  16.566   4.432   7.464  0.1506  0.1700  0.2133
 1010YOPC   C1B14475  16.514   4.356   6.980 -0.4912  0.1238  0.4318
 1010YOPC   C2B14476  16.775   4.089   7.211 -0.0909 -0.1746 -0.0643
 1010YOPC   D3B14477  17.137   4.241   7.465  0.0702  0.0448 -0.0014
 1010YOPC   C4B14478  17.378   4.225   7.804  0.1216  0.0204 -0.2559
 1011YOPC   NC314479   2.754   6.230   5.410  0.2966 -0.2994  0.3415
 1011YOPC   PO414480   3.036   5.925   5.667 -0.0929  0.1561  0.1110
 1011YOPC   GL114481   3.037   5.927   6.050 -0.0915 -0.0921  0.1256
 1011YOPC   GL214482   3.307   5.765   6.252  0.0022  0.4063  0.2763
 1011YOPC   C1A14483   2.861   5.893   6.489 -0.3597 -0.5885 -0.1775
 1011YOPC   D2A14484   3.134   6.224   6.840 -0.3530 -0.2749  0.0195
 1011YOPC   C3A14485   3.037   6.419   7.165 -0.4141  0.0016  0.2371
 1011YOPC   C4A14486   3.298   6.697   7.455 -0.1176  0.2227  0.2211
 1011YOPC   C1B14487   3.418   5.999   6.520 -0.1016  0.1505 -0.3987
 1011YOPC   C2B14488   3.709   6.146   6.730  0.0625  0.0745  0.1015
 1011YOPC   D3B14489   3.659   6.274   7.148 -0.1788 -0.0512 -0.1855
 1011YOPC   C4B14490   3.854   6.442   7.481  0.0733 -0.1504 -0.1269
 1012YOPC   NC314491  15.712  17.570   6.157  0.1788 -0.3344 -0.2292
 1012YOPC   PO414492  15.388  17.816   6.094 -0.1197 -0.0523  0.0825
 1012YOPC   GL114493  15.258  17.684   6.460  0.2683  0.2818  0.0554
 1012YOPC   GL214494  14.892  17.784   6.517 -0.4131  0.2391  0.0286
 1012YOPC   C1A14495  15.295  17.615   6.913 -0.1942 -0.2280  0.2040
 1012YOPC   D2A14496  15.292  17.610   7.329  0.4319  0.2285  0.3474
 1012YOPC   C3A14497  14.970  17.605   7.526 -0.3186 -0.0630 -0.1432
 1012YOPC   C4A14498  14.864  17.291   7.720 -0.2102  0.1245 -0.0109
 1012YOPC   C1B14499  14.811  17.954   6.934 -0.0484  0.1104  0.1581
 1012YOPC   C2B14500  15.095  18.040   7.303  0.1522 -0.0245  0.0315
 1012YOPC   D3B14501  14.733  18.142   7.552  0.0098  0.3833  0.4385
 1012YOPC   C4B14502  14.496  18.534   7.719 -0.3895  0.1713  0.2030
 1013YOPC   NC314503   4.892   7.169   5.733 -0.1344  0.1760  0.1749
 1013YOPC   PO414504   4.476   7.135   5.651  0.2592  0.1845  0.1154
 1013YOPC   GL114505   4.544   7.046   6.136  0.0544  0.0582 -0.0361
 1013YOPC   GL214506   4.745   7.245   6.268 -0.0164 -0.0715  0.2683
 1013YOPC   C1A14507   4.439   6.857   6.537  0.0698 -0.0094 -0.4593
 1013YOPC   D2A14508   4.734   6.839   6.894 -0.0238 -0.2062 -0.1963
 1013YOPC   C3A14509   4.754   7.053   7.275 -0.1486 -0.0129 -0.1786
 1013YOPC   C4A14510   4.917   7.219   7.645  0.1540  0.2056 -0.2220
 1013YOPC   C1B14511   4.636   7.563   6.612  0.2548  0.1058  0.0034
 1013YOPC   C2B14512   4.580   7.772   6.997 -0.1617  0.1929  0.1368
 1013YOPC   D3B14513   4.418   7.853   7.336 -0.0831  0.1477  0.0970
 1013YOPC   C4B14514   4.467   7.631   7.817  0.0773  0.0477  0.0325
 1014YOPC   NC314515  15.405  16.671   5.939 -0.4342 -0.0913 -0.0166
 1014YOPC   PO414516  15.118  16.745   6.136 -0.2562  0.1625 -0.0874
 1014YOPC   GL114517  14.891  16.622   6.491  0.0297  0.0334  0.1562
 1014YOPC   GL214518  14.534  16.665   6.572 -0.1672 -0.0852 -0.1295
 1014YOPC   C1A14519  14.947  16.613   6.958 -0.0333 -0.1583  0.0420
 1014YOPC   D2A14520  14.812  16.595   7.432 -0.3362  0.0198  0.1396
 1014YOPC   C3A14521  14.950  16.829   7.626 -0.1341 -0.1309  0.3059
 1014YOPC   C4A14522  15.197  16.933   7.959 -0.0857 -0.0162  0.0897
 1014YOPC   C1B14523  14.468  16.672   6.992 -0.1339  0.1802  0.0757
 1014YOPC   C2B14524  14.167  16.704   7.116 -0.0156  0.0197 -0.2712
 1014YOPC   D3B14525  14.239  16.622   7.461 -0.2837 -0.3026 -0.2100
 1014YOPC   C4B14526  14.464  16.627   7.870 -0.0072 -0.0264 -0.0267
 1015YOPC   NC314527  14.859   7.145   6.262 -0.1999  0.0393  0.1923
 1015YOPC   PO414528  14.890   6.840   5.926 -0.0951 -0.0407  0.1334
 1015YOPC   GL114529  14.882   6.598   6.325  0.1185  0.1553 -0.2766
 1015YOPC   GL214530  14.652   6.418   6.192 -0.0142 -0.1915 -0.1996
 1015YOPC   C1A14531  14.862   6.455   6.734  0.0174 -0.0689  0.0878
 1015YOPC   D2A14532  15.094   6.342   7.020  0.0496  0.1093 -0.0783
 1015YOPC   C3A14533  14.903   6.213   7.415  0.2953  0.0975 -0.2465
 1015YOPC   C4A14534  14.717   5.978   7.819  0.0432  0.0886 -0.2489
 1015YOPC   C1B14535  14.949   6.098   6.424  0.0177  0.1702 -0.1097
 1015YOPC   C2B14536  14.846   5.782   6.732 -0.1112  0.0742  0.0133
 1015YOPC   D3B14537  14.657   5.825   6.983  0.2411 -0.2009  0.1143
 1015YOPC   C4B14538  14.595   5.857   7.309 -0.1927  0.0128 -0.0033
 1016YOPC   NC314539   4.667  10.717   5.989  0.4649  0.1359  0.0128
 1016YOPC   PO414540   4.874  11.109   6.255  0.0419  0.0349  0.0429
 1016YOPC   GL114541   4.900  11.187   6.659  0.3171  0.1883 -0.0565
 1016YOPC   GL214542   5.082  11.477   6.802 -0.2123 -0.2304 -0.0481
 1016YOPC   C1A14543   5.045  10.981   7.017 -0.0639  0.0285  0.1168
 1016YOPC   D2A14544   4.989  10.570   7.262 -0.0535 -0.1240  0.2668
 1016YOPC   C3A14545   4.989  10.437   7.701 -0.1582 -0.2024 -0.0644
 1016YOPC   C4A14546   5.165  10.450   8.071  0.1901  0.0254  0.1096
 1016YOPC   C1B14547   5.055  11.714   7.171  0.0878 -0.1393  0.0715
 1016YOPC   C2B14548   4.883  11.959   7.540 -0.0623  0.4029 -0.3012
 1016YOPC   D3B14549   4.977  11.766   7.794 -0.0718  0.2052 -0.4522
 1016YOPC   C4B14550   4.806  11.741   8.248 -0.0696  0.2745  0.0709
 1017YOPC   NC314551  13.596   0.430   4.926 -0.0954 -0.0971 -0.0307
 1017YOPC   PO414552  13.747   0.520   5.369  0.0232  0.0951 -0.0180
 1017YOPC   GL114553  14.005   0.707   5.800  0.1127  0.2036  0.1815
 1017YOPC   GL214554  13.985   0.481   6.026 -0.0567  0.2053 -0.1492
 1017YOPC   C1A14555  14.085   0.991   6.047  0.0676  0.4881 -0.0342
 1017YOPC   D2A14556  13.852   1.397   6.231 -0.0015 -0.3993  0.0219
 1017YOPC   C3A14557  13.690   1.463   6.622 -0.1821 -0.0511 -0.1895
 1017YOPC   C4A14558  13.443   1.443   7.063 -0.1557 -0.1209 -0.0047
 1017YOPC   C1B14559  14.194   0.627   6.494  0.2601 -0.0470  0.0079
 1017YOPC   C2B14560  14.246   0.751   6.911 -0.0756  0.0371 -0.2261
 1017YOPC   D3B14561  14.032   0.773   7.268  0.0907  0.1359  0.0415
 1017YOPC   C4B14562  14.073   0.984   7.637 -0.0002 -0.0699  0.0690
 1018YOPC   NC314563  11.975  10.723   6.004 -0.1264 -0.3729 -0.0264
 1018YOPC   PO414564  11.640  10.812   6.313  0.2598 -0.0789 -0.0458
 1018YOPC   GL114565  11.563  10.796   6.702  0.0653  0.0006  0.1662
 1018YOPC   GL214566  11.475  11.070   6.780  0.0720 -0.0433 -0.1981
 1018YOPC   C1A14567  11.823  10.543   6.961 -0.0786 -0.0672 -0.0661
 1018YOPC   D2A14568  11.879  10.484   7.276 -0.2169  0.0610  0.2724
 1018YOPC   C3A14569  11.758  10.367   7.782  0.1092  0.0229  0.2724
 1018YOPC   C4A14570  11.594  10.497   8.094  0.0521 -0.0671 -0.0967
 1018YOPC   C1B14571  11.461  10.927   7.154 -0.1952 -0.1837  0.1349
 1018YOPC   C2B14572  11.546  10.743   7.534 -0.0465 -0.0560  0.1039
 1018YOPC   D3B14573  11.321  10.874   7.841  0.1529 -0.2016  0.0676
 1018YOPC   C4B14574  11.371  10.943   8.234  0.2846  0.3350 -0.2230
 1019YOPC   NC314575  10.477   3.896   5.985  0.0514 -0.1017  0.0366
 1019YOPC   PO414576  10.271   3.789   6.370  0.3387  0.2319  0.0779
 1019YOPC   GL114577  10.259   4.023   6.759  0.2567 -0.0526 -0.0924
 1019YOPC   GL214578   9.994   3.874   6.887 -0.2333  0.1435  0.2097
 1019YOPC   C1A14579  10.423   4.184   7.098 -0.0004 -0.2443  0.0158
 1019YOPC   D2A14580  10.559   4.370   7.451 -0.0505 -0.0132  0.0330
 1019YOPC   C3A14581  10.532   4.143   7.827  0.1580  0.3507 -0.2737
 1019YOPC   C4A14582  10.645   4.189   8.305 -0.1927 -0.3701  0.0263
 1019YOPC   C1B14583   9.974   3.631   7.215 -0.1352  0.0662  0.2661
 1019YOPC   C2B14584   9.896   3.457   7.614  0.0686  0.1261  0.0407
 1019YOPC   D3B14585  10.088   3.329   8.032  0.0411  0.2383  0.1568
 1019YOPC   C4B14586  10.255   3.294   8.354  0.2352  0.0582 -0.3803
 1020YOPC   NC314587   8.452  11.965   6.622  0.0533  0.1882  0.1072
 1020YOPC   PO414588   8.490  12.386   6.648 -0.4282  0.0256 -0.1802
 1020YOPC   GL114589   8.393  12.436   7.011  0.2935  0.1411  0.3097
 1020YOPC   GL214590   8.671  12.688   7.030 -0.2090  0.3000  0.2161
 1020YOPC   C1A14591   8.306  12.377   7.407 -0.0299 -0.0046  0.1429
 1020YOPC   D2A14592   8.147  12.323   7.833 -0.1541  0.1054  0.1722
 1020YOPC   C3A14593   8.482  12.211   8.098 -0.1456  0.0274  0.1046
 1020YOPC   C4A14594   8.550  12.259   8.533  0.3995  0.1659  0.1751
 1020YOPC   C1B14595   8.594  12.749   7.524  0.1624 -0.0871 -0.0683
 1020YOPC   C2B14596   8.501  12.662   7.874 -0.1560  0.2102 -0.1587
 1020YOPC   D3B14597   8.707  12.839   8.204 -0.1071 -0.1065  0.0728
 1020YOPC   C4B14598   8.974  12.788   8.565  0.0891 -0.1796  0.0217
 1021YOPC   NC314599   6.111   4.951   6.229  0.2294 -0.0099  0.1199
 1021YOPC   PO414600   6.410   4.720   6.533 -0.0376 -0.0491 -0.2690
 1021YOPC   GL114601   6.193   4.844   6.798 -0.1475 -0.1995 -0.0374
 1021YOPC   GL214602   6.273   4.703   7.115 -0.0127 -0.0569  0.0009
 1021YOPC   C1A14603   6.093   5.244   7.039 -0.1882 -0.0111 -0.1272
 1021YOPC   D2A14604   5.786   5.189   7.466  0.4289 -0.0153  0.1612
 1021YOPC   C3A14605   5.609   5.106   7.741 -0.2841  0.1820  0.1104
 1021YOPC   C4A14606   5.333   4.916   7.975 -0.0864  0.0752  0.0224
 1021YOPC   C1B14607   6.333   4.792   7.513  0.1268 -0.1304 -0.5877
 1021YOPC   C2B14608   6.500   4.457   7.818 -0.0438 -0.1380 -0.0236
 1021YOPC   D3B14609   6.501   4.426   8.277  0.1247 -0.2164  0.0443
 1021YOPC   C4B14610   6.708   4.417   8.563  0.0424 -0.0504  0.1872
 1022YOPC   NC314611   3.467   1.083   5.812 -0.2630 -0.3297  0.5870
 1022YOPC   PO414612   3.783   1.347   5.639  0.0377 -0.1064  0.4367
 1022YOPC   GL114613   3.795   1.354   6.095  0.2880  0.2818  0.0123
 1022YOPC   GL214614   3.515   1.356   6.310  0.0571 -0.0855  0.0182
 1022YOPC   C1A14615   4.036   1.456   6.425 -0.0090  0.0642  0.1991
 1022YOPC   D2A14616   4.190   1.336   6.791 -0.2179 -0.1196 -0.2094
 1022YOPC   C3A14617   4.097   0.928   7.076  0.0811 -0.2511 -0.0095
 1022YOPC   C4A14618   3.964   0.985   7.575  0.2449 -0.0973  0.0037
 1022YOPC   C1B14619   3.676   1.274   6.715  0.0164  0.1877  0.1857
 1022YOPC   C2B14620   3.813   1.326   7.183 -0.2040 -0.1895  0.0144
 1022YOPC   D3B14621   4.281   1.300   7.319 -0.1468  0.2556 -0.3327
 1022YOPC   C4B14622   4.513   1.170   7.737 -0.0453  0.0734 -0.0997
 1023YOPC   NC314623  10.501  16.754   5.961  0.2183 -0.1869  0.0988
 1023YOPC   PO414624  10.494  17.097   6.245  0.0462  0.0281 -0.0377
 1023YOPC   GL114625  10.391  17.169   6.590  0.0792  0.1661  0.0177
 1023YOPC   GL214626  10.177  17.340   6.684  0.0600 -0.1434  0.2763
 1023YOPC   C1A14627  10.654  17.088   6.874 -0.0494  0.0210 -0.2688
 1023YOPC   D2A14628  10.900  16.725   7.166  0.1674 -0.0660  0.0321
 1023YOPC   C3A14629  10.822  16.587   7.583 -0.0674  0.0874  0.3270
 1023YOPC   C4A14630  11.029  16.225   7.900 -0.1973  0.0291 -0.0690
 1023YOPC   C1B14631  10.375  17.451   7.058  0.3508  0.0835 -0.1303
 1023YOPC   C2B14632  10.407  17.583   7.431 -0.4143 -0.2245  0.1042
 1023YOPC   D3B14633  10.304  17.413   7.820  0.2199 -0.2325  0.0327
 1023YOPC   C4B14634  10.396  17.362   8.347 -0.2373 -0.1206 -0.0710
 1024YOPC   NC314635   5.990   1.243   5.900 -0.0380 -0.1920 -0.2339
 1024YOPC   PO414636   6.121   0.984   6.094  0.0254 -0.0830 -0.0998
 1024YOPC   GL114637   5.894   0.860   6.471 -0.2223  0.0484  0.0684
 1024YOPC   GL214638   6.167   0.790   6.628 -0.0947 -0.3602 -0.1145
 1024YOPC   C1A14639   5.691   0.846   6.886 -0.0361 -0.1505 -0.1801
 1024YOPC   D2A14640   5.762   0.643   7.333  0.0789 -0.1788  0.0638
 1024YOPC   C3A14641   5.417   0.569   7.621 -0.1656 -0.2368 -0.3336
 1024YOPC   C4A14642   5.098   0.446   7.887 -0.4796 -0.0912 -0.2409
 1024YOPC   C1B14643   6.181   0.766   7.060  0.2008  0.1508 -0.0762
 1024YOPC   C2B14644   6.212   0.776   7.505 -0.0754  0.0970 -0.0479
 1024YOPC   D3B14645   5.889   0.983   7.720 -0.1151 -0.1547 -0.1604
 1024YOPC   C4B14646   5.486   1.028   7.737  0.1396  0.0812 -0.0297
 1025YOPC   NC314647  10.954   3.618   5.869  0.2345 -0.0467 -0.1402
 1025YOPC   PO414648  10.960   4.095   5.995  0.0977 -0.2163  0.5211
 1025YOPC   GL114649  11.082   3.935   6.371 -0.1788 -0.1172 -0.0097
 1025YOPC   GL214650  10.816   3.758   6.415 -0.0046 -0.0335 -0.1681
 1025YOPC   C1A14651  11.178   3.766   6.764 -0.0480  0.0097 -0.0588
 1025YOPC   D2A14652  11.263   3.464   7.067 -0.1898  0.3356  0.0983
 1025YOPC   C3A14653  11.294   3.587   7.471  0.1386 -0.0136 -0.1631
 1025YOPC   C4A14654  11.029   3.524   7.906 -0.0105  0.2798  0.1236
 1025YOPC   C1B14655  10.802   4.081   6.782  0.0842  0.0840 -0.1184
 1025YOPC   C2B14656  11.174   4.089   7.156  0.2567 -0.3050  0.0618
 1025YOPC   D3B14657  11.073   4.411   7.422  0.3048 -0.0235  0.0738
 1025YOPC   C4B14658  10.925   4.659   7.737 -0.0197  0.0084 -0.2199
 1026YOPC   NC314659  11.180  11.085   6.288  0.1992  0.1194  0.0937
 1026YOPC   PO414660  11.049  10.783   6.615 -0.1860 -0.0932  0.2324
 1026YOPC   GL114661  11.021  10.864   6.959  0.2976  0.1147  0.1038
 1026YOPC   GL214662  10.744  11.023   7.005 -0.0010 -0.2774  0.1145
 1026YOPC   C1A14663  10.976  10.786   7.416  0.0397  0.0611  0.0954
 1026YOPC   D2A14664  10.832  11.064   7.780  0.1234  0.1505  0.1892
 1026YOPC   C3A14665  10.577  11.051   8.162 -0.1444  0.1435 -0.1656
 1026YOPC   C4A14666  10.578  10.911   8.475 -0.1260  0.3769  0.1753
 1026YOPC   C1B14667  10.551  11.155   7.378  0.0401  0.4278 -0.2196
 1026YOPC   C2B14668  10.300  11.376   7.718  0.0739 -0.0913 -0.0507
 1026YOPC   D3B14669  10.168  11.364   8.078  0.0858 -0.0833  0.1246
 1026YOPC   C4B14670  10.248  11.761   8.419 -0.1327  0.0757  0.0374
 1027YOPC   NC314671   0.179   7.923   5.993  0.0125 -0.2209 -0.0471
 1027YOPC   PO414672   0.351   7.556   6.103 -0.0570 -0.1713 -0.0202
 1027YOPC   GL114673   0.124   7.381   6.416 -0.0379  0.2158  0.1348
 1027YOPC   GL214674  -0.204   7.309   6.529  0.2106  0.2390  0.1405
 1027YOPC   C1A14675   0.139   7.162   6.790  0.0420 -0.0292  0.0235
 1027YOPC   D2A14676   0.131   7.252   7.240 -0.1368  0.1486  0.1764
 1027YOPC   C3A14677   0.386   7.053   7.639  0.1185  0.0210  0.1327
 1027YOPC   C4A14678   0.601   6.768   7.891 -0.1316 -0.0404 -0.1856
 1027YOPC   C1B14679  -0.360   7.204   6.958 -0.3743 -0.1211 -0.3396
 1027YOPC   C2B14680  -0.342   7.018   7.296  0.0125 -0.1896 -0.1188
 1027YOPC   D3B14681  -0.064   6.825   7.584 -0.2770 -0.0425  0.2253
 1027YOPC   C4B14682   0.193   6.519   7.667 -0.0109 -0.2226 -0.1934
 1028YOPC   NC314683   0.821   3.949   5.558 -0.1631  0.1720 -0.2439
 1028YOPC   PO414684   0.774   3.715   5.934 -0.1691  0.0743  0.0889
 1028YOPC   GL114685   0.642   3.363   6.232 -0.0499  0.1108  0.0879
 1028YOPC   GL214686   0.547   3.498   6.507  0.2214  0.2114  0.1312
 1028YOPC   C1A14687   0.755   3.006   6.446  0.1433 -0.0357 -0.0840
 1028YOPC   D2A14688   0.904   2.626   6.315  0.2255 -0.2861 -0.4298
 1028YOPC   C3A14689   0.969   2.125   6.435 -0.0446  0.1588 -0.1837
 1028YOPC   C4A14690   1.032   1.772   6.643 -0.1415 -0.2408 -0.0875
 1028YOPC   C1B14691   0.488   3.483   6.940  0.1168  0.1812 -0.0591
 1028YOPC   C2B14692   0.607   3.305   7.353 -0.1349  0.2541 -0.1444
 1028YOPC   D3B14693   0.417   3.186   7.818  0.3934  0.0013 -0.1853
 1028YOPC   C4B14694   0.178   3.310   8.148 -0.1731  0.0111  0.0015
 1029YOPC   NC314695   2.229   4.934   6.108 -0.0830 -0.2122  0.0978
 1029YOPC   PO414696   1.822   4.885   6.091  0.0382 -0.1029  0.0330
 1029YOPC   GL114697   1.657   4.976   6.462  0.0289  0.1102 -0.4638
 1029YOPC   GL214698   1.830   5.185   6.570 -0.1024 -0.1293 -0.0512
 1029YOPC   C1A14699   1.608   5.206   7.021  0.0559  0.1982  0.2611
 1029YOPC   D2A14700   1.613   5.510   7.330  0.0896 -0.0321 -0.1538
 1029YOPC   C3A14701   1.300   5.522   7.756 -0.2685  0.2766 -0.6458
 1029YOPC   C4A14702   1.418   5.429   8.172  0.0593 -0.1004  0.3118
 1029YOPC   C1B14703   2.100   5.457   6.896 -0.0839 -0.1240 -0.0018
 1029YOPC   C2B14704   2.130   5.392   7.393 -0.0560 -0.0674  0.0221
 1029YOPC   D3B14705   2.189   5.547   7.816 -0.1874 -0.1882  0.0929
 1029YOPC   C4B14706   2.078   5.375   8.221  0.0512 -0.0947 -0.1286
 1030YOPC   NC314707  16.851   5.007   5.756 -0.3352 -0.0908  0.0220
 1030YOPC   PO414708  16.968   4.698   6.145 -0.2818  0.2564 -0.2468
 1030YOPC   GL114709  16.687   4.951   6.355 -0.0609 -0.0059  0.2950
 1030YOPC   GL214710  16.872   5.176   6.235  0.0643 -0.2154 -0.4019
 1030YOPC   C1A14711  16.338   4.905   6.696  0.2209  0.0843 -0.2815
 1030YOPC   D2A14712  16.122   4.646   6.944  0.0580 -0.0075 -0.0836
 1030YOPC   C3A14713  16.147   4.666   7.402 -0.0589  0.2314 -0.1068
 1030YOPC   C4A14714  16.078   4.669   7.787 -0.0840 -0.2240  0.1894
 1030YOPC   C1B14715  16.916   5.358   6.548  0.0935  0.2064  0.1470
 1030YOPC   C2B14716  16.858   5.379   7.050 -0.2740  0.2040  0.2283
 1030YOPC   D3B14717  16.646   5.480   7.406 -0.0496  0.0404 -0.2387
 1030YOPC   C4B14718  16.672   5.462   7.855  0.1262 -0.0116 -0.1848
 1031YOPC   NC314719  17.796  11.085   6.006  0.0154 -0.0137  0.1595
 1031YOPC   PO414720  17.734  10.635   5.900  0.1082 -0.1172 -0.5003
 1031YOPC   GL114721  17.627  10.595   6.351  0.2006 -0.3862 -0.1067
 1031YOPC   GL214722  17.872  10.427   6.591 -0.2330 -0.1145  0.0523
 1031YOPC   C1A14723  17.463  10.652   6.798 -0.0145 -0.0119  0.0977
 1031YOPC   D2A14724  17.618  10.723   7.222 -0.1467 -0.2090 -0.1485
 1031YOPC   C3A14725  17.839  10.573   7.623 -0.0357  0.2729 -0.1066
 1031YOPC   C4A14726  17.650  10.644   8.051 -0.0405 -0.1637 -0.0977
 1031YOPC   C1B14727  17.817  10.264   7.100 -0.4820 -0.0700  0.1504
 1031YOPC   C2B14728  17.827  10.039   7.475  0.2178 -0.1209  0.0089
 1031YOPC   D3B14729  17.821  10.136   7.929  0.2409 -0.1069 -0.0351
 1031YOPC   C4B14730  17.842  10.164   8.371  0.1877 -0.0014 -0.2449
 1032YOPC   NC314731   5.120   4.964   6.200 -0.0831  0.1639 -0.0373
 1032YOPC   PO414732   5.173   4.559   6.303 -0.1661 -0.0326 -0.0563
 1032YOPC   GL114733   5.374   4.485   6.708  0.2669  0.1714 -0.2802
 1032YOPC   GL214734   5.519   4.282   6.690  0.2737 -0.2228 -0.2006
 1032YOPC   C1A14735   5.357   4.444   7.176  0.0153 -0.0691  0.3471
 1032YOPC   D2A14736   5.651   4.167   7.489 -0.0690 -0.1975 -0.0140
 1032YOPC   C3A14737   5.529   4.094   7.948 -0.2438 -0.0480  0.2080
 1032YOPC   C4A14738   5.518   4.347   8.280 -0.1789 -0.1651 -0.2245
 1032YOPC   C1B14739   5.593   4.013   6.937  0.0731 -0.0505 -0.0973
 1032YOPC   C2B14740   5.501   3.673   7.299 -0.2327  0.2838  0.0660
 1032YOPC   D3B14741   5.431   3.612   7.721 -0.0971  0.1334 -0.0734
 1032YOPC   C4B14742   5.431   3.301   7.932  0.1984 -0.0453 -0.2491
 1033YOPC   NC314743   2.311   8.828   5.450 -0.0343  0.0336 -0.1029
 1033YOPC   PO414744   2.253   9.187   5.720 -0.0019 -0.1914 -0.0506
 1033YOPC   GL114745   2.312   8.847   6.023 -0.0664  0.0455 -0.0603
 1033YOPC   GL214746   2.144   8.898   6.259 -0.0846 -0.1820 -0.0347
 1033YOPC   C1A14747   2.420   8.604   6.450  0.2120  0.0109 -0.0245
 1033YOPC   D2A14748   2.312   8.622   6.819  0.0116 -0.0722  0.2284
 1033YOPC   C3A14749   2.410   8.476   7.192 -0.2552  0.0557 -0.0052
 1033YOPC   C4A14750   2.378   8.223   7.532  0.0477  0.0313 -0.1195
 1033YOPC   C1B14751   1.849   8.634   6.464 -0.2847 -0.1675  0.1275
 1033YOPC   C2B14752   1.799   8.507   6.895 -0.0539 -0.0540  0.2315
 1033YOPC   D3B14753   1.625   8.267   7.033 -0.3436 -0.1590 -0.0946
 1033YOPC   C4B14754   1.249   8.119   7.043  0.5087 -0.1141  0.1901
 1034YOPC   NC314755  13.515  12.492   6.428  0.0384 -0.1908 -0.0916
 1034YOPC   PO414756  13.910  12.234   6.443 -0.1136 -0.0153  0.4502
 1034YOPC   GL114757  13.938  12.164   6.813  0.2313 -0.3169 -0.0527
 1034YOPC   GL214758  14.271  12.144   6.953 -0.2603  0.1565 -0.0123
 1034YOPC   C1A14759  13.810  12.480   7.118 -0.3287  0.1314  0.1296
 1034YOPC   D2A14760  13.738  12.551   7.533 -0.1047 -0.0862 -0.0997
 1034YOPC   C3A14761  13.678  12.853   7.930 -0.0027  0.1411 -0.1906
 1034YOPC   C4A14762  13.397  13.215   8.053  0.2716 -0.3541  0.0767
 1034YOPC   C1B14763  14.240  12.416   7.333  0.0746  0.0662 -0.1446
 1034YOPC   C2B14764  14.373  12.668   7.753 -0.3068  0.0690 -0.0243
 1034YOPC   D3B14765  14.157  12.993   7.904  0.1975 -0.1299 -0.1091
 1034YOPC   C4B14766  13.840  13.326   7.821  0.0293 -0.1447  0.0340
 1035YOPC   NC314767   6.244  16.504   6.065  0.0586  0.0554  0.0956
 1035YOPC   PO414768   6.192  16.098   6.127 -0.1794  0.1305  0.2215
 1035YOPC   GL114769   6.234  15.858   6.582 -0.0180 -0.1929  0.2568
 1035YOPC   GL214770   5.933  15.972   6.802 -0.1767 -0.1433  0.0325
 1035YOPC   C1A14771   6.583  15.828   6.842 -0.1877 -0.1286  0.1242
 1035YOPC   D2A14772   6.537  15.925   7.208  0.1438 -0.0251  0.2731
 1035YOPC   C3A14773   6.453  16.020   7.592 -0.2354  0.1271  0.1573
 1035YOPC   C4A14774   6.146  16.227   7.766  0.1116  0.0648  0.0660
 1035YOPC   C1B14775   5.983  16.088   7.173 -0.1293  0.2033  0.0138
 1035YOPC   C2B14776   5.582  16.200   7.393  0.0423 -0.2156 -0.0495
 1035YOPC   D3B14777   5.599  16.156   7.778 -0.2060  0.5758 -0.2426
 1035YOPC   C4B14778   5.584  16.091   8.190  0.2001  0.1793 -0.2166
 1036YOPC   NC314779   4.591   3.838   5.994  0.0409 -0.1598  0.1204
 1036YOPC   PO414780   4.824   3.481   5.872 -0.1327 -0.0183 -0.2037
 1036YOPC   GL114781   5.087   3.171   6.188  0.2187  0.1998 -0.2365
 1036YOPC   GL214782   4.943   2.884   6.261 -0.0355 -0.0337 -0.1631
 1036YOPC   C1A14783   5.526   3.275   6.421  0.0653  0.1741 -0.2123
 1036YOPC   D2A14784   5.865   3.329   6.653 -0.1002  0.2167 -0.0012
 1036YOPC   C3A14785   5.903   3.194   7.081 -0.3228 -0.1250  0.0162
 1036YOPC   C4A14786   5.810   3.322   7.547 -0.0907 -0.1091 -0.1847
 1036YOPC   C1B14787   5.054   2.959   6.638 -0.0414  0.0585 -0.2932
 1036YOPC   C2B14788   4.954   2.860   7.126 -0.2669  0.1237 -0.0660
 1036YOPC   D3B14789   4.916   2.859   7.611 -0.1714 -0.1656  0.1433
 1036YOPC   C4B14790   4.934   3.110   7.959  0.1407 -0.1625 -0.0985
 1037YOPC   NC314791   8.595   3.929   6.049  0.0226 -0.5673  0.0281
 1037YOPC   PO414792   8.138   3.978   6.174 -0.1733 -0.4874  0.1045
 1037YOPC   GL114793   8.045   3.831   6.548 -0.2089  0.1553  0.1782
 1037YOPC   GL214794   8.064   3.923   6.819 -0.1264  0.0415 -0.1736
 1037YOPC   C1A14795   8.156   3.413   6.830  0.0996 -0.0586  0.0682
 1037YOPC   D2A14796   8.091   3.124   7.132 -0.0062  0.2276 -0.2639
 1037YOPC   C3A14797   8.101   3.197   7.532 -0.0490  0.0976 -0.2409
 1037YOPC   C4A14798   8.024   3.131   7.943 -0.3524  0.0099 -0.0807
 1037YOPC   C1B14799   8.464   3.774   6.971 -0.0783 -0.0579 -0.0363
 1037YOPC   C2B14800   8.726   4.038   7.280  0.0923 -0.0782  0.1117
 1037YOPC   D3B14801   8.695   4.007   7.776  0.1610 -0.0361 -0.1625
 1037YOPC   C4B14802   8.762   3.727   8.180 -0.4044  0.0902  0.0396
 1038YOPC   NC314803   1.788   0.781   5.816  0.0594  0.1169 -0.1759
 1038YOPC   PO414804   1.702   1.046   6.160  0.3909  0.0599 -0.4265
 1038YOPC   GL114805   1.654   1.292   6.579  0.0945  0.0790  0.3952
 1038YOPC   GL214806   1.320   1.469   6.458 -0.0650  0.0348  0.0434
 1038YOPC   C1A14807   1.776   1.404   6.995  0.0525  0.1896  0.1645
 1038YOPC   D2A14808   1.897   1.626   7.461 -0.0162  0.2025 -0.2713
 1038YOPC   C3A14809   1.931   1.978   7.731 -0.0213 -0.0628  0.3210
 1038YOPC   C4A14810   1.965   2.015   8.195  0.2008 -0.2835  0.3961
 1038YOPC   C1B14811   1.269   1.417   6.888 -0.2063 -0.2317  0.0421
 1038YOPC   C2B14812   1.412   1.455   7.347 -0.0705 -0.4567 -0.2165
 1038YOPC   D3B14813   1.528   1.629   7.761  0.0183 -0.0409  0.1104
 1038YOPC   C4B14814   1.534   1.773   8.119  0.1149 -0.0829  0.1168
 1039YOPC   NC314815  10.693  10.548   6.306 -0.0917 -0.2288 -0.2301
 1039YOPC   PO414816  10.999  10.305   6.487 -0.1155  0.0754  0.3116
 1039YOPC   GL114817  10.843  10.305   6.821  0.1241  0.1649  0.0548
 1039YOPC   GL214818  10.610  10.613   6.831 -0.0711 -0.0952  0.0776
 1039YOPC   C1A14819  10.709  10.030   7.075  0.1205 -0.1800 -0.1837
 1039YOPC   D2A14820  10.665   9.963   7.499  0.2730 -0.1329  0.1461
 1039YOPC   C3A14821  10.572  10.203   7.777  0.5267  0.0810 -0.0720
 1039YOPC   C4A14822  10.395  10.438   8.224  0.0914 -0.0286 -0.1959
 1039YOPC   C1B14823  10.588  10.480   7.262 -0.0457 -0.0885  0.3845
 1039YOPC   C2B14824  10.521  10.730   7.571  0.0976  0.1248 -0.0256
 1039YOPC   D3B14825  10.769  10.624   7.989 -0.1675 -0.0834 -0.1191
 1039YOPC   C4B14826  10.957  10.534   8.380 -0.1015 -0.1546 -0.0935
 1040YOPC   NC314827   2.962   4.537   6.104  0.2306 -0.1359  0.2096
 1040YOPC   PO414828   2.720   4.994   6.137 -0.0874  0.0701 -0.0014
 1040YOPC   GL114829   3.010   4.903   6.547 -0.1723  0.1576  0.0289
 1040YOPC   GL214830   3.381   4.920   6.471  0.2344 -0.0303 -0.0970
 1040YOPC   C1A14831   2.995   4.799   6.895  0.0211 -0.0836 -0.1839
 1040YOPC   D2A14832   2.694   4.746   7.220 -0.4462 -0.2607  0.0801
 1040YOPC   C3A14833   2.500   5.043   7.413 -0.1077  0.1041 -0.0115
 1040YOPC   C4A14834   2.636   5.301   7.793  0.1164  0.1748 -0.1268
 1040YOPC   C1B14835   3.421   5.151   6.827 -0.2508 -0.1407 -0.0332
 1040YOPC   C2B14836   3.485   5.242   7.259 -0.0215  0.1696 -0.1813
 1040YOPC   D3B14837   3.555   4.960   7.573  0.0301 -0.0509 -0.0848
 1040YOPC   C4B14838   3.360   4.758   7.984 -0.0777 -0.0967  0.0616
 1041YOPC   NC314839   8.917   9.567   6.251 -0.0044  0.2054  0.0239
 1041YOPC   PO414840   9.110   9.211   6.313 -0.2022 -0.0832  0.0121
 1041YOPC   GL114841   8.990   9.019   6.765  0.2980  0.2004 -0.0835
 1041YOPC   GL214842   8.706   9.035   6.896  0.0621  0.0919  0.1833
 1041YOPC   C1A14843   9.095   8.960   7.278 -0.1106  0.0015  0.1159
 1041YOPC   D2A14844   8.912   9.063   7.504  0.0027  0.0868 -0.4673
 1041YOPC   C3A14845   8.845   8.885   7.999 -0.1690 -0.0819 -0.0209
 1041YOPC   C4A14846   8.832   8.523   8.255  0.4745 -0.1540  0.0291
 1041YOPC   C1B14847   8.632   9.322   7.215  0.0943  0.2978 -0.3073
 1041YOPC   C2B14848   8.370   9.268   7.586 -0.1472  0.0512  0.2977
 1041YOPC   D3B14849   8.484   9.353   8.008 -0.0050  0.0064 -0.0874
 1041YOPC   C4B14850   8.574   9.458   8.423 -0.0888 -0.1271  0.2110
 1042YOPC   NC314851   9.238  16.964   5.308 -0.0189  0.1758 -0.1391
 1042YOPC   PO414852   9.052  16.929   5.786 -0.0592  0.1777  0.0158
 1042YOPC   GL114853   8.798  17.041   6.239 -0.1590 -0.1119  0.1475
 1042YOPC   GL214854   8.733  17.360   6.178  0.0061 -0.2215 -0.1485
 1042YOPC   C1A14855   8.905  17.071   6.642 -0.1252 -0.1330  0.1875
 1042YOPC   D2A14856   9.359  17.047   6.789 -0.0507 -0.0643  0.0875
 1042YOPC   C3A14857   9.391  17.005   7.174  0.0828  0.2842  0.3821
 1042YOPC   C4A14858   9.062  16.854   7.511  0.0254 -0.1552 -0.1544
 1042YOPC   C1B14859   8.582  17.439   6.607 -0.0129  0.0739 -0.2501
 1042YOPC   C2B14860   8.281  17.586   6.918 -0.0704 -0.1264 -0.0603
 1042YOPC   D3B14861   8.417  17.688   7.311  0.2404 -0.1097  0.0418
 1042YOPC   C4B14862   8.461  17.688   7.693 -0.0993  0.1043 -0.2454
 1043YOPC   NC314863   6.904  13.100   6.094 -0.0714 -0.0355 -0.0282
 1043YOPC   PO414864   7.224  13.067   6.492 -0.0760  0.2366  0.0398
 1043YOPC   GL114865   6.932  13.247   6.642  0.0600 -0.2180  0.1312
 1043YOPC   GL214866   7.050  13.494   6.717  0.0552  0.3602 -0.1583
 1043YOPC   C1A14867   6.776  12.966   7.029 -0.0199  0.1234 -0.1149
 1043YOPC   D2A14868   6.707  12.721   7.362 -0.1350 -0.0269  0.1715
 1043YOPC   C3A14869   6.825  12.854   7.739  0.1056 -0.0694 -0.2527
 1043YOPC   C4A14870   6.653  12.943   8.218  0.1654 -0.0955 -0.0567
 1043YOPC   C1B14871   7.211  13.252   7.078  0.3832 -0.0296  0.6549
 1043YOPC   C2B14872   7.397  13.366   7.368  0.2099  0.3404 -0.0336
 1043YOPC   D3B14873   7.319  13.555   7.809 -0.0042  0.1223  0.1240
 1043YOPC   C4B14874   7.194  13.514   8.257 -0.0960  0.1950  0.0651
 1044YOPC   NC314875  10.750   6.493   6.449 -0.1546 -0.2321  0.0684
 1044YOPC   PO414876  10.902   6.855   6.226 -0.3797 -0.2036  0.1070
 1044YOPC   GL114877  11.215   6.754   6.662  0.5906 -0.2142 -0.1041
 1044YOPC   GL214878  11.052   6.537   6.817 -0.1163 -0.0186  0.0168
 1044YOPC   C1A14879  11.255   6.824   7.134 -0.3967 -0.0270  0.1606
 1044YOPC   D2A14880  11.363   6.831   7.542  0.1058 -0.1707 -0.3625
 1044YOPC   C3A14881  11.678   6.588   7.772 -0.1500  0.1343 -0.2012
 1044YOPC   C4A14882  11.879   6.238   7.980 -0.2698 -0.2136  0.2918
 1044YOPC   C1B14883  10.971   6.489   7.300 -0.0470  0.0224 -0.2146
 1044YOPC   C2B14884  10.906   6.542   7.777 -0.0538  0.2380 -0.2187
 1044YOPC   D3B14885  11.263   6.593   8.056  0.0635 -0.3461  0.0133
 1044YOPC   C4B14886  11.202   6.850   8.448  0.0579 -0.0752 -0.0324
 1045YOPC   NC314887  17.384   5.362   5.613  0.0911  0.0003  0.0909
 1045YOPC   PO414888  17.002   5.473   5.709 -0.1550 -0.1112 -0.1879
 1045YOPC   GL114889  17.310   5.353   6.127 -0.3161 -0.0933  0.2322
 1045YOPC   GL214890  17.446   5.080   6.082  0.0209  0.1137 -0.0017
 1045YOPC   C1A14891  17.416   5.321   6.575 -0.3104  0.2645  0.0104
 1045YOPC   D2A14892  17.340   5.199   6.992 -0.2806  0.0828 -0.1544
 1045YOPC   C3A14893  17.187   4.991   7.353  0.1249  0.0106  0.0365
 1045YOPC   C4A14894  17.098   4.646   7.700 -0.1746  0.1431 -0.0188
 1045YOPC   C1B14895  17.823   5.182   6.278 -0.2066  0.1964  0.0786
 1045YOPC   C2B14896  18.251   5.304   6.491 -0.2627  0.0690  0.3019
 1045YOPC   D3B14897  18.288   5.457   6.827  0.2406  0.1366 -0.1928
 1045YOPC   C4B14898  18.421   5.481   7.099  0.1229 -0.1736  0.0605
 1046YOPC   NC314899   7.499   7.766   6.227  0.1912 -0.2665 -0.0367
 1046YOPC   PO414900   7.135   7.649   6.447  0.0741 -0.0003 -0.0260
 1046YOPC   GL114901   7.098   7.520   6.801 -0.1307  0.0451 -0.0051
 1046YOPC   GL214902   7.194   7.301   6.949 -0.1433 -0.1002 -0.0430
 1046YOPC   C1A14903   6.985   7.552   7.352 -0.0750  0.3126 -0.0083
 1046YOPC   D2A14904   7.044   7.532   7.768  0.0450 -0.3560 -0.2334
 1046YOPC   C3A14905   7.435   7.425   8.058  0.0669  0.3126 -0.0118
 1046YOPC   C4A14906   7.938   7.504   8.181  0.0219  0.3156  0.1501
 1046YOPC   C1B14907   7.291   7.053   7.315  0.2209 -0.1055  0.0505
 1046YOPC   C2B14908   7.462   6.912   7.752 -0.0619  0.0711  0.2266
 1046YOPC   D3B14909   7.104   6.603   7.892 -0.1318  0.3881 -0.2960
 1046YOPC   C4B14910   6.660   6.792   8.028 -0.0154  0.0340 -0.3302
 1047YOPC   NC314911  17.403  11.975   5.941  0.0196 -0.0012 -0.0591
 1047YOPC   PO414912  17.136  11.956   6.244  0.0538 -0.2804  0.0008
 1047YOPC   GL114913  17.127  11.859   6.567  0.0071 -0.0064 -0.2254
 1047YOPC   GL214914  17.030  11.504   6.728 -0.1642 -0.2624  0.1495
 1047YOPC   C1A14915  17.103  11.828   7.096  0.3893 -0.0317  0.1485
 1047YOPC   D2A14916  17.107  11.832   7.581 -0.1222  0.2789  0.1885
 1047YOPC   C3A14917  17.254  11.554   7.906 -0.4356 -0.1110 -0.1845
 1047YOPC   C4A14918  17.108  11.251   8.294 -0.0722 -0.0207 -0.1060
 1047YOPC   C1B14919  16.795  11.275   7.008  0.1795  0.3439  0.1364
 1047YOPC   C2B14920  16.828  11.011   7.152 -0.2629 -0.1670 -0.1760
 1047YOPC   D3B14921  17.022  10.733   7.255  0.0505 -0.3397 -0.0193
 1047YOPC   C4B14922  17.263  10.401   7.179 -0.1421  0.1770 -0.2121
 1048YOPC   NC314923  14.600  14.891   6.399  0.1557  0.2818 -0.0538
 1048YOPC   PO414924  14.324  15.248   6.317 -0.0506 -0.1239 -0.3010
 1048YOPC   GL114925  14.532  15.311   6.716 -0.1698 -0.2016  0.0750
 1048YOPC   GL214926  14.767  15.541   6.651 -0.4793  0.1849  0.2167
 1048YOPC   C1A14927  14.412  15.267   7.098  0.0381 -0.0592  0.1855
 1048YOPC   D2A14928  14.379  15.338   7.509 -0.1904  0.1106  0.2766
 1048YOPC   C3A14929  14.475  15.075   7.820  0.3395 -0.1805  0.1889
 1048YOPC   C4A14930  14.275  14.876   8.115  0.1878 -0.0189  0.3540
 1048YOPC   C1B14931  14.782  15.724   6.932 -0.3482  0.0051 -0.2793
 1048YOPC   C2B14932  14.683  15.701   7.357  0.1460 -0.0586 -0.0452
 1048YOPC   D3B14933  14.867  16.049   7.612 -0.1274  0.2098 -0.0366
 1048YOPC   C4B14934  15.272  16.194   7.706  0.3716  0.0005  0.0279
 1049YOPC   NC314935   0.141   9.379   5.815 -0.1161 -0.0894 -0.0111
 1049YOPC   PO414936   0.142   9.806   5.862  0.0241 -0.0059  0.3404
 1049YOPC   GL114937   0.111   9.649   6.282 -0.0425 -0.0797  0.5531
 1049YOPC   GL214938   0.184   9.874   6.483 -0.0923 -0.0955 -0.0637
 1049YOPC   C1A14939  -0.233   9.711   6.688 -0.0287  0.0498 -0.0541
 1049YOPC   D2A14940  -0.261   9.483   7.043 -0.0316  0.1840 -0.3217
 1049YOPC   C3A14941  -0.288   9.572   7.493  0.0355 -0.2101  0.0621
 1049YOPC   C4A14942  -0.266   9.373   7.910 -0.1545 -0.2543 -0.4212
 1049YOPC   C1B14943   0.202   9.796   6.944  0.2176  0.1058  0.1216
 1049YOPC   C2B14944   0.154   9.625   7.293  0.0448  0.0839 -0.2449
 1049YOPC   D3B14945   0.228   9.637   7.734 -0.3058 -0.2389 -0.4181
 1049YOPC   C4B14946   0.119   9.679   8.189  0.1456  0.0647 -0.2361
 1050YOPC   NC314947   0.711  10.586   5.508  0.0164 -0.1859  0.1194
 1050YOPC   PO414948   0.655  10.398   5.888 -0.0160 -0.1277  0.0164
 1050YOPC   GL114949   0.964  10.194   6.303 -0.0062  0.1975 -0.0021
 1050YOPC   GL214950   1.177   9.977   6.414 -0.2556 -0.0909  0.1071
 1050YOPC   C1A14951   1.040  10.346   6.726 -0.0769  0.1093 -0.1054
 1050YOPC   D2A14952   0.855  10.618   7.031 -0.1828  0.0460  0.1926
 1050YOPC   C3A14953   0.965  10.581   7.390 -0.0802 -0.0121 -0.2450
 1050YOPC   C4A14954   1.309  10.575   7.664 -0.1096 -0.0636 -0.2313
 1050YOPC   C1B14955   1.172   9.584   6.654  0.1555 -0.0701  0.0145
 1050YOPC   C2B14956   1.483   9.375   6.956  0.0387 -0.3212  0.1694
 1050YOPC   D3B14957   1.567   9.180   7.380 -0.2212 -0.2207 -0.0738
 1050YOPC   C4B14958   1.419   8.933   7.693  0.1828  0.0886 -0.1366
 1051YOPC   NC314959   5.149  15.239   6.038 -0.0839 -0.0119 -0.0639
 1051YOPC   PO414960   5.350  14.901   6.282 -0.0118 -0.1292 -0.1509
 1051YOPC   GL114961   5.412  14.762   6.628 -0.0416  0.1176 -0.2652
 1051YOPC   GL214962   5.418  15.060   6.795  0.2405  0.3127  0.0278
 1051YOPC   C1A14963   5.596  14.535   6.974  0.1632  0.0252 -0.3912
 1051YOPC   D2A14964   5.539  14.487   7.419  0.1419  0.2404 -0.2618
 1051YOPC   C3A14965   5.120  14.410   7.570 -0.0702 -0.0774 -0.3005
 1051YOPC   C4A14966   4.798  14.431   7.651  0.1398  0.1930 -0.0440
 1051YOPC   C1B14967   5.194  15.221   6.990 -0.0742  0.4272  0.1232
 1051YOPC   C2B14968   4.902  15.207   7.282 -0.0447  0.0822  0.0648
 1051YOPC   D3B14969   5.084  15.201   7.676 -0.3807  0.1180  0.4470
 1051YOPC   C4B14970   5.175  15.324   8.078  0.0293  0.1528  0.0369
 1052YOPC   NC314971   9.146   7.324   5.798 -0.3770 -0.1973 -0.1807
 1052YOPC   PO414972   8.946   7.241   6.249  0.1530 -0.2428  0.0748
 1052YOPC   GL114973   8.890   7.105   6.663 -0.2543  0.0176  0.2723
 1052YOPC   GL214974   8.631   7.234   6.884 -0.3164  0.2187 -0.1261
 1052YOPC   C1A14975   9.081   7.013   7.070  0.0440  0.0334  0.3147
 1052YOPC   D2A14976   9.089   6.885   7.421 -0.0191  0.0179  0.0632
 1052YOPC   C3A14977   8.916   7.067   7.779  0.2072 -0.0588 -0.3339
 1052YOPC   C4A14978   8.768   7.268   8.171 -0.0504  0.1280 -0.2730
 1052YOPC   C1B14979   8.644   7.331   7.342 -0.1686 -0.1003 -0.2992
 1052YOPC   C2B14980   8.871   7.539   7.764  0.1581 -0.1042 -0.1713
 1052YOPC   D3B14981   8.957   7.771   8.114  0.1660 -0.0186  0.3227
 1052YOPC   C4B14982   9.158   7.608   8.455 -0.1449  0.0807 -0.0684
 1053YOPC   NC314983   2.616   9.908   6.171 -0.4131  0.0458  0.0437
 1053YOPC   PO414984   2.793  10.293   6.108  0.0857 -0.2629 -0.3674
 1053YOPC   GL114985   2.756  10.461   6.450  0.0112 -0.0409 -0.2240
 1053YOPC   GL214986   2.749  10.712   6.482  0.1845  0.0405  0.0503
 1053YOPC   C1A14987   2.946  10.529   6.949 -0.0594 -0.1028 -0.0632
 1053YOPC   D2A14988   3.063  10.539   7.417  0.0737 -0.1959  0.0881
 1053YOPC   C3A14989   2.933  10.403   7.733 -0.0041 -0.0860 -0.1255
 1053YOPC   C4A14990   2.798  10.329   8.242 -0.0424 -0.5750 -0.1935
 1053YOPC   C1B14991   2.727  11.017   6.833  0.1138 -0.0270  0.0881
 1053YOPC   C2B14992   2.842  10.947   7.244 -0.2770 -0.1690 -0.2028
 1053YOPC   D3B14993   2.738  11.157   7.677 -0.1787  0.2888 -0.0214
 1053YOPC   C4B14994   2.877  11.192   8.120  0.1571  0.4280  0.0489
 1054YOPC   NC314995   9.966   8.780   6.108  0.2478 -0.1286  0.2191
 1054YOPC   PO414996   9.858   8.320   6.109  0.0474  0.1063  0.0471
 1054YOPC   GL114997   9.866   8.204   6.579 -0.1592  0.0905 -0.4147
 1054YOPC   GL214998   9.590   8.055   6.540 -0.1350 -0.0837  0.0135
 1054YOPC   C1A14999   9.777   8.300   7.005 -0.3700 -0.0292  0.0990
 1054YOPC   D2A15000   9.630   8.367   7.420  0.1571  0.2128 -0.2233
 1054YOPC   C3A15001   9.513   8.770   7.528  0.0293  0.0650 -0.0539
 1054YOPC   C4A15002   9.331   9.048   7.801 -0.0863 -0.1229  0.0411
 1054YOPC   C1B15003   9.311   7.810   6.574  0.0054  0.0788 -0.3287
 1054YOPC   C2B15004   9.146   7.506   6.766  0.0042  0.1312  0.0257
 1054YOPC   D3B15005   9.084   7.479   7.108  0.1104 -0.2930 -0.0672
 1054YOPC   C4B15006   9.154   7.361   7.447  0.1581  0.0479 -0.0260
 1055YOPC   NC315007  12.157   2.000   5.900  0.0786 -0.3636  0.0235
 1055YOPC   PO415008  11.831   1.718   5.886  0.1585 -0.3140 -0.2591
 1055YOPC   GL115009  11.970   1.715   6.341  0.3292 -0.1458  0.0317
 1055YOPC   GL215010  11.676   1.555   6.500 -0.2617 -0.1731 -0.0788
 1055YOPC   C1A15011  12.233   1.938   6.580  0.1160  0.2421  0.2407
 1055YOPC   D2A15012  12.352   1.958   7.052 -0.1000  0.2092  0.1949
 1055YOPC   C3A15013  12.322   1.932   7.568  0.0852 -0.2975  0.0034
 1055YOPC   C4A15014  12.245   1.859   7.944  0.1316  0.2673 -0.2551
 1055YOPC   C1B15015  11.489   1.603   6.759  0.1367 -0.1733  0.2299
 1055YOPC   C2B15016  11.552   1.666   7.099  0.0511  0.0308 -0.0259
 1055YOPC   D3B15017  11.562   1.620   7.527 -0.1397 -0.0936 -0.0510
 1055YOPC   C4B15018  11.786   1.709   7.915  0.1242  0.1793 -0.0291
 1056YOPC   NC315019  11.276   4.919   6.285 -0.1978  0.0244  0.0173
 1056YOPC   PO415020  11.029   5.289   6.367  0.0551 -0.2667  0.1527
 1056YOPC   GL115021  11.387   5.424   6.587 -0.3231 -0.0798  0.1128
 1056YOPC   GL215022  11.319   5.481   6.922  0.1174  0.2003 -0.0137
 1056YOPC   C1A15023  11.803   5.314   6.928 -0.0928 -0.0107  0.0655
 1056YOPC   D2A15024  11.906   5.315   7.379 -0.0024  0.2772 -0.2356
 1056YOPC   C3A15025  11.987   5.285   7.735 -0.1049 -0.2057 -0.0289
 1056YOPC   C4A15026  12.055   5.407   8.116 -0.2435 -0.2241  0.0781
 1056YOPC   C1B15027  11.399   5.478   7.355 -0.2029  0.1722 -0.0848
 1056YOPC   C2B15028  11.534   5.424   7.710  0.0326 -0.0200  0.0344
 1056YOPC   D3B15029  11.646   5.692   7.960  0.0464  0.0819 -0.0477
 1056YOPC   C4B15030  11.545   6.034   8.224 -0.2973 -0.0564 -0.1763
 1057YOPC   NC315031   3.195  13.099   6.116 -0.0378  0.0065 -0.0291
 1057YOPC   PO415032   2.836  13.023   6.243  0.1081 -0.0136 -0.2588
 1057YOPC   GL115033   2.858  13.295   6.587  0.2593 -0.1120  0.0869
 1057YOPC   GL215034   3.094  13.437   6.517  0.0860 -0.0053  0.2864
 1057YOPC   C1A15035   3.107  13.338   7.026  0.0957 -0.0476 -0.0636
 1057YOPC   D2A15036   3.487  13.489   7.281 -0.0560 -0.1652  0.1645
 1057YOPC   C3A15037   3.623  13.780   7.547 -0.1195  0.1958  0.2294
 1057YOPC   C4A15038   3.535  13.822   7.953  0.3823  0.0225  0.0145
 1057YOPC   C1B15039   3.508  13.563   6.806 -0.0136  0.0624  0.0449
 1057YOPC   C2B15040   3.658  13.870   6.969  0.4608 -0.1064  0.2440
 1057YOPC   D3B15041   3.515  14.296   7.034  0.0032  0.4650  0.1391
 1057YOPC   C4B15042   3.205  14.516   6.899  0.2383 -0.2591 -0.0161
 1058YOPC   NC315043  10.290  13.479   6.013  0.3919  0.2452 -0.0844
 1058YOPC   PO415044  10.468  13.059   6.229  0.0540 -0.0006 -0.1725
 1058YOPC   GL115045  10.601  13.064   6.612 -0.2438 -0.2095 -0.0892
 1058YOPC   GL215046  10.865  12.985   6.651 -0.0028  0.2666 -0.3286
 1058YOPC   C1A15047  10.648  13.392   6.863 -0.3692 -0.2273 -0.0251
 1058YOPC   D2A15048  10.533  13.522   7.176 -0.1022  0.3324 -0.1800
 1058YOPC   C3A15049  10.841  13.549   7.388 -0.3688  0.1257 -0.2871
 1058YOPC   C4A15050  10.976  13.644   7.774  0.2182 -0.0494 -0.0169
 1058YOPC   C1B15051  10.883  13.006   7.140 -0.2235  0.2201 -0.2631
 1058YOPC   C2B15052  10.955  12.941   7.563 -0.0617 -0.0166 -0.1689
 1058YOPC   D3B15053  10.739  12.848   7.961  0.1352  0.0785  0.2325
 1058YOPC   C4B15054  10.669  12.943   8.358 -0.1632  0.1319 -0.1556
 1059YOPC   NC315055  10.467   7.045   6.245  0.0341 -0.0263  0.0630
 1059YOPC   PO415056  10.236   6.662   6.434 -0.0739 -0.2791  0.0031
 1059YOPC   GL115057  10.381   6.481   6.820  0.0279 -0.2676  0.0426
 1059YOPC   GL215058  10.297   6.226   6.730  0.5016 -0.1012  0.3006
 1059YOPC   C1A15059  10.397   6.384   7.240  0.2239  0.2005 -0.2974
 1059YOPC   D2A15060  10.427   6.457   7.571 -0.0987 -0.2455  0.3980
 1059YOPC   C3A15061  10.467   6.659   7.892  0.0711 -0.0102 -0.1080
 1059YOPC   C4A15062  10.259   6.960   8.179 -0.2489 -0.0861  0.2912
 1059YOPC   C1B15063   9.947   6.345   7.039  0.1228  0.1829 -0.1273
 1059YOPC   C2B15064   9.887   6.288   7.486 -0.1656  0.1699 -0.0535
 1059YOPC   D3B15065   9.959   6.270   7.951  0.2651  0.0913  0.0317
 1059YOPC   C4B15066  10.090   6.531   8.263 -0.1633  0.0565 -0.1842
 1060YOPC   NC315067   1.343  17.095   6.371  0.2587  0.1315 -0.0701
 1060YOPC   PO415068   1.134  17.543   6.283  0.1828  0.0685  0.1197
 1060YOPC   GL115069   1.158  17.441   6.689  0.1172  0.1351  0.0565
 1060YOPC   GL215070   1.019  17.117   6.800  0.1127  0.1543  0.0796
 1060YOPC   C1A15071   1.170  17.457   7.189 -0.0809  0.3008  0.0298
 1060YOPC   D2A15072   1.152  17.403   7.605  0.0404 -0.0285  0.0814
 1060YOPC   C3A15073   1.318  17.500   7.911  0.1432  0.2093 -0.0642
 1060YOPC   C4A15074   1.153  17.819   8.154  0.2374  0.1044 -0.0261
 1060YOPC   C1B15075   0.960  17.018   7.337 -0.0986  0.2883 -0.0414
 1060YOPC   C2B15076   0.855  17.074   7.791  0.2054  0.5113  0.0749
 1060YOPC   D3B15077   1.082  17.110   8.125 -0.2253 -0.0059  0.3000
 1060YOPC   C4B15078   1.302  17.283   8.546  0.1159 -0.0933 -0.0229
 1061YOPC   NC315079  12.462  13.100   6.234  0.1156  0.0701 -0.5322
 1061YOPC   PO415080  12.184  12.893   6.361  0.1774  0.0015 -0.1148
 1061YOPC   GL115081  12.159  13.047   6.756 -0.2188  0.3730 -0.1231
 1061YOPC   GL215082  12.334  13.321   6.719 -0.3305 -0.2728 -0.0256
 1061YOPC   C1A15083  12.131  13.020   7.233  0.1609  0.0272  0.0721
 1061YOPC   D2A15084  12.241  13.009   7.657  0.3392  0.0465  0.0724
 1061YOPC   C3A15085  12.022  12.742   7.882  0.0319 -0.0672  0.0426
 1061YOPC   C4A15086  11.888  12.880   8.326 -0.0536 -0.0163  0.0680
 1061YOPC   C1B15087  12.484  13.333   7.029  0.1071  0.2212 -0.1286
 1061YOPC   C2B15088  12.696  13.275   7.456 -0.0158 -0.0017 -0.0733
 1061YOPC   D3B15089  12.469  13.461   7.873 -0.1611  0.0526 -0.1059
 1061YOPC   C4B15090  12.450  13.619   8.315 -0.1251  0.0209  0.0742
 1062YOPC   NC315091  14.917  11.364   6.568  0.1052 -0.0898 -0.2501
 1062YOPC   PO415092  15.186  11.551   6.712  0.1276  0.0382 -0.1886
 1062YOPC   GL115093  15.217  11.350   7.087  0.1279 -0.2524 -0.1992
 1062YOPC   GL215094  15.528  11.329   7.085  0.1837 -0.2630  0.2587
 1062YOPC   C1A15095  15.240  11.288   7.622 -0.0278 -0.2310  0.4439
 1062YOPC   D2A15096  15.338  11.332   8.014 -0.2371  0.2506  0.0150
 1062YOPC   C3A15097  15.435  10.986   8.278  0.2796  0.1489 -0.1862
 1062YOPC   C4A15098  15.758  10.787   8.513 -0.1529  0.1134  0.2515
 1062YOPC   C1B15099  15.739  11.210   7.428 -0.0164 -0.1738 -0.0072
 1062YOPC   C2B15100  15.770  11.206   7.784 -0.0999 -0.0846 -0.1599
 1062YOPC   D3B15101  15.904  10.980   8.016 -0.3085  0.0043 -0.2347
 1062YOPC   C4B15102  16.137  11.065   8.331 -0.3165  0.0578  0.1173
 1063YOPC   NC315103   2.090   1.760   5.791  0.2999 -0.2727  0.4526
 1063YOPC   PO415104   2.268   1.505   6.029 -0.0097 -0.0712  0.2650
 1063YOPC   GL115105   2.321   1.718   6.359 -0.0190 -0.0744 -0.1983
 1063YOPC   GL215106   2.145   1.560   6.609 -0.1500  0.2462 -0.0994
 1063YOPC   C1A15107   2.470   2.015   6.591  0.2534  0.1589 -0.2189
 1063YOPC   D2A15108   2.381   2.319   6.935  0.1303 -0.1104 -0.0312
 1063YOPC   C3A15109   2.392   2.474   7.385  0.0959  0.3330 -0.0123
 1063YOPC   C4A15110   2.639   2.839   7.479  0.1391  0.0307  0.3822
 1063YOPC   C1B15111   2.056   1.842   6.869 -0.2713  0.0922 -0.0106
 1063YOPC   C2B15112   2.288   1.985   7.318  0.3268  0.3748  0.1101
 1063YOPC   D3B15113   2.677   2.057   7.320 -0.0009  0.1323 -0.0236
 1063YOPC   C4B15114   3.117   2.017   7.269 -0.1167  0.1237 -0.0748
 1064YOPC   NC315115   7.778  17.475   6.052  0.0508  0.2010 -0.2668
 1064YOPC   PO415116   7.383  17.658   5.895 -0.0714  0.1792  0.2455
 1064YOPC   GL115117   7.058  17.609   6.324 -0.0223 -0.0852  0.4586
 1064YOPC   GL215118   6.746  17.702   6.310  0.0091 -0.0701 -0.0704
 1064YOPC   C1A15119   7.260  17.563   6.702  0.2869  0.0630  0.1001
 1064YOPC   D2A15120   7.450  17.386   7.006 -0.0227 -0.0403  0.1114
 1064YOPC   C3A15121   7.541  16.957   7.049  0.0151  0.1790  0.0102
 1064YOPC   C4A15122   7.764  16.559   7.106 -0.1276 -0.3332 -0.2421
 1064YOPC   C1B15123   6.622  17.792   6.766 -0.2146  0.1188 -0.0924
 1064YOPC   C2B15124   6.787  17.969   7.185 -0.1683 -0.1611 -0.1016
 1064YOPC   D3B15125   6.623  17.763   7.500  0.0286  0.1532  0.1734
 1064YOPC   C4B15126   6.715  17.782   7.990 -0.2069  0.0212  0.0576
 1065YOPC   NC315127   2.213   3.507   5.707 -0.1834  0.1954 -0.0940
 1065YOPC   PO415128   2.413   3.603   6.144  0.1516  0.1119  0.0888
 1065YOPC   GL115129   2.339   3.823   6.477  0.0064  0.1074  0.1026
 1065YOPC   GL215130   2.357   4.132   6.404 -0.3613  0.0737 -0.3776
 1065YOPC   C1A15131   2.287   3.562   6.843  0.1406 -0.6285  0.1832
 1065YOPC   D2A15132   2.328   3.527   7.242  0.0050 -0.4088 -0.3490
 1065YOPC   C3A15133   2.235   3.315   7.610 -0.1273  0.1465  0.3867
 1065YOPC   C4A15134   1.889   3.245   7.871 -0.1435  0.1098 -0.0217
 1065YOPC   C1B15135   2.405   4.175   6.821  0.0202  0.3693  0.2316
 1065YOPC   C2B15136   2.243   4.389   7.177 -0.2908  0.0671  0.0306
 1065YOPC   D3B15137   2.275   4.602   7.520  0.2328 -0.0632 -0.2489
 1065YOPC   C4B15138   2.265   4.590   8.015 -0.1137 -0.0761  0.2346
 1066YOPC   NC315139  10.758  11.755   6.307  0.1857 -0.2977 -0.0005
 1066YOPC   PO415140  10.726  11.323   6.267  0.0897  0.0767 -0.2727
 1066YOPC   GL115141  11.086  11.420   6.652 -0.0358  0.0997 -0.0577
 1066YOPC   GL215142  10.943  11.710   6.737 -0.1306  0.0047 -0.3238
 1066YOPC   C1A15143  11.232  11.456   7.069  0.1202  0.0800  0.0428
 1066YOPC   D2A15144  11.133  11.263   7.389  0.3086  0.1539  0.3677
 1066YOPC   C3A15145  11.249  11.397   7.775  0.1794 -0.3564 -0.0666
 1066YOPC   C4A15146  11.586  11.659   8.063  0.1252 -0.1986  0.0778
 1066YOPC   C1B15147  10.841  11.665   7.250  0.1470 -0.2299  0.0484
 1066YOPC   C2B15148  10.731  11.552   7.604 -0.1249  0.4713  0.1164
 1066YOPC   D3B15149  10.781  11.527   8.030  0.1249 -0.1894 -0.3463
 1066YOPC   C4B15150  11.109  11.444   8.271 -0.1194 -0.0738  0.1573
 1067YOPC   NC315151  16.569  11.953   6.494  0.2039  0.1966  0.2023
 1067YOPC   PO415152  16.400  12.447   6.610 -0.0032  0.2677 -0.2295
 1067YOPC   GL115153  16.349  12.568   6.980 -0.1730 -0.1633 -0.2308
 1067YOPC   GL215154  16.264  12.903   7.131 -0.2835  0.0472  0.0129
 1067YOPC   C1A15155  16.352  12.549   7.483 -0.2948  0.1524  0.1536
 1067YOPC   D2A15156  16.412  12.570   7.909 -0.3764 -0.0090  0.3566
 1067YOPC   C3A15157  16.628  12.346   8.184  0.2294 -0.0833  0.2434
 1067YOPC   C4A15158  16.932  12.161   8.399 -0.1889  0.0949 -0.0948
 1067YOPC   C1B15159  16.198  13.047   7.451 -0.0257  0.1011  0.0597
 1067YOPC   C2B15160  16.249  12.996   7.843 -0.1084 -0.0132  0.2458
 1067YOPC   D3B15161  16.189  13.306   8.130 -0.1895  0.2161 -0.0980
 1067YOPC   C4B15162  16.211  13.799   8.081  0.2313 -0.0416 -0.1809
 1068YOPC   NC315163   6.326  15.602   6.181 -0.2846 -0.0305  0.3383
 1068YOPC   PO415164   6.784  15.547   6.287  0.3927 -0.0900  0.0727
 1068YOPC   GL115165   6.613  15.344   6.601  0.2324  0.2389  0.0593
 1068YOPC   GL215166   6.353  15.199   6.565 -0.1419 -0.0372  0.0104
 1068YOPC   C1A15167   6.561  15.319   7.110 -0.2431  0.1729  0.1381
 1068YOPC   D2A15168   6.473  15.407   7.533 -0.4213 -0.1962 -0.0064
 1068YOPC   C3A15169   6.697  15.193   7.818 -0.2299  0.2631  0.1553
 1068YOPC   C4A15170   6.745  14.939   8.190 -0.0748 -0.0155 -0.2567
 1068YOPC   C1B15171   6.159  15.132   6.955  0.3297  0.0149  0.0252
 1068YOPC   C2B15172   5.966  14.929   7.324  0.1092  0.0109 -0.2786
 1068YOPC   D3B15173   6.073  15.134   7.648 -0.1456 -0.0618 -0.0630
 1068YOPC   C4B15174   6.124  15.072   8.031 -0.0112 -0.4240 -0.1990
 1069YOPC   NC315175  12.111  13.810   6.009  0.2703 -0.1170  0.3054
 1069YOPC   PO415176  12.477  13.580   6.315 -0.0543  0.1691  0.0012
 1069YOPC   GL115177  12.626  13.823   6.711 -0.0937  0.0052  0.0872
 1069YOPC   GL215178  12.876  14.059   6.838 -0.2674 -0.4119  0.1161
 1069YOPC   C1A15179  12.374  13.782   7.072  0.1219  0.2376  0.2440
 1069YOPC   D2A15180  12.275  13.621   7.456  0.4867  0.0276  0.0906
 1069YOPC   C3A15181  11.989  13.747   7.744  0.0721 -0.1190  0.0632
 1069YOPC   C4A15182  12.035  13.543   8.074 -0.1188  0.0160 -0.0452
 1069YOPC   C1B15183  12.883  14.161   7.250 -0.0584  0.1784 -0.0166
 1069YOPC   C2B15184  12.815  14.260   7.665 -0.1315 -0.3736 -0.1045
 1069YOPC   D3B15185  12.684  13.934   7.988  0.1715 -0.1869  0.1530
 1069YOPC   C4B15186  12.875  13.883   8.437 -0.1841  0.2736  0.0095
 1070YOPC   NC315187  14.828   4.038   5.700  0.1056  0.2596 -0.1898
 1070YOPC   PO415188  14.436   3.990   5.831 -0.1971  0.0530  0.4875
 1070YOPC   GL115189  14.704   4.041   6.153  0.4544  0.0553 -0.0297
 1070YOPC   GL215190  14.862   3.776   6.306  0.0952  0.0809 -0.0501
 1070YOPC   C1A15191  14.970   4.154   6.543 -0.2979  0.1209  0.0879
 1070YOPC   D2A15192  14.940   4.394   6.990  0.2696 -0.2794 -0.0263
 1070YOPC   C3A15193  15.119   4.507   7.410  0.5406  0.0586  0.1709
 1070YOPC   C4A15194  14.898   4.348   7.800 -0.0205 -0.3696 -0.1448
 1070YOPC   C1B15195  14.609   3.511   6.544 -0.0773  0.2437  0.2251
 1070YOPC   C2B15196  14.430   3.621   6.914  0.0315  0.0195 -0.0239
 1070YOPC   D3B15197  14.443   3.566   7.390  0.1759 -0.1771  0.1031
 1070YOPC   C4B15198  14.502   3.566   7.891 -0.0647 -0.3888  0.1273
 1071YOPC   NC315199   6.160   3.913   6.020 -0.0246  0.1305 -0.0396
 1071YOPC   PO415200   5.669   3.824   5.911 -0.0348  0.3018  0.0387
 1071YOPC   GL115201   5.786   3.872   6.366 -0.0985 -0.0703  0.3801
 1071YOPC   GL215202   5.489   3.811   6.519  0.1670 -0.2739  0.1031
 1071YOPC   C1A15203   6.027   3.808   6.722 -0.2417  0.4791  0.0590
 1071YOPC   D2A15204   5.950   3.711   7.100 -0.2151 -0.1387  0.2644
 1071YOPC   C3A15205   6.042   3.802   7.446 -0.1438 -0.0348  0.0525
 1071YOPC   C4A15206   6.466   3.861   7.572 -0.0537  0.0902  0.2234
 1071YOPC   C1B15207   5.430   3.577   6.805 -0.3618 -0.0837  0.1107
 1071YOPC   C2B15208   5.351   3.213   6.954 -0.1796  0.1662 -0.0980
 1071YOPC   D3B15209   5.195   3.239   7.327  0.1028  0.1130 -0.0570
 1071YOPC   C4B15210   5.000   3.430   7.592  0.2355 -0.0651  0.1170
 1072YOPC   NC315211  16.521   8.740   6.226  0.0903 -0.1836 -0.3495
 1072YOPC   PO415212  16.604   9.219   6.246  0.0950 -0.1797  0.0593
 1072YOPC   GL115213  16.512   9.103   6.585  0.2144 -0.1882 -0.2529
 1072YOPC   GL215214  16.777   9.044   6.653 -0.2119 -0.0607 -0.2155
 1072YOPC   C1A15215  16.281   8.925   6.944 -0.1950 -0.0573 -0.0462
 1072YOPC   D2A15216  16.335   8.760   7.419  0.1859  0.2856 -0.0571
 1072YOPC   C3A15217  16.660   8.832   7.719 -0.1525 -0.0558  0.2332
 1072YOPC   C4A15218  16.745   8.590   8.109  0.2626  0.0713 -0.0567
 1072YOPC   C1B15219  16.712   8.747   7.032  0.0596  0.1376  0.2246
 1072YOPC   C2B15220  16.822   8.566   7.347  0.0102  0.0521  0.2529
 1072YOPC   D3B15221  16.675   8.310   7.597  0.1924 -0.2363 -0.3038
 1072YOPC   C4B15222  16.358   8.395   7.916  0.0786 -0.0067  0.0106
 1073YOPC   NC315223   4.346  15.604   5.915 -0.0066  0.0179 -0.0055
 1073YOPC   PO415224   4.654  15.272   6.013 -0.0593  0.0675 -0.1563
 1073YOPC   GL115225   4.688  15.249   6.392 -0.0936 -0.3209  0.1744
 1073YOPC   GL215226   5.101  15.441   6.526  0.0010 -0.0899  0.3053
 1073YOPC   C1A15227   4.678  15.107   6.814 -0.0355  0.2101  0.2618
 1073YOPC   D2A15228   4.511  14.908   7.138  0.0009  0.2467 -0.0759
 1073YOPC   C3A15229   4.563  14.913   7.560 -0.1008 -0.0238 -0.0068
 1073YOPC   C4A15230   4.593  15.288   7.946  0.2946  0.1611 -0.1425
 1073YOPC   C1B15231   5.086  15.745   6.865 -0.2430  0.2368  0.0287
 1073YOPC   C2B15232   5.004  16.032   7.194  0.0873 -0.1604 -0.1942
 1073YOPC   D3B15233   5.144  15.999   7.626  0.1084  0.0653  0.1478
 1073YOPC   C4B15234   5.056  15.823   8.033  0.0787  0.1212  0.1176
 1074YOPC   NC315235   3.481   9.531   5.736 -0.0744 -0.4540  0.0468
 1074YOPC   PO415236   3.140   9.244   5.729  0.0917 -0.3631 -0.0898
 1074YOPC   GL115237   3.361   9.306   6.169 -0.0716  0.1812 -0.1207
 1074YOPC   GL215238   3.183   8.985   6.323  0.2284  0.0878 -0.0288
 1074YOPC   C1A15239   3.583   9.335   6.504  0.0149  0.2240 -0.0918
 1074YOPC   D2A15240   3.783   8.977   6.717 -0.0371 -0.2068  0.1494
 1074YOPC   C3A15241   3.954   8.892   7.141  0.1623  0.1060  0.1216
 1074YOPC   C4A15242   3.918   8.663   7.563 -0.0895 -0.0144 -0.1062
 1074YOPC   C1B15243   3.146   9.047   6.727 -0.2245  0.0298  0.2242
 1074YOPC   C2B15244   3.087   9.160   7.138 -0.2599  0.1584 -0.0012
 1074YOPC   D3B15245   3.053   9.131   7.535  0.0846  0.1107 -0.3084
 1074YOPC   C4B15246   3.003   8.970   7.897 -0.0436  0.0446  0.0854
 1075YOPC   NC315247   2.456  14.804   6.050  0.0892 -0.1749  0.1481
 1075YOPC   PO415248   2.669  14.432   5.977  0.0242 -0.0158  0.4048
 1075YOPC   GL115249   2.511  14.283   6.378 -0.0029 -0.1405 -0.0066
 1075YOPC   GL215250   2.329  14.516   6.569 -0.3659  0.1305 -0.0078
 1075YOPC   C1A15251   2.731  14.323   6.789  0.0140  0.2040 -0.2303
 1075YOPC   D2A15252   2.824  14.259   7.230  0.0932  0.0218  0.0077
 1075YOPC   C3A15253   2.762  14.338   7.680  0.0090  0.2101  0.2048
 1075YOPC   C4A15254   3.077  14.625   7.885 -0.0388 -0.0912  0.3519
 1075YOPC   C1B15255   2.351  14.632   6.952  0.4610  0.0123  0.1610
 1075YOPC   C2B15256   2.415  14.675   7.387 -0.1329 -0.0899  0.0414
 1075YOPC   D3B15257   2.205  14.315   7.667 -0.3279 -0.0322 -0.0994
 1075YOPC   C4B15258   2.064  14.247   8.100  0.3048  0.1856 -0.2504
 1076YOPC   NC315259   5.515  17.693   5.744  0.0397 -0.2384 -0.0859
 1076YOPC   PO415260   5.643  17.897   6.096  0.0552 -0.1862  0.2688
 1076YOPC   GL115261   5.642  17.697   6.478  0.1606 -0.0019 -0.1040
 1076YOPC   GL215262   5.906  17.756   6.675  0.1557 -0.0314 -0.2816
 1076YOPC   C1A15263   5.377  17.553   6.779 -0.0449 -0.2207 -0.0995
 1076YOPC   D2A15264   5.330  17.783   7.193  0.0580  0.1624  0.0115
 1076YOPC   C3A15265   5.211  17.801   7.625  0.1374  0.5383  0.0844
 1076YOPC   C4A15266   4.943  17.801   7.956 -0.2349  0.0729  0.2758
 1076YOPC   C1B15267   5.841  17.532   6.962 -0.0296 -0.0383 -0.1494
 1076YOPC   C2B15268   5.811  17.507   7.369  0.0642  0.1784 -0.0890
 1076YOPC   D3B15269   5.605  17.510   7.700  0.3022 -0.1544 -0.1277
 1076YOPC   C4B15270   5.329  17.417   8.003  0.2477 -0.2810  0.1974
 1077YOPC   NC315271  16.071   3.243   6.060  0.1479  0.2188  0.0485
 1077YOPC   PO415272  15.686   3.302   5.985  0.0095  0.0208 -0.1023
 1077YOPC   GL115273  15.828   3.415   6.411 -0.1519 -0.1074  0.1488
 1077YOPC   GL215274  16.032   3.208   6.585  0.0442 -0.3540  0.1992
 1077YOPC   C1A15275  15.735   3.611   6.709  0.1666  0.1233  0.0976
 1077YOPC   D2A15276  15.506   3.620   7.128  0.2415  0.0278 -0.0402
 1077YOPC   C3A15277  15.526   3.694   7.609  0.2057 -0.0094 -0.0540
 1077YOPC   C4A15278  15.491   3.705   8.141  0.0823  0.1148 -0.4022
 1077YOPC   C1B15279  16.037   3.280   7.037 -0.1879  0.2172  0.0389
 1077YOPC   C2B15280  15.906   3.411   7.489 -0.1611  0.1562 -0.1345
 1077YOPC   D3B15281  16.025   3.691   7.802 -0.2339  0.0759 -0.0637
 1077YOPC   C4B15282  15.973   3.798   8.196 -0.0703 -0.1748  0.0932
 1078YOPC   NC315283  13.565  14.383   5.761 -0.1274 -0.1044 -0.0759
 1078YOPC   PO415284  13.506  14.745   6.021 -0.0787 -0.1912 -0.1965
 1078YOPC   GL115285  13.607  14.774   6.429  0.1308 -0.0417  0.0949
 1078YOPC   GL215286  13.507  15.015   6.611  0.5041 -0.2486  0.2927
 1078YOPC   C1A15287  13.811  14.697   6.912  0.0750 -0.0154  0.1634
 1078YOPC   D2A15288  14.012  14.802   7.238  0.0687 -0.2997  0.0243
 1078YOPC   C3A15289  13.986  14.985   7.681  0.1112  0.1879  0.2191
 1078YOPC   C4A15290  14.080  15.312   8.015  0.0514  0.1921 -0.1197
 1078YOPC   C1B15291  13.507  15.067   6.952 -0.0217 -0.1604 -0.4646
 1078YOPC   C2B15292  13.529  15.010   7.378 -0.1131 -0.1125  0.1450
 1078YOPC   D3B15293  13.509  15.055   7.804 -0.0053 -0.0135  0.0328
 1078YOPC   C4B15294  13.625  15.024   8.227 -0.1717 -0.3234 -0.2065
 1079YOPC   NC315295   0.648   7.582   6.472  0.0645  0.0797  0.1613
 1079YOPC   PO415296   1.093   7.535   6.091 -0.1223 -0.1366 -0.0426
 1079YOPC   GL115297   1.132   7.342   6.516 -0.0375 -0.1800 -0.1773
 1079YOPC   GL215298   1.308   7.125   6.630  0.1142 -0.1936  0.1186
 1079YOPC   C1A15299   1.215   7.497   6.916  0.0670  0.3057  0.0401
 1079YOPC   D2A15300   1.302   7.368   7.409  0.0030  0.1165  0.3322
 1079YOPC   C3A15301   1.087   7.517   7.816  0.0194  0.0449 -0.2903
 1079YOPC   C4A15302   0.974   7.868   7.902  0.1348  0.1689  0.0966
 1079YOPC   C1B15303   1.561   7.185   7.013 -0.1075  0.0442 -0.0379
 1079YOPC   C2B15304   1.648   7.056   7.432  0.0619 -0.0033 -0.1614
 1079YOPC   D3B15305   2.098   7.064   7.536 -0.2155  0.1958 -0.2472
 1079YOPC   C4B15306   2.523   7.213   7.506  0.2805 -0.0221 -0.1220
 1080YOPC   NC315307   8.387   1.827   6.052  0.3214 -0.0509 -0.0797
 1080YOPC   PO415308   8.272   1.423   6.190  0.0535  0.1581 -0.2770
 1080YOPC   GL115309   8.296   1.690   6.546  0.0313 -0.1452 -0.1227
 1080YOPC   GL215310   7.949   1.850   6.489 -0.2160 -0.2516 -0.2443
 1080YOPC   C1A15311   8.437   1.599   6.909 -0.0884 -0.1347 -0.4378
 1080YOPC   D2A15312   8.639   1.751   7.237 -0.0739 -0.0163  0.1896
 1080YOPC   C3A15313   8.674   1.478   7.664 -0.1838 -0.1153 -0.0106
 1080YOPC   C4A15314   8.547   1.172   7.850  0.0077 -0.0343 -0.1608
 1080YOPC   C1B15315   8.248   2.035   6.881  0.0183 -0.4662 -0.1681
 1080YOPC   C2B15316   8.167   1.844   7.270 -0.1421  0.0863  0.1277
 1080YOPC   D3B15317   8.292   2.010   7.653  0.0676  0.0704  0.0557
 1080YOPC   C4B15318   8.555   2.045   8.083 -0.0689 -0.1982  0.0978
 1081YOPC   NC315319  11.492  14.376   6.266  0.1928  0.2521  0.2523
 1081YOPC   PO415320  11.125  14.376   5.893 -0.1002 -0.0265 -0.2738
 1081YOPC   GL115321  10.946  14.493   6.369  0.2343  0.0594 -0.0435
 1081YOPC   GL215322  11.131  14.400   6.638  0.0643 -0.1797  0.0096
 1081YOPC   C1A15323  10.642  14.374   6.678 -0.1240 -0.2357  0.1810
 1081YOPC   D2A15324  10.225  14.341   6.857 -0.2000 -0.3030 -0.0351
 1081YOPC   C3A15325  10.224  14.443   7.314 -0.0786  0.1491  0.0040
 1081YOPC   C4A15326  10.426  14.785   7.578 -0.3074 -0.3183 -0.2050
 1081YOPC   C1B15327  11.197  14.295   7.010  0.2590  0.0768  0.1730
 1081YOPC   C2B15328  11.433  14.237   7.400  0.2093 -0.0545  0.2271
 1081YOPC   D3B15329  11.135  14.153   7.792 -0.4868  0.0870  0.0571
 1081YOPC   C4B15330  10.889  14.026   8.202 -0.2755 -0.0577  0.0033
 1082YOPC   NC315331   8.050   9.731   6.390  0.2560 -0.1456 -0.0416
 1082YOPC   PO415332   8.449   9.973   6.386  0.1478 -0.0735 -0.0285
 1082YOPC   GL115333   8.726   9.975   6.703 -0.1080 -0.0315  0.0018
 1082YOPC   GL215334   8.651  10.309   6.868  0.1165  0.1401 -0.4416
 1082YOPC   C1A15335   8.855   9.996   7.189  0.3806 -0.0036  0.0531
 1082YOPC   D2A15336   8.852   9.769   7.302 -0.1628 -0.0482 -0.1184
 1082YOPC   C3A15337   8.740   9.643   7.609 -0.0639 -0.0658 -0.0393
 1082YOPC   C4A15338   8.769   9.806   8.013  0.0737  0.0491  0.3603
 1082YOPC   C1B15339   8.740  10.506   7.265 -0.0991  0.0338  0.3239
 1082YOPC   C2B15340   8.972  10.362   7.552  0.3012  0.1603 -0.1698
 1082YOPC   D3B15341   8.908  10.290   8.031 -0.1657 -0.1518  0.1013
 1082YOPC   C4B15342   8.926  10.291   8.532  0.1372 -0.2484  0.1370
 1083YOPC   NC315343   7.535   0.126   5.521 -0.0438  0.1643  0.1000
 1083YOPC   PO415344   7.631   0.260   5.870  0.0464  0.0672  0.2233
 1083YOPC   GL115345   7.571   0.270   6.275 -0.0128 -0.1044  0.0631
 1083YOPC   GL215346   7.550  -0.066   6.350 -0.0768 -0.2737  0.0669
 1083YOPC   C1A15347   7.549   0.275   6.712 -0.0647  0.2511 -0.2366
 1083YOPC   D2A15348   7.765   0.481   7.072 -0.3483 -0.1014  0.0650
 1083YOPC   C3A15349   7.688   0.284   7.421 -0.1110  0.2841  0.2437
 1083YOPC   C4A15350   7.636  -0.036   7.696 -0.0396 -0.2015 -0.1162
 1083YOPC   C1B15351   7.802  -0.182   6.750 -0.2896  0.1351 -0.1152
 1083YOPC   C2B15352   7.785  -0.172   7.246  0.0603 -0.0402 -0.2932
 1083YOPC   D3B15353   7.611  -0.611   7.473  0.1587  0.1652 -0.2785
 1083YOPC   C4B15354   7.569  -1.065   7.539 -0.1972 -0.3894 -0.1123
 1084YOPC   NC315355  15.917   2.437   5.842  0.1882  0.2659  0.0826
 1084YOPC   PO415356  15.472   2.303   5.863  0.1087  0.1052  0.0549
 1084YOPC   GL115357  15.476   2.449   6.298 -0.1024 -0.0320  0.0284
 1084YOPC   GL215358  15.178   2.298   6.486  0.1560  0.1456  0.1375
 1084YOPC   C1A15359  15.362   2.638   6.804  0.1882 -0.2377 -0.1095
 1084YOPC   D2A15360  15.347   2.600   7.282 -0.0600  0.2019 -0.0369
 1084YOPC   C3A15361  14.994   2.474   7.552  0.1044  0.0347  0.0679
 1084YOPC   C4A15362  14.670   2.668   7.785  0.0503 -0.2047 -0.1490
 1084YOPC   C1B15363  15.049   2.279   6.958 -0.0247  0.1349 -0.1340
 1084YOPC   C2B15364  15.195   2.087   7.372  0.0713  0.2261 -0.0243
 1084YOPC   D3B15365  15.128   1.708   7.433  0.4079  0.1703  0.1898
 1084YOPC   C4B15366  14.964   1.580   7.831 -0.0853  0.0737  0.0724
 1085YOPC   NC315367   4.129   9.866   5.652  0.2039  0.0692  0.0064
 1085YOPC   PO415368   3.984   9.632   5.908  0.2187 -0.2624 -0.0071
 1085YOPC   GL115369   3.866   9.242   5.985  0.2603  0.1002 -0.0025
 1085YOPC   GL215370   4.176   9.201   6.060 -0.0075 -0.1533  0.0235
 1085YOPC   C1A15371   3.620   8.886   6.132 -0.1192 -0.0781  0.3373
 1085YOPC   D2A15372   3.541   8.588   6.455 -0.1159  0.1549 -0.1161
 1085YOPC   C3A15373   3.375   8.656   6.867  0.2281  0.0472  0.5223
 1085YOPC   C4A15374   3.376   8.677   7.367 -0.3850  0.0575  0.0560
 1085YOPC   C1B15375   4.155   9.134   6.428  0.0087  0.0264 -0.0525
 1085YOPC   C2B15376   4.342   8.929   6.838  0.2076 -0.1058 -0.2864
 1085YOPC   D3B15377   4.429   8.617   6.983  0.1238  0.0363  0.2460
 1085YOPC   C4B15378   4.215   8.240   7.164  0.2772 -0.0782 -0.2462
 1086YOPC   NC315379   8.405   0.939   6.001 -0.2110 -0.0345 -0.1003
 1086YOPC   PO415380   8.793   0.904   6.258 -0.0182 -0.3745 -0.2016
 1086YOPC   GL115381   8.694   0.780   6.727  0.1639  0.0998  0.1894
 1086YOPC   GL215382   8.333   0.673   6.805  0.1526 -0.2604 -0.2238
 1086YOPC   C1A15383   8.645   0.635   7.257  0.1928  0.1579 -0.2071
 1086YOPC   D2A15384   8.564   0.544   7.683  0.0035  0.0661 -0.0280
 1086YOPC   C3A15385   8.627   0.583   8.224 -0.1451 -0.4997  0.2150
 1086YOPC   C4A15386   8.571   0.994   8.328 -0.3709  0.0082 -0.0701
 1086YOPC   C1B15387   8.161   0.790   7.109  0.0713 -0.1090 -0.0272
 1086YOPC   C2B15388   8.204   0.917   7.500  0.0477 -0.0724  0.2415
 1086YOPC   D3B15389   8.016   1.290   7.778  0.0243  0.0364 -0.1500
 1086YOPC   C4B15390   7.710   1.572   8.105 -0.0802  0.2102  0.1972
 1087YOPC   NC315391  16.267   0.400   6.096  0.1154  0.2285  0.2364
 1087YOPC   PO415392  15.997   0.131   6.168 -0.0512 -0.0008 -0.1026
 1087YOPC   GL115393  16.214   0.230   6.538  0.0640  0.0318 -0.1418
 1087YOPC   GL215394  16.610   0.257   6.582 -0.1209 -0.0409 -0.2669
 1087YOPC   C1A15395  16.335  -0.002   6.842  0.0748  0.2415 -0.1932
 1087YOPC   D2A15396  16.121  -0.103   7.126  0.0001 -0.1730  0.0023
 1087YOPC   C3A15397  16.335   0.021   7.410 -0.3371 -0.1716 -0.2601
 1087YOPC   C4A15398  16.571  -0.046   7.768 -0.3761 -0.0523 -0.3307
 1087YOPC   C1B15399  16.438   0.426   7.010  0.0299 -0.3507  0.1235
 1087YOPC   C2B15400  16.318   0.838   7.120  0.3982  0.2042 -0.2121
 1087YOPC   D3B15401  16.249   0.894   7.464  0.0716  0.0589  0.2621
 1087YOPC   C4B15402  16.128   1.169   7.707 -0.0074  0.2284 -0.0148
 1088YOPC   NC315403  16.876   8.422   6.000 -0.1799  0.2630  0.0249
 1088YOPC   PO415404  16.581   8.203   6.178  0.0385 -0.1058 -0.1485
 1088YOPC   GL115405  16.531   8.051   6.571 -0.0197  0.1332 -0.1130
 1088YOPC   GL215406  16.719   7.740   6.713  0.1499 -0.2101  0.2124
 1088YOPC   C1A15407  16.217   7.906   6.820 -0.0029  0.0735 -0.1147
 1088YOPC   D2A15408  15.879   7.864   7.066  0.0044 -0.0801  0.0754
 1088YOPC   C3A15409  15.938   7.816   7.518 -0.3472  0.0755  0.0225
 1088YOPC   C4A15410  15.707   7.748   7.873 -0.2613  0.0701  0.1009
 1088YOPC   C1B15411  16.741   7.762   7.068  0.0308 -0.0460 -0.2152
 1088YOPC   C2B15412  16.707   7.755   7.500  0.0266 -0.2253 -0.0166
 1088YOPC   D3B15413  17.151   7.750   7.595  0.5429  0.3221  0.0966
 1088YOPC   C4B15414  17.329   7.846   7.953  0.2171 -0.0103 -0.1239
 1089YOPC   NC315415   6.614   7.579   6.651 -0.2498 -0.2980  0.2191
 1089YOPC   PO415416   6.757   7.145   6.632 -0.0098  0.0358  0.2633
 1089YOPC   GL115417   6.394   6.892   6.851 -0.1549 -0.2180 -0.1805
 1089YOPC   GL215418   6.104   7.201   6.973  0.1868 -0.1197  0.1529
 1089YOPC   C1A15419   6.266   6.765   7.304  0.1041  0.0940 -0.2218
 1089YOPC   D2A15420   6.314   6.825   7.702 -0.0544 -0.0119 -0.0180
 1089YOPC   C3A15421   6.057   6.692   8.167 -0.2091  0.1242  0.2941
 1089YOPC   C4A15422   5.788   7.036   8.301 -0.0708 -0.1778 -0.1166
 1089YOPC   C1B15423   6.021   7.270   7.474 -0.1692 -0.4902 -0.1798
 1089YOPC   C2B15424   6.064   7.190   7.935  0.0155  0.1182 -0.1058
 1089YOPC   D3B15425   6.053   7.500   8.256  0.0709 -0.1837 -0.1646
 1089YOPC   C4B15426   6.324   7.550   8.577  0.1555 -0.3432 -0.1327
 1090YOPC   NC315427  11.920   9.834   5.842  0.0294 -0.0493  0.1067
 1090YOPC   PO415428  11.936  10.141   6.241  0.2183  0.1708  0.3020
 1090YOPC   GL115429  11.949  10.168   6.675  0.1669  0.0387  0.0108
 1090YOPC   GL215430  11.730  10.043   6.769  0.3744  0.2831  0.1090
 1090YOPC   C1A15431  12.304  10.282   6.916  0.0830  0.0223 -0.1466
 1090YOPC   D2A15432  12.658  10.194   7.143  0.0305 -0.1589  0.0564
 1090YOPC   C3A15433  12.735   9.919   7.433 -0.0212 -0.0930 -0.2952
 1090YOPC   C4A15434  12.622   9.615   7.725  0.0989  0.0047  0.1165
 1090YOPC   C1B15435  11.598  10.054   7.217 -0.1637  0.0418  0.0050
 1090YOPC   C2B15436  11.578   9.935   7.751  0.1027  0.3329 -0.1141
 1090YOPC   D3B15437  11.778   9.911   8.125 -0.1236 -0.0654 -0.1081
 1090YOPC   C4B15438  12.038   9.926   8.503 -0.1259 -0.4480  0.0993
 1091YOPC   NC315439  17.096   1.609   6.404 -0.1015 -0.2583 -0.1961
 1091YOPC   PO415440  16.749   1.357   6.554  0.0085  0.1080 -0.5294
 1091YOPC   GL115441  16.823   1.720   6.830  0.0216 -0.0077 -0.3031
 1091YOPC   GL215442  17.126   1.901   6.895  0.2759  0.1049 -0.1158
 1091YOPC   C1A15443  16.791   1.687   7.297 -0.0544  0.1771  0.0994
 1091YOPC   D2A15444  16.944   1.810   7.667  0.1782  0.2505  0.0830
 1091YOPC   C3A15445  16.759   1.664   7.998  0.1645 -0.2756 -0.2497
 1091YOPC   C4A15446  16.829   1.380   8.473  0.1073  0.2410 -0.1711
 1091YOPC   C1B15447  17.190   1.992   7.281 -0.0657  0.0830 -0.1115
 1091YOPC   C2B15448  17.285   2.182   7.604 -0.0813 -0.0063  0.1563
 1091YOPC   D3B15449  17.666   2.446   7.693 -0.2016 -0.3735 -0.0749
 1091YOPC   C4B15450  17.854   2.784   7.991 -0.2783 -0.2127  0.1973
 1092YOPC   NC315451   4.985  13.141   6.146 -0.1360 -0.1485 -0.2908
 1092YOPC   PO415452   4.904  13.649   6.159 -0.0644 -0.0606  0.0750
 1092YOPC   GL115453   4.830  13.908   6.495  0.1248 -0.1075  0.4036
 1092YOPC   GL215454   4.719  14.206   6.361 -0.0804 -0.1523  0.0765
 1092YOPC   C1A15455   4.807  13.982   6.910 -0.0829 -0.2007 -0.1011
 1092YOPC   D2A15456   4.843  13.998   7.456 -0.1718  0.0758  0.2406
 1092YOPC   C3A15457   4.600  14.080   7.837  0.0932  0.0517  0.1790
 1092YOPC   C4A15458   4.294  14.069   8.199  0.1276  0.1517  0.1055
 1092YOPC   C1B15459   4.475  14.250   6.691 -0.4502 -0.0894 -0.0006
 1092YOPC   C2B15460   4.565  14.407   7.001 -0.0763  0.0010  0.0323
 1092YOPC   D3B15461   4.330  14.409   7.376 -0.0966 -0.0419  0.1603
 1092YOPC   C4B15462   4.258  14.529   7.837  0.2374 -0.2164  0.0211
 1093YOPC   NC315463   1.812  10.557   6.114  0.0494 -0.3957  0.1369
 1093YOPC   PO415464   2.090  10.981   6.116 -0.0362 -0.0932  0.1855
 1093YOPC   GL115465   1.972  11.066   6.556 -0.1885  0.0655  0.4223
 1093YOPC   GL215466   1.751  10.766   6.587 -0.1658 -0.5591  0.2477
 1093YOPC   C1A15467   2.245  11.066   6.826  0.0391  0.0788  0.4303
 1093YOPC   D2A15468   2.285  11.086   7.265 -0.2236 -0.0967  0.0067
 1093YOPC   C3A15469   2.245  10.997   7.678  0.1323  0.4692 -0.1743
 1093YOPC   C4A15470   2.148  10.854   8.096  0.0431 -0.1184  0.0469
 1093YOPC   C1B15471   1.868  10.767   6.969 -0.2021 -0.0823 -0.1495
 1093YOPC   C2B15472   1.890  10.784   7.481  0.1258  0.0838  0.3549
 1093YOPC   D3B15473   2.124  10.431   7.770  0.1765 -0.2092  0.0308
 1093YOPC   C4B15474   2.310  10.367   8.110  0.0221  0.2785 -0.1310
 1094YOPC   NC315475  11.997  11.269   6.165  0.0381 -0.2154  0.0303
 1094YOPC   PO415476  12.353  10.983   6.148  0.0827 -0.2532 -0.0195
 1094YOPC   GL115477  12.266  11.011   6.552  0.0834  0.0607 -0.0129
 1094YOPC   GL215478  11.976  11.079   6.599 -0.0334 -0.0358  0.1128
 1094YOPC   C1A15479  12.445  10.791   6.966 -0.4008 -0.2639  0.3930
 1094YOPC   D2A15480  12.390  10.581   7.306 -0.1343 -0.1049  0.0413
 1094YOPC   C3A15481  12.566  10.372   7.654 -0.0075  0.0781  0.2973
 1094YOPC   C4A15482  12.804  10.126   7.911 -0.2122  0.2995  0.0144
 1094YOPC   C1B15483  11.947  10.972   7.068  0.0735 -0.0612  0.1279
 1094YOPC   C2B15484  12.062  10.896   7.523  0.2687  0.0199 -0.3079
 1094YOPC   D3B15485  12.176  10.637   7.806  0.1449 -0.1612  0.0391
 1094YOPC   C4B15486  12.106  10.635   8.171  0.3900 -0.1389 -0.0187
 1095YOPC   NC315487   2.085  16.391   6.145 -0.1732 -0.3246  0.1116
 1095YOPC   PO415488   2.246  16.074   6.385 -0.0134  0.0116  0.0982
 1095YOPC   GL115489   2.313  15.844   6.670 -0.1379 -0.1783 -0.1662
 1095YOPC   GL215490   2.401  15.575   6.583 -0.0902  0.0403 -0.2235
 1095YOPC   C1A15491   2.450  15.847   7.111 -0.2576  0.0176  0.1183
 1095YOPC   D2A15492   2.516  15.524   7.348 -0.3401  0.2005 -0.1402
 1095YOPC   C3A15493   2.648  15.482   7.844 -0.2368 -0.2026  0.0156
 1095YOPC   C4A15494   2.765  15.439   8.341  0.0414  0.1330  0.3098
 1095YOPC   C1B15495   2.257  15.421   6.923 -0.2247 -0.3046  0.1588
 1095YOPC   C2B15496   2.252  15.118   7.238 -0.2657  0.0507 -0.0188
 1095YOPC   D3B15497   2.272  15.213   7.624 -0.3101  0.3781  0.1137
 1095YOPC   C4B15498   2.181  15.188   8.066 -0.3227 -0.0689 -0.1701
 1096YOPC   NC315499  13.523   6.439   5.635  0.0654 -0.1416  0.0356
 1096YOPC   PO415500  13.840   6.103   5.753  0.0822  0.3468  0.0392
 1096YOPC   GL115501  13.726   6.264   6.104  0.0412  0.3560 -0.0238
 1096YOPC   GL215502  13.456   6.463   6.142  0.0514  0.1296 -0.1080
 1096YOPC   C1A15503  13.747   6.332   6.526  0.2244 -0.1295 -0.1652
 1096YOPC   D2A15504  13.493   6.308   6.847 -0.3423  0.1809  0.1329
 1096YOPC   C3A15505  13.260   5.982   6.830  0.2048  0.1839  0.1612
 1096YOPC   C4A15506  13.082   5.678   7.084  0.2031 -0.1761 -0.3132
 1096YOPC   C1B15507  13.170   6.469   6.503  0.1897  0.4070  0.1500
 1096YOPC   C2B15508  12.976   6.512   6.964 -0.1172  0.1488 -0.1292
 1096YOPC   D3B15509  12.963   6.210   7.362 -0.2629 -0.0148  0.1704
 1096YOPC   C4B15510  12.803   6.273   7.788  0.0932 -0.2167  0.2304
 1097YOPC   NC315511  11.430   1.873   6.181 -0.3373  0.0544  0.1318
 1097YOPC   PO415512  10.993   1.874   6.051  0.1228  0.1451  0.4636
 1097YOPC   GL115513  10.811   1.903   6.496 -0.1435 -0.4200 -0.1217
 1097YOPC   GL215514  11.103   1.902   6.652 -0.0402 -0.0175 -0.0072
 1097YOPC   C1A15515  10.566   1.875   6.942  0.3009 -0.2311 -0.3419
 1097YOPC   D2A15516  10.503   1.716   7.354 -0.1296  0.0955  0.0466
 1097YOPC   C3A15517  10.161   1.777   7.577  0.1063  0.0430  0.2718
 1097YOPC   C4A15518  10.029   1.528   7.971 -0.1873 -0.2879 -0.0014
 1097YOPC   C1B15519  11.092   1.889   7.079  0.0575 -0.1036 -0.1062
 1097YOPC   C2B15520  11.024   1.612   7.397  0.0086 -0.0102 -0.2287
 1097YOPC   D3B15521  10.786   1.874   7.709  0.0404 -0.1470  0.2888
 1097YOPC   C4B15522  10.366   1.925   8.034  0.1753  0.0640  0.2539
 1098YOPC   NC315523   3.089   7.900   5.384 -0.2954  0.1635  0.1400
 1098YOPC   PO415524   3.353   7.839   5.689 -0.0103 -0.1236 -0.0115
 1098YOPC   GL115525   3.377   7.860   6.141  0.0867 -0.0583 -0.4134
 1098YOPC   GL215526   3.076   7.809   6.291 -0.1929 -0.0708  0.4019
 1098YOPC   C1A15527   3.416   8.129   6.535  0.1402  0.0550  0.1237
 1098YOPC   D2A15528   3.140   8.167   6.890  0.1494 -0.1853 -0.2196
 1098YOPC   C3A15529   3.387   8.156   7.226  0.1181 -0.3952  0.0084
 1098YOPC   C4A15530   3.605   8.298   7.586  0.2571  0.2450 -0.0875
 1098YOPC   C1B15531   2.930   8.079   6.422  0.3026 -0.2396 -0.3438
 1098YOPC   C2B15532   2.625   8.182   6.786  0.0783  0.1583  0.0470
 1098YOPC   D3B15533   2.847   8.213   7.273  0.0995  0.4464  0.1857
 1098YOPC   C4B15534   3.049   8.019   7.685  0.0493  0.1938  0.0645
 1099YOPC   NC315535   5.812  15.842   6.305 -0.0615  0.2392  0.3180
 1099YOPC   PO415536   5.752  16.281   6.111 -0.1655  0.2583  0.3310
 1099YOPC   GL115537   5.561  16.314   6.463 -0.1426  0.2383  0.1702
 1099YOPC   GL215538   5.644  16.541   6.628 -0.3932 -0.0442 -0.1209
 1099YOPC   C1A15539   5.476  16.190   6.918  0.1302 -0.2898  0.1087
 1099YOPC   D2A15540   5.552  15.759   7.188 -0.1205 -0.3058  0.4412
 1099YOPC   C3A15541   5.256  15.598   7.391 -0.2666 -0.0697 -0.1169
 1099YOPC   C4A15542   4.864  15.636   7.621  0.3327  0.4940  0.1618
 1099YOPC   C1B15543   5.720  16.622   7.083  0.0504  0.0105 -0.3528
 1099YOPC   C2B15544   5.814  16.636   7.603 -0.0936 -0.1173  0.2798
 1099YOPC   D3B15545   5.625  16.666   7.999  0.1249 -0.2199  0.1130
 1099YOPC   C4B15546   5.948  16.503   8.240 -0.0236 -0.0157  0.1161
 1100YOPC   NC315547   8.427   7.145   6.370 -0.1745  0.1712  0.1331
 1100YOPC   PO415548   8.423   7.539   6.601 -0.0744  0.0900  0.3028
 1100YOPC   GL115549   8.722   7.696   6.889  0.0517 -0.0729 -0.1545
 1100YOPC   GL215550   8.853   7.928   6.810  0.0431 -0.2524 -0.0461
 1100YOPC   C1A15551   8.787   7.891   7.358  0.0347 -0.0983  0.3372
 1100YOPC   D2A15552   8.830   8.022   7.681  0.0217  0.0998  0.1235
 1100YOPC   C3A15553   8.569   8.171   7.949 -0.3021  0.1820 -0.0258
 1100YOPC   C4A15554   8.432   8.238   8.429 -0.1897 -0.0329  0.3194
 1100YOPC   C1B15555   9.231   8.026   6.998 -0.0022  0.2247  0.0516
 1100YOPC   C2B15556   9.189   8.299   7.253  0.1174 -0.2631 -0.2076
 1100YOPC   D3B15557   9.382   8.645   7.045  0.2525  0.0219 -0.0966
 1100YOPC   C4B15558   9.693   9.012   7.126  0.0900 -0.0884 -0.6095
 1101YOPC   NC315559   7.064  12.183   6.122  0.2008  0.0222 -0.4997
 1101YOPC   PO415560   7.207  12.224   6.588 -0.0544  0.0049  0.1849
 1101YOPC   GL115561   7.482  12.240   6.960  0.0438  0.0419 -0.0702
 1101YOPC   GL215562   7.753  12.429   7.070 -0.0071 -0.0357 -0.0746
 1101YOPC   C1A15563   7.376  12.302   7.448  0.1561  0.1286 -0.1459
 1101YOPC   D2A15564   7.369  12.362   7.841 -0.1543 -0.2611  0.1477
 1101YOPC   C3A15565   7.252  12.652   8.055  0.0252  0.1006 -0.0551
 1101YOPC   C4A15566   7.095  13.022   8.500  0.2176 -0.0681  0.5722
 1101YOPC   C1B15567   7.854  12.618   7.459  0.2574  0.0470  0.2484
 1101YOPC   C2B15568   7.816  12.736   7.821 -0.0206 -0.3950  0.0550
 1101YOPC   D3B15569   7.764  12.417   8.118  0.0448  0.0185  0.0033
 1101YOPC   C4B15570   8.036  12.229   8.279  0.0399  0.0134 -0.2265
 1102YOPC   NC315571   8.323   4.988   6.082  0.0384  0.2572 -0.2173
 1102YOPC   PO415572   8.168   4.779   6.495 -0.1664  0.1353 -0.2916
 1102YOPC   GL115573   8.129   5.056   6.905  0.0499 -0.1598 -0.0782
 1102YOPC   GL215574   7.855   5.208   7.149 -0.0502 -0.1147 -0.1835
 1102YOPC   C1A15575   8.317   5.149   7.348 -0.3763  0.1708 -0.0105
 1102YOPC   D2A15576   8.409   5.051   7.807 -0.1226 -0.1222 -0.0818
 1102YOPC   C3A15577   8.205   4.819   8.113 -0.1204  0.1086  0.2439
 1102YOPC   C4A15578   7.950   4.859   8.459 -0.0737 -0.0592 -0.0643
 1102YOPC   C1B15579   7.864   5.143   7.588 -0.1644 -0.0935  0.2570
 1102YOPC   C2B15580   7.810   5.077   8.040 -0.0165 -0.0666  0.1697
 1102YOPC   D3B15581   7.921   5.409   8.288  0.2821 -0.1861  0.2747
 1102YOPC   C4B15582   8.069   5.718   8.325  0.1972 -0.0005  0.5281
 1103ERGO   ROH15583  17.163   9.403   6.723  0.0313 -0.0855  0.0324
 1103ERGO    R115584  17.100   9.333   6.989  0.0102 -0.1705  0.0034
 1103ERGO    R215585  17.082   9.070   7.074  0.2473 -0.1900 -0.0289
 1103ERGO    R315586  17.261   9.152   7.261  0.0984 -0.0288  0.0498
 1103ERGO    R415587  17.073   8.983   7.408  0.2824 -0.3772 -0.0738
 1103ERGO    R515588  17.130   9.187   7.458 -0.0084 -0.3078  0.0417
 1103ERGO    C115589  17.236   9.010   7.778  0.1635 -0.3347 -0.0262
 1103ERGO    C215590  17.021   9.084   8.001 -0.1112 -0.2195  0.0081
 1104ERGO   ROH15591  17.627  11.581   6.684  0.3293  0.1188 -0.0233
 1104ERGO    R115592  17.520  11.561   6.945  0.2366 -0.1019 -0.0786
 1104ERGO    R215593  17.646  11.423   7.148  0.3767  0.0891 -0.0523
 1104ERGO    R315594  17.622  11.658   7.281 -0.0942  0.0276 -0.0070
 1104ERGO    R415595  17.715  11.467   7.483  0.7434  0.2224 -0.1382
 1104ERGO    R515596  17.539  11.596   7.497  0.3744 -0.2503  0.1186
 1104ERGO    C115597  17.732  11.715   7.804  0.5147  0.2425 -0.1458
 1104ERGO    C215598  17.863  11.874   8.188  0.1734  0.0296  0.1314
 1105ERGO   ROH15599   7.409   5.443   6.907  0.1560 -0.1344 -0.1057
 1105ERGO    R115600   7.315   5.480   7.172  0.1795 -0.0140 -0.1141
 1105ERGO    R215601   7.210   5.274   7.322  0.0348  0.0903 -0.0728
 1105ERGO    R315602   7.398   5.352   7.502  0.0880 -0.0035 -0.0863
 1105ERGO    R415603   7.171   5.262   7.666  0.0410  0.1358 -0.0702
 1105ERGO    R515604   7.272   5.455   7.678  0.1522  0.0812 -0.0881
 1105ERGO    C115605   7.326   5.329   8.034  0.0946  0.0742 -0.0814
 1105ERGO    C215606   7.166   5.055   8.179 -0.2282 -0.1783  0.2947
 1106ERGO   ROH15607   7.372   0.678   6.525  0.2111  0.4343  0.0125
 1106ERGO    R115608   7.265   0.736   6.780  0.0417  0.3157 -0.0299
 1106ERGO    R215609   7.133   0.547   6.932  0.0743  0.2028 -0.1395
 1106ERGO    R315610   7.316   0.618   7.121 -0.0656  0.2729 -0.0286
 1106ERGO    R415611   7.081   0.530   7.274 -0.1055  0.1316 -0.1693
 1106ERGO    R515612   7.186   0.720   7.294 -0.2146  0.1831 -0.0858
 1106ERGO    C115613   7.222   0.586   7.649 -0.3415  0.1558 -0.0825
 1106ERGO    C215614   7.419   0.467   7.802 -0.0596 -0.0351 -0.0190
 1107ERGO   ROH15615  17.235   6.568   6.082  0.1046  0.1200  0.1298
 1107ERGO    R115616  17.278   6.377   6.286  0.0097  0.0975  0.1289
 1107ERGO    R215617  17.529   6.316   6.384 -0.0106 -0.0886  0.0704
 1107ERGO    R315618  17.415   6.376   6.623  0.0926  0.0109  0.0954
 1107ERGO    R415619  17.660   6.230   6.692 -0.0833 -0.3196  0.0383
 1107ERGO    R515620  17.458   6.183   6.759 -0.1379 -0.0742  0.0517
 1107ERGO    C115621  17.630   6.236   7.096 -0.0288 -0.3608  0.0430
 1107ERGO    C215622  17.858   6.269   7.260  0.1296 -0.1887  0.0038
 1108ERGO   ROH15623  14.639  10.076   6.682  0.0584 -0.0248 -0.0818
 1108ERGO    R115624  14.535  10.068   6.945  0.0738  0.0224 -0.0741
 1108ERGO    R215625  14.570   9.851   7.112  0.0400  0.0309 -0.0548
 1108ERGO    R315626  14.670  10.038   7.282  0.0902  0.0276 -0.0805
 1108ERGO    R415627  14.527   9.850   7.455  0.0826  0.0655 -0.0492
 1108ERGO    R515628  14.499  10.066   7.447  0.1161  0.0682 -0.0616
 1108ERGO    C115629  14.596  10.025   7.814  0.1546  0.0826 -0.0700
 1108ERGO    C215630  14.556  10.058   8.159 -0.0261 -0.0055  0.3467
 1109ERGO   ROH15631   8.513  11.920   7.094  0.2131  0.1149 -0.2581
 1109ERGO    R115632   8.707  12.005   7.282  0.0874  0.1150 -0.1275
 1109ERGO    R215633   8.780  12.270   7.312  0.0092  0.1256 -0.0216
 1109ERGO    R315634   8.715  12.225   7.572 -0.1282  0.0473 -0.0685
 1109ERGO    R415635   8.940  12.412   7.583 -0.1987  0.1221  0.1054
 1109ERGO    R515636   8.925  12.220   7.686 -0.1936  0.0950  0.0548
 1109ERGO    C115637   8.972  12.452   7.985 -0.4488  0.0466  0.1354
 1109ERGO    C215638   9.178  12.739   8.074 -0.0044  0.1674  0.0603
 1110ERGO   ROH15639   9.781   7.601   6.452  0.1142  0.0761  0.0190
 1110ERGO    R115640   9.748   7.535   6.726  0.1759  0.1140  0.0352
 1110ERGO    R215641   9.808   7.712   6.929  0.0270  0.2164 -0.0097
 1110ERGO    R315642   9.553   7.660   7.006  0.0715  0.0138  0.0083
 1110ERGO    R415643   9.661   7.832   7.217 -0.1473  0.3687 -0.1595
 1110ERGO    R515644   9.566   7.638   7.244  0.0656  0.2870  0.0376
 1110ERGO    C115645   9.335   7.854   7.458 -0.2071  0.2672 -0.2299
 1110ERGO    C215646   9.262   7.838   7.674 -0.0486 -0.0185  0.1853
 1111ERGO   ROH15647   9.448   0.649   8.420 -0.3790  0.0016  0.0767
 1111ERGO    R115648   9.554   0.564   8.668 -0.2893  0.0056  0.0407
 1111ERGO    R215649   9.706   0.729   8.829 -0.0852 -0.0446 -0.0943
 1111ERGO    R315650   9.521   0.663   9.017 -0.0225  0.1319  0.0313
 1111ERGO    R415651   9.767   0.714   9.169  0.0741  0.0908 -0.1156
 1111ERGO    R515652   9.644   0.535   9.178 -0.0047  0.1535  0.0326
 1111ERGO    C115653   9.629   0.644   9.543  0.2254  0.3354 -0.0102
 1111ERGO    C215654   9.699   0.649   9.897  0.1078 -0.0341 -0.1306
 1112ERGO   ROH15655   9.152  13.628   6.708  0.1537 -0.0662  0.2340
 1112ERGO    R115656   8.967  13.744   6.888  0.2342  0.2838  0.0993
 1112ERGO    R215657   8.885  13.616   7.120 -0.3798  0.3041 -0.0940
 1112ERGO    R315658   8.968  13.847   7.237  0.0974  0.0098  0.1853
 1112ERGO    R415659   8.767  13.737   7.421 -0.5555  0.4416 -0.2154
 1112ERGO    R515660   8.769  13.938   7.335  0.1659  0.5164 -0.1006
 1112ERGO    C115661   8.775  14.025   7.707 -0.2099  0.2452 -0.0239
 1112ERGO    C215662   8.741  14.123   8.048  0.1595  0.0684 -0.0157
 1113ERGO   ROH15663   6.042   1.747   6.124  0.0021  0.0121 -0.1139
 1113ERGO    R115664   5.959   1.854   6.372  0.2046  0.0279 -0.0512
 1113ERGO    R215665   5.694   1.863   6.450  0.2113  0.4775 -0.0460
 1113ERGO    R315666   5.788   1.732   6.669 -0.0224  0.1713 -0.1213
 1113ERGO    R415667   5.554   1.882   6.765  0.1703  0.4337 -0.0614
 1113ERGO    R515668   5.756   1.888   6.849  0.1626  0.0806 -0.0085
 1113ERGO    C115669   5.560   1.771   7.155 -0.0730  0.1208 -0.1410
 1113ERGO    C215670   5.254   1.684   7.331  0.0086  0.0729  0.1502
 1114ERGO   ROH15671  12.199  11.553   6.592  0.1162  0.0823  0.0143
 1114ERGO    R115672  12.163  11.441   6.849 -0.1353  0.2243  0.0433
 1114ERGO    R215673  12.370  11.328   6.994 -0.3890 -0.2700  0.0406
 1114ERGO    R315674  12.289  11.504   7.185  0.0689 -0.0148  0.0143
 1114ERGO    R415675  12.349  11.257   7.331 -0.4332 -0.1189  0.0705
 1114ERGO    R515676  12.163  11.370   7.339 -0.1862  0.3103  0.1016
 1114ERGO    C115677  12.262  11.380   7.707 -0.0289  0.2086  0.0631
 1114ERGO    C215678  12.257  11.179   7.874  0.2125  0.0384 -0.1921
 1115ERGO   ROH15679   5.899  11.885   6.920 -0.1825 -0.1324 -0.0648
 1115ERGO    R115680   5.963  11.824   7.189 -0.0640  0.0113 -0.0575
 1115ERGO    R215681   5.933  12.005   7.394 -0.1148  0.0787 -0.1180
 1115ERGO    R315682   5.784  11.807   7.506  0.0362  0.0278 -0.0003
 1115ERGO    R415683   5.786  12.021   7.707 -0.0318  0.1009 -0.0807
 1115ERGO    R515684   5.843  11.813   7.738  0.1021  0.1459 -0.0204
 1115ERGO    C115685   5.561  11.844   7.994  0.1581  0.0661  0.0517
 1115ERGO    C215686   5.340  11.866   8.184  0.0738 -0.0729  0.0183
 1116ERGO   ROH15687   7.627  13.551   6.986 -0.2801 -0.1184  0.1376
 1116ERGO    R115688   7.730  13.740   7.169 -0.1902 -0.0478  0.0165
 1116ERGO    R215689   7.570  13.874   7.350 -0.1246  0.1257 -0.0467
 1116ERGO    R315690   7.748  13.776   7.531 -0.1483  0.1601 -0.0054
 1116ERGO    R415691   7.581  13.962   7.684 -0.1098  0.2492 -0.0796
 1116ERGO    R515692   7.798  13.963   7.672 -0.1125  0.2009 -0.0757
 1116ERGO    C115693   7.754  13.920   8.049 -0.1234  0.3534 -0.0599
 1116ERGO    C215694   7.870  13.966   8.415 -0.0234  0.5393  0.1089
 1117ERGO   ROH15695   2.305  13.552   6.816  0.0079 -0.1166  0.0306
 1117ERGO    R115696   2.215  13.549   7.085  0.0141  0.2069  0.0409
 1117ERGO    R215697   2.238  13.327   7.247 -0.5307  0.1872  0.1211
 1117ERGO    R315698   2.364  13.502   7.413 -0.0679 -0.0533  0.0410
 1117ERGO    R415699   2.312  13.267   7.580 -0.4304  0.0588  0.0757
 1117ERGO    R515700   2.255  13.472   7.625  0.0101  0.1753  0.1108
 1117ERGO    C115701   2.473  13.396   7.929  0.0626 -0.2417 -0.0259
 1117ERGO    C215702   2.455  13.207   8.231 -0.0501  0.0524 -0.0121
 1118ERGO   ROH15703   1.082   0.984   6.714 -0.0863  0.0870 -0.0328
 1118ERGO    R115704   0.971   0.976   6.974 -0.1008  0.1757 -0.0363
 1118ERGO    R215705   1.110   0.877   7.192 -0.2184 -0.0193 -0.0491
 1118ERGO    R315706   1.051   1.120   7.299  0.0607  0.0360 -0.0125
 1118ERGO    R415707   1.206   0.982   7.507  0.0352 -0.1174 -0.0912
 1118ERGO    R515708   1.010   1.074   7.531  0.1295  0.0677  0.0071
 1118ERGO    C115709   1.207   1.272   7.791  0.4449 -0.1225 -0.0812
 1118ERGO    C215710   1.382   1.281   8.110  0.0418 -0.1698 -0.3424
 1119ERGO   ROH15711   6.636   7.290   7.073  0.0721  0.2321 -0.1762
 1119ERGO    R115712   6.484   7.345   7.306  0.0595  0.0059 -0.1286
 1119ERGO    R215713   6.536   7.224   7.548  0.2246 -0.0260 -0.1768
 1119ERGO    R315714   6.549   7.481   7.637 -0.0116 -0.0399 -0.0962
 1119ERGO    R415715   6.613   7.317   7.872  0.2337 -0.0519 -0.1717
 1119ERGO    R515716   6.459   7.471   7.859  0.0697 -0.2053 -0.0700
 1119ERGO    C115717   6.670   7.613   8.144  0.0173 -0.0799 -0.0931
 1119ERGO    C215718   6.814   7.673   8.564  0.1345  0.0555 -0.1812
 1120ERGO   ROH15719  17.374  12.549   7.097  0.0660 -0.2113 -0.0268
 1120ERGO    R115720  17.454  12.704   7.320  0.1136 -0.1022 -0.1184
 1120ERGO    R215721  17.408  12.624   7.581  0.0366  0.0943 -0.0692
 1120ERGO    R315722  17.677  12.661   7.605  0.0531 -0.0259 -0.0594
 1120ERGO    R415723  17.563  12.783   7.846  0.0857  0.1572 -0.1354
 1120ERGO    R515724  17.698  12.878   7.704  0.1493  0.0162 -0.1706
 1120ERGO    C115725  17.904  12.911   8.023  0.1294  0.0810 -0.1646
 1120ERGO    C215726  18.207  12.907   8.277  0.0322 -0.1495 -0.0788
 1121ERGO   ROH15727   5.211   0.147   6.371 -0.0059 -0.0178 -0.0387
 1121ERGO    R115728   5.248   0.180   6.650  0.0440 -0.1218 -0.0321
 1121ERGO    R215729   5.339   0.416   6.761  0.1407 -0.1865  0.0349
 1121ERGO    R315730   5.114   0.394   6.911  0.1525 -0.1604  0.0551
 1121ERGO    R415731   5.273   0.599   7.046  0.0829 -0.0164 -0.0867
 1121ERGO    R515732   5.189   0.419   7.137  0.1466  0.0181  0.0361
 1121ERGO    C115733   5.022   0.685   7.353  0.0604  0.1073 -0.1386
 1121ERGO    C215734   4.744   0.726   7.699 -0.0094 -0.1495 -0.0339
 1122ERGO   ROH15735   7.921  16.030   6.655 -0.1295  0.0279 -0.1589
 1122ERGO    R115736   8.066  15.995   6.896 -0.0926  0.1747 -0.1591
 1122ERGO    R215737   8.053  16.176   7.106 -0.3314  0.1269 -0.1338
 1122ERGO    R315738   7.986  15.955   7.249 -0.0552  0.0173 -0.1668
 1122ERGO    R415739   8.042  16.159   7.450 -0.1954  0.0335 -0.1329
 1122ERGO    R515740   8.131  15.961   7.439  0.0092  0.1216 -0.2141
 1122ERGO    C115741   7.973  15.942   7.786  0.1432 -0.1242 -0.1634
 1122ERGO    C215742   7.816  15.974   7.944  0.4514 -0.0770  0.1234
 1123ERGO   ROH15743  16.730  17.539   6.589 -0.0203  0.1289 -0.1515
 1123ERGO    R115744  16.823  17.595   6.851 -0.1499  0.1593 -0.1107
 1123ERGO    R215745  16.655  17.599   7.071 -0.2180 -0.0757 -0.1541
 1123ERGO    R315746  16.834  17.420   7.169 -0.0542  0.0851 -0.1546
 1123ERGO    R415747  16.699  17.527   7.406 -0.1967 -0.0828 -0.1586
 1123ERGO    R515748  16.914  17.520   7.371 -0.1829  0.1346 -0.1279
 1123ERGO    C115749  16.892  17.317   7.694 -0.0308  0.0640 -0.1616
 1123ERGO    C215750  16.728  17.369   7.937 -0.1165 -0.3039 -0.1892
 1124ERGO   ROH15751  10.111   8.607   6.685  0.1430  0.3365 -0.0114
 1124ERGO    R115752  10.215   8.614   6.948  0.0536  0.2843  0.0264
 1124ERGO    R215753  10.089   8.748   7.153 -0.0794  0.1459  0.0407
 1124ERGO    R315754  10.106   8.507   7.278 -0.0062  0.1033 -0.0513
 1124ERGO    R415755  10.018   8.694   7.487 -0.1566 -0.0254 -0.0028
 1124ERGO    R515756  10.190   8.560   7.497 -0.0987  0.0521 -0.0049
 1124ERGO    C115757   9.992   8.437   7.799 -0.1328 -0.1651 -0.1144
 1124ERGO    C215758   9.679   8.584   8.023 -0.1087  0.1883  0.2664
 1125ERGO   ROH15759   5.965  13.043  10.516  0.1457  0.0006  0.0875
 1125ERGO    R115760   5.935  12.948  10.251  0.1230  0.0350  0.0777
 1125ERGO    R215761   5.925  13.117  10.032  0.1174  0.0628  0.0991
 1125ERGO    R315762   6.127  12.960   9.942  0.1032  0.0629  0.0666
 1125ERGO    R415763   6.000  13.063   9.699  0.0153 -0.0022  0.0862
 1125ERGO    R515764   6.038  12.853   9.747  0.0506  0.0123  0.1184
 1125ERGO    C115765   6.234  12.883   9.421 -0.0575 -0.0399  0.0481
 1125ERGO    C215766   6.344  13.080   9.209 -0.1359  0.1429  0.0401
 1126ERGO   ROH15767   7.663  11.723   6.945 -0.5153 -0.0966 -0.2218
 1126ERGO    R115768   7.465  11.805   7.130 -0.3201 -0.1040 -0.0029
 1126ERGO    R215769   7.313  11.625   7.274 -0.2478 -0.1148  0.0736
 1126ERGO    R315770   7.405  11.766   7.487  0.0041 -0.2256  0.0402
 1126ERGO    R415771   7.216  11.573   7.602 -0.1340 -0.0293  0.1201
 1126ERGO    R515772   7.214  11.790   7.629  0.1047 -0.0340  0.1383
 1126ERGO    C115773   7.246  11.677   7.992  0.1688 -0.0835  0.1157
 1126ERGO    C215774   7.113  11.644   8.390 -0.1559  0.0432 -0.3335
 1127ERGO   ROH15775   0.745   4.837   6.428  0.2035 -0.3455  0.1021
 1127ERGO    R115776   0.792   4.957   6.680  0.0210 -0.1978  0.0691
 1127ERGO    R215777   0.611   4.944   6.888 -0.0273 -0.2866  0.0287
 1127ERGO    R315778   0.825   4.846   7.024  0.0328 -0.0329  0.1205
 1127ERGO    R415779   0.620   4.889   7.229 -0.0482 -0.1441  0.0520
 1127ERGO    R515780   0.824   4.966   7.231 -0.1237  0.0454  0.0711
 1127ERGO    C115781   0.826   4.766   7.556 -0.0039  0.1770  0.1517
 1127ERGO    C215782   0.838   4.706   7.822  0.1466  0.2359 -0.2409
 1128ERGO   ROH15783  15.948   2.784   6.227  0.0165  0.2459  0.0182
 1128ERGO    R115784  15.839   2.694   6.472 -0.0092  0.1803 -0.0182
 1128ERGO    R215785  15.995   2.638   6.692 -0.0362  0.1427 -0.0142
 1128ERGO    R315786  15.828   2.813   6.816 -0.0674  0.0978  0.0100
 1128ERGO    R415787  15.992   2.700   7.032 -0.1088  0.0191  0.0094
 1128ERGO    R515788  15.774   2.706   7.024 -0.1114  0.0187 -0.0378
 1128ERGO    C115789  15.833   2.901   7.346 -0.1802 -0.0950  0.0459
 1128ERGO    C215790  15.978   2.887   7.666  0.3266  0.0196  0.0915
 1129ERGO   ROH15791  13.157   1.740   6.053 -0.0523 -0.1761 -0.0922
 1129ERGO    R115792  13.119   1.860   6.306 -0.1947 -0.2242 -0.0897
 1129ERGO    R215793  13.029   1.719   6.526  0.0684 -0.3636 -0.0652
 1129ERGO    R315794  13.254   1.818   6.642 -0.0595 -0.0009 -0.1150
 1129ERGO    R415795  13.067   1.775   6.864  0.0876 -0.3808 -0.0644
 1129ERGO    R515796  13.172   1.960   6.816 -0.2477 -0.1836 -0.0530
 1129ERGO    C115797  13.301   1.901   7.171 -0.0213 -0.0503 -0.1107
 1129ERGO    C215798  13.195   1.796   7.524  0.0342  0.1081  0.1026
 1130ERGO   ROH15799  15.414   5.748   6.358 -0.1185 -0.1525 -0.0074
 1130ERGO    R115800  15.290   5.732   6.612 -0.0688 -0.1259  0.0182
 1130ERGO    R215801  15.419   5.632   6.835  0.0065 -0.0138  0.0235
 1130ERGO    R315802  15.348   5.871   6.943 -0.0637 -0.0092 -0.0305
 1130ERGO    R415803  15.386   5.693   7.173  0.0015  0.0554  0.0112
 1130ERGO    R515804  15.209   5.813   7.130 -0.0387 -0.0094 -0.0107
 1130ERGO    C115805  15.300   5.953   7.472 -0.0673  0.0999 -0.0468
 1130ERGO    C215806  15.246   6.189   7.840 -0.0865  0.2850  0.1516
 1131ERGO   ROH15807  10.115  12.396   6.864 -0.2245  0.1173 -0.2593
 1131ERGO    R115808  10.048  12.598   7.051 -0.0468  0.1450 -0.2257
 1131ERGO    R215809   9.918  12.545   7.289 -0.1863  0.2299 -0.2875
 1131ERGO    R315810  10.130  12.676   7.397 -0.0664 -0.0445 -0.1755
 1131ERGO    R415811   9.935  12.659   7.615 -0.3063  0.3795 -0.3317
 1131ERGO    R515812  10.032  12.840   7.541  0.0513  0.1964 -0.3535
 1131ERGO    C115813  10.144  12.849   7.905 -0.2637  0.2090 -0.2524
 1131ERGO    C215814  10.005  13.095   8.203 -0.0119 -0.2344  0.2217
 1132ERGO   ROH15815  14.503  11.222   6.904  0.2302 -0.1846 -0.2154
 1132ERGO    R115816  14.551  11.097   7.153  0.1299 -0.1690 -0.1880
 1132ERGO    R215817  14.792  10.975   7.214  0.1160 -0.1361 -0.0718
 1132ERGO    R315818  14.783  11.140   7.430 -0.0042 -0.1302 -0.0800
 1132ERGO    R415819  14.864  10.880   7.538  0.1029 -0.0889 -0.0546
 1132ERGO    R515820  14.698  11.003   7.606  0.0291 -0.1661 -0.0902
 1132ERGO    C115821  14.899  10.979   7.930 -0.0178 -0.0559 -0.0522
 1132ERGO    C215822  14.946  10.892   8.289 -0.0881 -0.0183  0.2590
 1133ERGO   ROH15823   6.894   1.549   6.670 -0.3043  0.1519  0.0014
 1133ERGO    R115824   6.760   1.675   6.886 -0.1878  0.1843  0.0563
 1133ERGO    R215825   6.701   1.543   7.121 -0.2792  0.1459  0.0138
 1133ERGO    R315826   6.833   1.752   7.234 -0.0992 -0.0013  0.0797
 1133ERGO    R415827   6.614   1.695   7.419 -0.2111  0.1956  0.0084
 1133ERGO    R515828   6.661   1.888   7.329  0.0099  0.1617  0.0476
 1133ERGO    C115829   6.688   1.979   7.698 -0.0025  0.0862  0.0670
 1133ERGO    C215830   6.728   1.930   8.009  0.0996  0.0157  0.2859
 1134ERGO   ROH15831   7.762   4.685   6.835  0.2102 -0.0590 -0.0172
 1134ERGO    R115832   7.916   4.579   7.048  0.2712  0.2051  0.0762
 1134ERGO    R215833   7.978   4.724   7.274 -0.2269  0.2793  0.1829
 1134ERGO    R315834   7.867   4.512   7.402  0.1151 -0.0077  0.0139
 1134ERGO    R415835   7.974   4.679   7.617 -0.4123  0.1374  0.1633
 1134ERGO    R515836   8.015   4.468   7.585  0.0597  0.2341  0.1134
 1134ERGO    C115837   7.868   4.454   7.936 -0.1991 -0.2146 -0.0068
 1134ERGO    C215838   7.809   4.309   8.275 -0.0248  0.1504  0.2466
 1135ERGO   ROH15839   1.474  16.840   6.822  0.0195 -0.4846  0.1554
 1135ERGO    R115840   1.397  16.910   7.085  0.0031 -0.4682  0.1466
 1135ERGO    R215841   1.436  16.741   7.302  0.2265 -0.3514  0.2020
 1135ERGO    R315842   1.564  16.958   7.405  0.0251 -0.1774  0.0935
 1135ERGO    R415843   1.471  16.809   7.639  0.2603 -0.2045  0.1695
 1135ERGO    R515844   1.434  17.019   7.596  0.0188 -0.2574  0.1136
 1135ERGO    C115845   1.611  17.051   7.932  0.0909  0.0443  0.0488
 1135ERGO    C215846   1.643  17.142   8.173  0.2594 -0.1335 -0.0649
 1136ERGO   ROH15847   6.532  11.155   7.049  0.0916  0.2604  0.1883
 1136ERGO    R115848   6.425  11.022   7.275 -0.0178  0.1789  0.0900
 1136ERGO    R215849   6.570  10.982   7.507 -0.0454 -0.1184  0.0636
 1136ERGO    R315850   6.356  11.105   7.622  0.0576 -0.0222  0.1531
 1136ERGO    R415851   6.472  10.942   7.836 -0.0158 -0.1815  0.0645
 1136ERGO    R515852   6.265  10.940   7.770 -0.0269 -0.0164  0.1031
 1136ERGO    C115853   6.215  11.034   8.136  0.0982 -0.1280  0.1491
 1136ERGO    C215854   6.013  11.106   8.431  0.0139  0.1297 -0.2850
 1137ERGO   ROH15855   1.033   7.919   8.440 -0.1478  0.2242 -0.0091
 1137ERGO    R115856   0.879   7.829   8.659 -0.0428  0.1465  0.0343
 1137ERGO    R215857   0.985   7.677   8.864  0.0645  0.1010 -0.0509
 1137ERGO    R315858   0.881   7.873   9.020  0.1106  0.0490  0.0452
 1137ERGO    R415859   0.938   7.652   9.205  0.0456 -0.0521 -0.0641
 1137ERGO    R515860   0.747   7.756   9.181  0.0761  0.0075 -0.0174
 1137ERGO    C115861   0.812   7.822   9.551  0.0778 -0.1901  0.0184
 1137ERGO    C215862   0.815   7.859   9.822 -0.0218 -0.0755 -0.3325
 1138ERGO   ROH15863  12.103   0.796   6.572 -0.1130 -0.0683  0.0199
 1138ERGO    R115864  12.149   0.890   6.835  0.0697 -0.2513  0.0558
 1138ERGO    R215865  12.401   0.890   6.951  0.2192 -0.0219 -0.2403
 1138ERGO    R315866  12.346   1.153   6.991 -0.1006 -0.1262  0.0577
 1138ERGO    R415867  12.521   1.079   7.214  0.0650 -0.1298 -0.0900
 1138ERGO    R515868  12.326   1.174   7.229 -0.0464 -0.3925  0.0830
 1138ERGO    C115869  12.541   1.436   7.405 -0.3250 -0.2905  0.2773
 1138ERGO    C215870  12.689   1.545   7.683  0.1142 -0.0875 -0.0811
 1139ERGO   ROH15871  12.940   8.438   6.739 -0.1203  0.1646 -0.1788
 1139ERGO    R115872  13.009   8.433   7.013 -0.0080  0.2240 -0.2063
 1139ERGO    R215873  13.113   8.653   7.145 -0.2111  0.3346 -0.2343
 1139ERGO    R315874  12.906   8.608   7.315 -0.0950  0.0835 -0.1524
 1139ERGO    R415875  13.127   8.692   7.488 -0.0708  0.1787 -0.2201
 1139ERGO    R515876  13.008   8.511   7.509  0.0829  0.0679 -0.2482
 1139ERGO    C115877  12.940   8.672   7.848  0.1201 -0.1479 -0.1348
 1139ERGO    C215878  13.030   8.957   8.130  0.0995 -0.1212  0.2037
 1140ERGO   ROH15879   1.813  15.700   6.762  0.2040 -0.1352 -0.1503
 1140ERGO    R115880   1.948  15.780   6.998  0.1746 -0.1415 -0.1327
 1140ERGO    R215881   1.814  15.833   7.235  0.1164  0.1217 -0.2273
 1140ERGO    R315882   1.989  15.651   7.336 -0.1115  0.0012 -0.0375
 1140ERGO    R415883   1.920  15.823   7.564  0.2089  0.4377 -0.2439
 1140ERGO    R515884   2.121  15.776   7.492  0.1264  0.0420 -0.2573
 1140ERGO    C115885   2.146  15.647   7.850  0.0488  0.5084 -0.0753
 1140ERGO    C215886   2.322  15.688   8.165  0.2523 -0.2501  0.1309
 1141ERGO   ROH15887  11.132   5.009   6.755 -0.1172 -0.2197 -0.0284
 1141ERGO    R115888  11.222   4.887   6.994  0.0556 -0.1577 -0.0599
 1141ERGO    R215889  11.424   4.995   7.149  0.0202 -0.0003 -0.1159
 1141ERGO    R315890  11.238   4.976   7.346  0.0924 -0.1569 -0.0627
 1141ERGO    R415891  11.496   4.964   7.486  0.1388  0.1384 -0.1278
 1141ERGO    R515892  11.332   4.821   7.502  0.2938 -0.0280 -0.0564
 1141ERGO    C115893  11.363   4.927   7.867  0.2758  0.0722 -0.0848
 1141ERGO    C215894  11.360   4.870   8.214  0.2106  0.1136 -0.0860
 1142ERGO   ROH15895   3.603   7.709   7.091 -0.2333  0.0448  0.1030
 1142ERGO    R115896   3.705   7.728   7.354 -0.1344  0.0191  0.0679
 1142ERGO    R215897   3.609   7.573   7.562 -0.1168  0.0596  0.1087
 1142ERGO    R315898   3.871   7.506   7.590 -0.1303 -0.0312  0.0176
 1142ERGO    R415899   3.739   7.396   7.828 -0.0655  0.1319  0.1311
 1142ERGO    R515900   3.913   7.529   7.825 -0.0133  0.0620 -0.0115
 1142ERGO    C115901   4.061   7.230   8.010 -0.0483  0.0889  0.0584
 1142ERGO    C215902   3.935   6.958   8.223  0.2029 -0.3250 -0.1368
 1143ERGO   ROH15903  13.626   9.679   6.904  0.0377  0.0021 -0.0904
 1143ERGO    R115904  13.522   9.669   7.167 -0.1031  0.3160 -0.1313
 1143ERGO    R215905  13.637   9.518   7.367 -0.5356  0.1000 -0.0439
 1143ERGO    R315906  13.638   9.755   7.501 -0.0474  0.1428 -0.1029
 1143ERGO    R415907  13.673   9.550   7.709 -0.6800  0.0719 -0.0246
 1143ERGO    R515908  13.521   9.707   7.705 -0.3107  0.4579 -0.1633
 1143ERGO    C115909  13.695   9.790   8.034 -0.3057  0.0958 -0.0688
 1143ERGO    C215910  13.835   9.624   8.333  0.0870 -0.1045 -0.0189
 1144ERGO   ROH15911  15.498  13.246   7.061 -0.0381  0.0320 -0.0053
 1144ERGO    R115912  15.651  13.179   7.290 -0.0226 -0.0604 -0.0419
 1144ERGO    R215913  15.712  13.363   7.487  0.1527 -0.0921 -0.0650
 1144ERGO    R315914  15.599  13.177   7.651  0.0698 -0.0098 -0.0283
 1144ERGO    R415915  15.786  13.324   7.822  0.1103 -0.0365 -0.0492
 1144ERGO    R515916  15.778  13.108   7.794  0.0321 -0.0409  0.0035
 1144ERGO    C115917  15.723  13.127   8.171  0.0079  0.0730 -0.0056
 1144ERGO    C215918  15.878  13.065   8.562 -0.2588  0.0136  0.0817
 1145ERGO   ROH15919  15.032   6.934   6.649 -0.0093 -0.0601 -0.0807
 1145ERGO    R115920  15.013   6.972   6.929  0.1192 -0.0949 -0.0664
 1145ERGO    R215921  14.776   6.938   7.067  0.0637  0.3579 -0.0353
 1145ERGO    R315922  14.926   6.768   7.218 -0.2557 -0.0023 -0.1096
 1145ERGO    R415923  14.712   6.859   7.397  0.1073  0.6136  0.0373
 1145ERGO    R515924  14.927   6.867   7.436  0.1740  0.0629 -0.1337
 1145ERGO    C115925  14.815   6.652   7.731 -0.1671  0.4242  0.0099
 1145ERGO    C215926  14.784   6.483   8.031 -0.0354 -0.0023  0.0852
 1146ERGO   ROH15927   4.280   9.661   6.412 -0.0850  0.2803 -0.1615
 1146ERGO    R115928   4.091   9.690   6.621 -0.1168  0.0274 -0.1522
 1146ERGO    R215929   4.002   9.476   6.772  0.2750 -0.0770 -0.0603
 1146ERGO    R315930   4.082   9.632   6.980  0.0270  0.1480 -0.1282
 1146ERGO    R415931   4.033   9.370   7.100  0.4414  0.1128 -0.0124
 1146ERGO    R515932   3.948   9.560   7.164  0.1361  0.0140 -0.0988
 1146ERGO    C115933   4.125   9.455   7.485  0.3055  0.4346 -0.0484
 1146ERGO    C215934   3.950   9.413   7.819 -0.0968 -0.2652 -0.0673
 1147ERGO   ROH15935   8.511  13.198   6.584 -0.1771  0.1152 -0.1427
 1147ERGO    R115936   8.520  13.148   6.863 -0.1405  0.0951 -0.1478
 1147ERGO    R215937   8.741  13.208   7.017 -0.0958  0.0219 -0.1852
 1147ERGO    R315938   8.560  13.346   7.165 -0.0289  0.0645 -0.1415
 1147ERGO    R415939   8.756  13.250   7.360  0.0491  0.1002 -0.1999
 1147ERGO    R515940   8.541  13.220   7.368  0.0497  0.1113 -0.1038
 1147ERGO    C115941   8.594  13.404   7.699  0.1961  0.1858 -0.1674
 1147ERGO    C215942   8.555  13.647   7.931  0.1796  0.1355 -0.0823
 1148ERGO   ROH15943   8.849  12.558  10.472 -0.1002  0.0143  0.1287
 1148ERGO    R115944   8.718  12.528  10.223 -0.0959 -0.0492  0.1342
 1148ERGO    R215945   8.772  12.690  10.006 -0.1974 -0.0107  0.1381
 1148ERGO    R315946   8.816  12.452   9.881 -0.0713  0.0184  0.1257
 1148ERGO    R415947   8.759  12.641   9.664 -0.3518 -0.0329  0.1462
 1148ERGO    R515948   8.660  12.451   9.699 -0.1758 -0.1169  0.2133
 1148ERGO    C115949   8.793  12.390   9.348 -0.3231 -0.0184  0.1394
 1148ERGO    C215950   8.769  12.267   9.041 -0.0056  0.1447 -0.3973
 1149ERGO   ROH15951   9.744   0.575   6.539 -0.0360  0.0797  0.1040
 1149ERGO    R115952   9.671   0.464   6.788  0.1400  0.0405  0.1402
 1149ERGO    R215953   9.856   0.404   6.985  0.2642  0.1602  0.0644
 1149ERGO    R315954   9.695   0.561   7.138  0.2317  0.0671  0.1261
 1149ERGO    R415955   9.822   0.376   7.328  0.0966 -0.1239  0.0278
 1149ERGO    R515956   9.608   0.412   7.305  0.1176 -0.0533 -0.0406
 1149ERGO    C115957   9.652   0.507   7.671 -0.0315 -0.3767  0.0644
 1149ERGO    C215958   9.641   0.630   7.885 -0.0257 -0.0374 -0.0379
 1150ERGO   ROH15959  11.806  11.835   6.773 -0.1327 -0.2656 -0.1831
 1150ERGO    R115960  11.651  11.704   6.970 -0.0770 -0.0716 -0.0067
 1150ERGO    R215961  11.710  11.449   7.062 -0.1074 -0.0190  0.1583
 1150ERGO    R315962  11.706  11.571   7.305  0.0435  0.1670  0.0710
 1150ERGO    R415963  11.745  11.287   7.365  0.0798  0.2068  0.2613
 1150ERGO    R515964  11.590  11.416   7.447  0.1287  0.2707  0.2600
 1150ERGO    C115965  11.761  11.306   7.769  0.3304  0.5129  0.2393
 1150ERGO    C215966  11.802  10.993   7.925 -0.1069  0.1161  0.1671
 1151ERGO   ROH15967   2.660   9.002   6.422 -0.1072 -0.0077 -0.0909
 1151ERGO    R115968   2.650   9.117   6.681  0.0547 -0.0562 -0.0632
 1151ERGO    R215969   2.413   9.152   6.820  0.1246  0.0842  0.0133
 1151ERGO    R315970   2.544   9.012   7.013  0.0806 -0.0493 -0.0510
 1151ERGO    R415971   2.395   9.215   7.159  0.2749  0.0523  0.0288
 1151ERGO    R515972   2.608   9.176   7.174  0.2573 -0.1150 -0.0450
 1151ERGO    C115973   2.507   9.121   7.538  0.3211 -0.0917 -0.0226
 1151ERGO    C215974   2.558   9.087   7.904 -0.2850  0.0847 -0.1541
 1152ERGO   ROH15975   8.258   7.697   7.106 -0.2087  0.2463  0.0169
 1152ERGO    R115976   8.202   7.742   7.380 -0.0538  0.0671  0.0805
 1152ERGO    R215977   8.241   7.548   7.572  0.1558 -0.0289 -0.0480
 1152ERGO    R315978   8.390   7.741   7.691  0.1488 -0.0289 -0.0412
 1152ERGO    R415979   8.316   7.559   7.910 -0.0268  0.0895 -0.0101
 1152ERGO    R515980   8.285   7.775   7.904  0.0442  0.0929 -0.1149
 1152ERGO    C115981   8.500   7.746   8.218 -0.1399  0.1585  0.0183
 1152ERGO    C215982   8.659   7.664   8.601 -0.0625  0.2249 -0.0313
 1153ERGO   ROH15983   0.122  10.635   8.583  0.0170  0.0602  0.0665
 1153ERGO    R115984   0.139  10.492   8.826  0.1335  0.0634  0.0604
 1153ERGO    R215985   0.377  10.461   8.964  0.1641  0.2265  0.0438
 1153ERGO    R315986   0.234  10.565   9.170  0.1032  0.1174  0.0576
 1153ERGO    R415987   0.378  10.339   9.287  0.0615  0.0458 -0.0226
 1153ERGO    R515988   0.163  10.374   9.296  0.0583  0.0474 -0.0696
 1153ERGO    C115989   0.244  10.366   9.669 -0.0554 -0.1619 -0.0483
 1153ERGO    C215990   0.101  10.375   9.914 -0.0496  0.2182 -0.4060
 1154ERGO   ROH15991  14.931  17.263   6.439 -0.0865  0.2189 -0.0615
 1154ERGO    R115992  14.934  17.162   6.703 -0.0068  0.1657 -0.0818
 1154ERGO    R215993  14.889  17.322   6.924 -0.1074  0.0913 -0.0447
 1154ERGO    R315994  14.698  17.136   6.979  0.0205 -0.0510 -0.0781
 1154ERGO    R415995  14.753  17.265   7.237 -0.0291 -0.1044 -0.0452
 1154ERGO    R515996  14.759  17.051   7.195  0.1036 -0.0853 -0.1163
 1154ERGO    C115997  14.495  17.058   7.470  0.1365 -0.3518 -0.0768
 1154ERGO    C215998  14.382  17.127   7.800  0.1332 -0.2015 -0.2573
 1155ERGO   ROH15999  12.712   0.152   6.597  0.0505  0.0999 -0.0699
 1155ERGO    R116000  12.853   0.075   6.830 -0.0385  0.0218 -0.0415
 1155ERGO    R216001  12.880   0.241   7.049  0.0759  0.0377 -0.0694
 1155ERGO    R316002  12.776   0.028   7.182 -0.1159  0.1468 -0.0405
 1155ERGO    R416003  12.903   0.191   7.390  0.2007 -0.0266 -0.0867
 1155ERGO    R516004  12.938  -0.021   7.352 -0.0789 -0.0706 -0.1326
 1155ERGO    C116005  12.819  -0.038   7.714  0.0932  0.0382 -0.0695
 1155ERGO    C216006  12.645   0.014   8.088 -0.1027 -0.0366 -0.0620
 1156ERGO   ROH16007  17.610   9.244   6.344 -0.0966 -0.1224  0.1180
 1156ERGO    R116008  17.824   9.136   6.495  0.0056 -0.0636  0.0176
 1156ERGO    R216009  18.021   9.294   6.607  0.0034 -0.0065 -0.0559
 1156ERGO    R316010  17.948   9.166   6.836  0.1440 -0.0481 -0.0337
 1156ERGO    R416011  18.210   9.283   6.896  0.0047  0.2810 -0.0440
 1156ERGO    R516012  18.153   9.074   6.920  0.2530  0.2138 -0.0037
 1156ERGO    C116013  18.251   9.157   7.279  0.1374  0.4092 -0.0162
 1156ERGO    C216014  18.419   9.358   7.436  0.0608  0.0215  0.1159
 1157ERGO   ROH16015   5.038   6.292   6.532 -0.0845 -0.1484  0.1326
 1157ERGO    R116016   5.104   6.247   6.804  0.1504  0.1272  0.1279
 1157ERGO    R216017   5.183   6.450   6.974 -0.1353  0.3830 -0.0270
 1157ERGO    R316018   4.980   6.356   7.128  0.1137  0.0816  0.1278
 1157ERGO    R416019   5.096   6.575   7.284 -0.1632  0.3284 -0.0138
 1157ERGO    R516020   5.063   6.370   7.352  0.2253  0.2907  0.0719
 1157ERGO    C116021   4.854   6.559   7.609  0.0543  0.0135  0.1392
 1157ERGO    C216022   4.857   6.762   7.809 -0.0286 -0.3157 -0.0846
 1158ERGO   ROH16023  11.162  16.297   6.463 -0.0905 -0.0064 -0.0493
 1158ERGO    R116024  10.978  16.346   6.673  0.0638  0.0928  0.0644
 1158ERGO    R216025  10.824  16.145   6.786 -0.0827  0.2007  0.0529
 1158ERGO    R316026  10.935  16.236   7.017  0.1259 -0.0098  0.0410
 1158ERGO    R416027  10.748  16.027   7.101 -0.2306  0.2944  0.0538
 1158ERGO    R516028  10.754  16.232   7.175  0.1400  0.2856  0.0753
 1158ERGO    C116029  10.807  16.043   7.502 -0.1208  0.1516  0.0431
 1158ERGO    C216030  10.561  15.938   7.739 -0.0287  0.0209  0.1985
 1159ERGO   ROH16031   2.177  11.974   6.737  0.1487 -0.0434  0.0298
 1159ERGO    R116032   2.095  12.086   6.984  0.1677  0.0157  0.0094
 1159ERGO    R216033   2.162  12.343   7.061 -0.0268  0.1199 -0.1630
 1159ERGO    R316034   1.893  12.369   7.092 -0.0378 -0.1068 -0.0471
 1159ERGO    R416035   2.006  12.429   7.357  0.0356  0.0760 -0.1168
 1159ERGO    R516036   1.851  12.282   7.312  0.1415 -0.0768  0.0018
 1159ERGO    C116037   1.663  12.504   7.559  0.0616 -0.1626  0.0189
 1159ERGO    C216038   1.740  12.783   7.784  0.0915 -0.1964  0.2771
 1160ERGO   ROH16039   1.995   0.975   6.781 -0.0891 -0.0673  0.1947
 1160ERGO    R116040   2.177   1.036   6.988 -0.1428 -0.1463  0.2640
 1160ERGO    R216041   2.291   1.286   7.017  0.0126 -0.2250  0.2571
 1160ERGO    R316042   2.190   1.267   7.269 -0.1076 -0.0921  0.2219
 1160ERGO    R416043   2.376   1.495   7.279  0.1750 -0.2943  0.2622
 1160ERGO    R516044   2.376   1.321   7.411 -0.0801 -0.2987  0.2819
 1160ERGO    C116045   2.330   1.600   7.668  0.1567 -0.2099  0.2321
 1160ERGO    C216046   2.419   1.952   7.860  0.0290  0.2911  0.0186
 1161ERGO   ROH16047  14.895   8.010   6.579 -0.1186  0.1492 -0.1139
 1161ERGO    R116048  15.103   7.934   6.756 -0.2709 -0.0410 -0.0140
 1161ERGO    R216049  15.284   8.115   6.861  0.0411 -0.2476 -0.1825
 1161ERGO    R316050  15.201   8.012   7.098 -0.1749  0.1377 -0.0809
 1161ERGO    R416051  15.456   8.142   7.159  0.0191 -0.1758 -0.1749
 1161ERGO    R516052  15.402   7.936   7.203 -0.3068 -0.0546  0.0447
 1161ERGO    C116053  15.479   8.061   7.555 -0.1966  0.2276 -0.0752
 1161ERGO    C216054  15.524   8.185   7.809 -0.0926  0.3692 -0.0180
 1162ERGO   ROH16055  17.581  13.983   6.939  0.0045 -0.0281  0.0423
 1162ERGO    R116056  17.613  13.877   7.199  0.0615 -0.0113  0.0427
 1162ERGO    R216057  17.823  13.710   7.267  0.0971  0.0193  0.0173
 1162ERGO    R316058  17.863  13.894   7.463  0.1029  0.0365 -0.0006
 1162ERGO    R416059  18.053  13.680   7.523 -0.0295 -0.0409  0.1251
 1162ERGO    R516060  17.906  13.764   7.659 -0.0456  0.0564  0.0435
 1162ERGO    C116061  18.225  13.835   7.856 -0.0979 -0.0597  0.1710
 1162ERGO    C216062  18.502  13.731   7.935  0.2037 -0.2280 -0.1462
 1163ERGO   ROH16063  15.594  11.870   6.979 -0.0655 -0.1333  0.0137
 1163ERGO    R116064  15.593  11.911   7.259 -0.0528 -0.0134 -0.0030
 1163ERGO    R216065  15.464  11.740   7.434 -0.1037  0.0970  0.0727
 1163ERGO    R316066  15.708  11.732   7.553 -0.1046  0.0767  0.0720
 1163ERGO    R416067  15.519  11.675   7.769 -0.1175  0.2700  0.1089
 1163ERGO    R516068  15.673  11.829   7.769 -0.0628  0.2130  0.0167
 1163ERGO    C116069  15.780  11.630   8.076 -0.1266  0.3516  0.1293
 1163ERGO    C216070  15.724  11.430   8.244 -0.0035 -0.1273  0.1483
 1164ERGO   ROH16071   6.049   6.307   7.222  0.3238  0.3074  0.2371
 1164ERGO    R116072   6.064   6.261   7.501  0.1693  0.0831  0.2114
 1164ERGO    R216073   5.895   6.384   7.682  0.2137  0.1103  0.2340
 1164ERGO    R316074   5.845   6.129   7.759 -0.0624  0.0959  0.0250
 1164ERGO    R416075   5.741   6.294   7.978  0.1224  0.0333  0.1639
 1164ERGO    R516076   5.883   6.130   7.996 -0.0536 -0.1389  0.0272
 1164ERGO    C116077   5.605   6.002   8.223 -0.1898 -0.0250 -0.0732
 1164ERGO    C216078   5.593   5.811   8.478  0.0803 -0.0035  0.0015
 1165ERGO   ROH16079   0.116   1.446   6.482  0.1025  0.2977 -0.1375
 1165ERGO    R116080   0.276   1.593   6.663  0.0403  0.2389 -0.0350
 1165ERGO    R216081   0.170   1.774   6.842 -0.0429  0.0198  0.1372
 1165ERGO    R316082   0.305   1.625   7.024  0.0763 -0.0544 -0.0087
 1165ERGO    R416083   0.293   1.893   7.142 -0.1102 -0.1631  0.2399
 1165ERGO    R516084   0.473   1.773   7.110 -0.0228 -0.0087  0.1152
 1165ERGO    C116085   0.493   1.822   7.488 -0.0374 -0.3393  0.1629
 1165ERGO    C216086   0.547   1.844   7.789 -0.0777  0.2130 -0.1425
 1166ERGO   ROH16087   6.818  13.658  10.562  0.0781  0.0193  0.0168
 1166ERGO    R116088   6.755  13.588  10.295 -0.0032  0.0599  0.0242
 1166ERGO    R216089   6.613  13.756  10.128 -0.0667  0.0833  0.0929
 1166ERGO    R316090   6.827  13.719   9.963 -0.1134  0.1204  0.0252
 1166ERGO    R416091   6.607  13.797   9.785 -0.1682  0.1080  0.0981
 1166ERGO    R516092   6.733  13.620   9.766 -0.1565  0.1274  0.0462
 1166ERGO    C116093   6.804  13.787   9.431 -0.2713  0.1572  0.0374
 1166ERGO    C216094   6.852  13.809   9.176  0.1557 -0.0617  0.4172
 1167ERGO   ROH16095   3.560   2.329   6.189  0.2105  0.0097 -0.0969
 1167ERGO    R116096   3.615   2.191   6.430  0.0334  0.0756 -0.0175
 1167ERGO    R216097   3.692   1.926   6.437 -0.0221  0.0607  0.1160
 1167ERGO    R316098   3.901   2.023   6.580 -0.0917  0.0660  0.2142
 1167ERGO    R416099   3.805   1.794   6.735 -0.2055  0.1123  0.2095
 1167ERGO    R516100   3.833   1.997   6.809 -0.2232  0.1235  0.1821
 1167ERGO    C116101   4.067   1.808   7.044 -0.3777  0.1474  0.3563
 1167ERGO    C216102   4.121   1.793   7.366  0.3256  0.2049  0.2963
 1168ERGO   ROH16103   9.652  10.866   8.049 -0.0126  0.1117 -0.0080
 1168ERGO    R116104   9.688  11.129   8.146 -0.1330  0.1155  0.0280
 1168ERGO    R216105   9.515  11.246   8.329 -0.1421 -0.0165  0.1084
 1168ERGO    R316106   9.744  11.287   8.470 -0.1168  0.0868  0.0383
 1168ERGO    R416107   9.563  11.497   8.561 -0.2087 -0.0515  0.1600
 1168ERGO    R516108   9.764  11.524   8.484 -0.2553  0.0934  0.0968
 1168ERGO    C116109   9.805  11.681   8.829 -0.2239  0.0251  0.1242
 1168ERGO    C216110   9.924  11.706   9.164 -0.2436 -0.1162  0.1580
 1169ERGO   ROH16111  12.220   7.460   6.683  0.0135 -0.0065  0.1200
 1169ERGO    R116112  12.348   7.360   6.915 -0.0297 -0.3168  0.0145
 1169ERGO    R216113  12.323   7.479   7.163  0.5618 -0.1612  0.0194
 1169ERGO    R316114  12.245   7.230   7.239 -0.0874  0.0628  0.1527
 1169ERGO    R416115  12.375   7.344   7.476  0.5564 -0.2628 -0.0236
 1169ERGO    R516116  12.423   7.153   7.381 -0.1206 -0.4388 -0.0571
 1169ERGO    C116117  12.332   7.031   7.731 -0.0562 -0.1116  0.0765
 1169ERGO    C216118  12.425   7.042   8.061  0.0504 -0.1299  0.1670
 1170ERGO   ROH16119  16.873  16.197   6.781  0.2903  0.0636  0.0703
 1170ERGO    R116120  16.956  16.273   7.041  0.0822  0.1846  0.1033
 1170ERGO    R216121  16.805  16.440   7.202 -0.2226 -0.0259  0.0469
 1170ERGO    R316122  16.829  16.236   7.380  0.0006  0.0041  0.0539
 1170ERGO    R416123  16.854  16.480   7.542 -0.1600  0.0315  0.0316
 1170ERGO    R516124  16.995  16.313   7.536 -0.0207  0.1506  0.0033
 1170ERGO    C116125  16.906  16.312   7.907  0.0858  0.0932  0.0293
 1170ERGO    C216126  17.015  16.297   8.266 -0.1621  0.2056 -0.0746
 1171ERGO   ROH16127  14.238   2.765   6.225 -0.4715  0.2215  0.0077
 1171ERGO    R116128  14.391   2.807   6.460 -0.2723  0.0560 -0.0894
 1171ERGO    R216129  14.395   3.049   6.593 -0.0891 -0.0120  0.0275
 1171ERGO    R316130  14.324   2.896   6.806  0.0304 -0.0918  0.0112
 1171ERGO    R416131  14.418   3.147   6.924 -0.1088 -0.0450  0.0388
 1171ERGO    R516132  14.488   2.947   6.974  0.0226 -0.0140 -0.0010
 1171ERGO    C116133  14.365   3.061   7.316 -0.0081 -0.1392  0.0299
 1171ERGO    C216134  14.261   3.123   7.696 -0.0959  0.0757  0.0716
 1172ERGO   ROH16135  14.414   7.985   6.608  0.0292  0.1098 -0.1477
 1172ERGO    R116136  14.510   8.013   6.873 -0.0547  0.0332 -0.1081
 1172ERGO    R216137  14.489   7.811   7.061 -0.0300 -0.0587 -0.1969
 1172ERGO    R316138  14.757   7.848   7.083 -0.0505  0.0361 -0.1134
 1172ERGO    R416139  14.663   7.826   7.359 -0.1201  0.0164 -0.1480
 1172ERGO    R516140  14.783   7.988   7.275 -0.1535  0.0503 -0.1147
 1172ERGO    C116141  15.017   7.871   7.553 -0.1919  0.1491 -0.0412
 1172ERGO    C216142  15.144   7.904   7.873 -0.0207  0.1848  0.0339
 1173ERGO   ROH16143  16.913   0.602   6.331 -0.1096  0.0376 -0.1299
 1173ERGO    R116144  16.986   0.634   6.603 -0.0029  0.0839 -0.1637
 1173ERGO    R216145  16.971   0.877   6.733 -0.0185  0.0912 -0.1796
 1173ERGO    R316146  16.821   0.736   6.911  0.0987  0.0634 -0.1020
 1173ERGO    R416147  16.979   0.921   7.076  0.0288  0.2088 -0.1952
 1173ERGO    R516148  16.967   0.704   7.099  0.1573  0.2082 -0.1213
 1173ERGO    C116149  16.843   0.814   7.443  0.1666  0.2511 -0.1316
 1173ERGO    C216150  16.912   0.862   7.789 -0.1241 -0.1167 -0.4139
 1174ERGO   ROH16151   0.170  16.896   6.693  0.0240 -0.3708 -0.1666
 1174ERGO    R116152   0.076  16.980   6.947 -0.0793 -0.2803 -0.2333
 1174ERGO    R216153  -0.126  16.848   7.081 -0.0262 -0.3314 -0.1930
 1174ERGO    R316154   0.058  16.839   7.282 -0.0543 -0.0979 -0.1560
 1174ERGO    R416155  -0.169  16.682   7.382  0.0625 -0.2276 -0.1230
 1174ERGO    R516156  -0.073  16.850   7.482 -0.0891 -0.1110 -0.1835
 1174ERGO    C116157  -0.021  16.577   7.744  0.0880  0.0520 -0.0474
 1174ERGO    C216158  -0.171  16.303   7.938 -0.0867 -0.1446 -0.3721
 1175ERGO   ROH16159   4.871   4.724   6.667 -0.1023 -0.4084 -0.0958
 1175ERGO    R116160   4.914   4.566   6.898 -0.2157 -0.4370 -0.0928
 1175ERGO    R216161   4.906   4.670   7.154  0.1876 -0.3492 -0.1040
 1175ERGO    R316162   4.724   4.471   7.194 -0.1666 -0.0007  0.0844
 1175ERGO    R416163   4.816   4.544   7.463  0.3726 -0.2741 -0.0188
 1175ERGO    R516164   4.815   4.344   7.375 -0.1594 -0.2486 -0.0920
 1175ERGO    C116165   4.594   4.284   7.680  0.1479  0.0968  0.2077
 1175ERGO    C216166   4.341   4.246   7.794 -0.4363  0.2329 -0.2990
 1176ERGO   ROH16167   8.647  15.300   7.120 -0.1965 -0.1559  0.1289
 1176ERGO    R116168   8.749  15.459   7.331 -0.3433 -0.0739  0.1435
 1176ERGO    R216169   8.646  15.451   7.587 -0.2673 -0.2783  0.1841
 1176ERGO    R316170   8.905  15.400   7.655 -0.1769  0.0315  0.0796
 1176ERGO    R416171   8.768  15.449   7.910 -0.1837 -0.4482  0.1507
 1176ERGO    R516172   8.948  15.549   7.838 -0.3531 -0.1074  0.2246
 1176ERGO    C116173   9.082  15.400   8.163 -0.0501 -0.2565  0.0331
 1176ERGO    C216174   9.390  15.501   8.416  0.0063 -0.0625 -0.0179
 1177ERGO   ROH16175  10.787  13.946   6.561  0.1085 -0.1196 -0.0310
 1177ERGO    R116176  10.662  13.911   6.812  0.1874 -0.2073 -0.0037
 1177ERGO    R216177  10.803  13.900   7.048  0.2408 -0.0353 -0.0281
 1177ERGO    R316178  10.632  14.099   7.122  0.0581 -0.1906 -0.0251
 1177ERGO    R416179  10.792  14.043   7.363  0.1560 -0.0061 -0.0438
 1177ERGO    R516180  10.574  14.045   7.349  0.1490 -0.2207 -0.0075
 1177ERGO    C116181  10.626  14.313   7.615 -0.0649 -0.1350 -0.0502
 1177ERGO    C216182  10.804  14.578   7.813 -0.1634  0.1179 -0.0148
 1178ERGO   ROH16183   4.439  17.361   6.496 -0.0706 -0.0954 -0.1584
 1178ERGO    R116184   4.405  17.297   6.769 -0.0922 -0.1303 -0.1687
 1178ERGO    R216185   4.497  17.459   6.973  0.1717 -0.3024 -0.1428
 1178ERGO    R316186   4.238  17.445   7.057  0.1631  0.0114 -0.0895
 1178ERGO    R416187   4.397  17.425   7.303  0.2074 -0.3910 -0.1415
 1178ERGO    R516188   4.242  17.287   7.236 -0.0165 -0.1273 -0.2027
 1178ERGO    C116189   4.097  17.392   7.573  0.2202 -0.1481 -0.0907
 1178ERGO    C216190   3.982  17.263   7.847  0.0441 -0.2746 -0.0394
 1179ERGO   ROH16191   0.923   3.899   6.360  0.1569 -0.2500 -0.1282
 1179ERGO    R116192   0.963   3.959   6.633 -0.0526 -0.0386 -0.1416
 1179ERGO    R216193   0.762   3.937   6.822 -0.0996 -0.2570 -0.2185
 1179ERGO    R316194   0.943   3.779   6.949  0.1010  0.0954 -0.0536
 1179ERGO    R416195   0.778   3.889   7.164 -0.1255  0.0119 -0.1776
 1179ERGO    R516196   0.995   3.898   7.150 -0.1278  0.3203 -0.1206
 1179ERGO    C116197   0.958   3.714   7.483  0.0477  0.4993  0.0011
 1179ERGO    C216198   0.825   3.531   7.749 -0.1539  0.1632 -0.0580
 1180ERGO   ROH16199   4.227   6.297   8.486 -0.1143  0.0103 -0.0013
 1180ERGO    R116200   4.200   6.384   8.754  0.0453  0.0194  0.0132
 1180ERGO    R216201   4.008   6.283   8.924 -0.0274  0.2141  0.0515
 1180ERGO    R316202   4.222   6.233   9.085 -0.0393 -0.0340 -0.0054
 1180ERGO    R416203   3.988   6.196   9.258 -0.0384  0.3578  0.0885
 1180ERGO    R516204   4.160   6.326   9.297  0.1619  0.1310 -0.0153
 1180ERGO    C116205   4.178   6.099   9.603 -0.0561  0.2086  0.0567
 1180ERGO    C216206   4.005   6.022   9.985 -0.1857 -0.1623 -0.1025
 1181ERGO   ROH16207   1.845  13.781   6.872 -0.0179 -0.0718 -0.1087
 1181ERGO    R116208   1.721  13.650   7.091  0.0395 -0.2127 -0.1571
 1181ERGO    R216209   1.804  13.401   7.182  0.2474 -0.1572 -0.1569
 1181ERGO    R316210   1.823  13.531   7.419  0.0626 -0.1525 -0.1460
 1181ERGO    R416211   1.822  13.248   7.491  0.0814 -0.1307 -0.1348
 1181ERGO    R516212   1.690  13.401   7.570  0.0021 -0.1682 -0.2264
 1181ERGO    C116213   1.850  13.281   7.894 -0.1887 -0.1108 -0.1119
 1181ERGO    C216214   1.973  13.149   8.162  0.0600  0.0733 -0.2166
 1182ERGO   ROH16215  16.631   3.950   6.497  0.0145  0.0448 -0.1278
 1182ERGO    R116216  16.860   4.014   6.651 -0.0031  0.0104 -0.0865
 1182ERGO    R216217  17.070   4.163   6.550 -0.0348  0.1158  0.0016
 1182ERGO    R316218  17.022   4.318   6.768 -0.0741 -0.0177  0.0887
 1182ERGO    R416219  17.294   4.388   6.688 -0.0283 -0.0264  0.2269
 1182ERGO    R516220  17.230   4.323   6.885 -0.1117 -0.1438  0.1642
 1182ERGO    C116221  17.379   4.663   6.972 -0.0613 -0.2346  0.4398
 1182ERGO    C216222  17.710   4.818   7.110 -0.0962 -0.0791  0.1052
 1183ERGO   ROH16223   1.642   9.797   6.677 -0.2632  0.0157 -0.0165
 1183ERGO    R116224   1.742   9.812   6.942 -0.1938  0.0693 -0.0444
 1183ERGO    R216225   1.580   9.856   7.161 -0.1484  0.0464  0.0017
 1183ERGO    R316226   1.697   9.629   7.253 -0.0604  0.0854 -0.0167
 1183ERGO    R416227   1.630   9.780   7.494 -0.0421  0.0652 -0.0106
 1183ERGO    R516228   1.825   9.700   7.442 -0.0368  0.1225 -0.0525
 1183ERGO    C116229   1.769   9.522   7.774  0.1025  0.1129 -0.0351
 1183ERGO    C216230   1.567   9.349   8.132  0.0513  0.1565  0.1001
 1184ERGO   ROH16231   7.734   9.558   6.731 -0.1034  0.0964  0.0198
 1184ERGO    R116232   7.658   9.589   7.002 -0.1215 -0.0398  0.0302
 1184ERGO    R216233   7.423   9.483   7.103 -0.0443 -0.2362  0.0013
 1184ERGO    R316234   7.591   9.369   7.284  0.0374 -0.1728 -0.0331
 1184ERGO    R416235   7.338   9.402   7.428  0.1463  0.0423  0.1247
 1184ERGO    R516236   7.534   9.473   7.492  0.2264  0.0097 -0.0665
 1184ERGO    C116237   7.446   9.248   7.787  0.3340  0.2640  0.1644
 1184ERGO    C216238   7.547   8.975   8.090  0.2339 -0.1937 -0.0769
 1185ERGO   ROH16239  12.126  13.823   6.554  0.1561 -0.0512 -0.0926
 1185ERGO    R116240  11.951  13.801   6.776  0.1791 -0.0386 -0.0732
 1185ERGO    R216241  11.830  13.562   6.846  0.1068 -0.0114 -0.1085
 1185ERGO    R316242  11.942  13.614   7.088  0.1575 -0.1035 -0.1122
 1185ERGO    R416243  11.772  13.380   7.133 -0.1665  0.1317 -0.0690
 1185ERGO    R516244  11.768  13.566   7.245  0.0758  0.1679 -0.1144
 1185ERGO    C116245  11.844  13.321   7.528 -0.2779  0.1285 -0.0494
 1185ERGO    C216246  11.735  13.250   7.794 -0.1118 -0.0420 -0.2819
 1186ERGO   ROH16247   6.315   9.164   6.799 -0.0875 -0.2173 -0.1522
 1186ERGO    R116248   6.239   9.014   7.026 -0.1635 -0.0217 -0.0465
 1186ERGO    R216249   6.422   8.875   7.180 -0.2606 -0.1984 -0.0920
 1186ERGO    R316250   6.312   9.019   7.383  0.0400  0.0353 -0.0871
 1186ERGO    R416251   6.439   8.789   7.514 -0.5199 -0.3014 -0.1027
 1186ERGO    R516252   6.231   8.853   7.536 -0.3836  0.1904 -0.1283
 1186ERGO    C116253   6.346   8.873   7.899 -0.3886 -0.1420 -0.1045
 1186ERGO    C216254   6.491   8.927   8.103 -0.0170  0.1653  0.0894
 1187ERGO   ROH16255  15.778  10.847   7.028  0.0591  0.0518 -0.0165
 1187ERGO    R116256  15.875  10.695   7.246  0.1675  0.0608 -0.0583
 1187ERGO    R216257  16.044  10.801   7.437 -0.0134  0.1694  0.0418
 1187ERGO    R316258  15.853  10.710   7.609  0.0358 -0.1333 -0.0562
 1187ERGO    R416259  16.108  10.652   7.743  0.0696  0.0177 -0.0477
 1187ERGO    R516260  15.947  10.510   7.702  0.2107 -0.1112 -0.1771
 1187ERGO    C116261  15.966  10.480   8.081  0.1641 -0.3545 -0.1918
 1187ERGO    C216262  16.056  10.413   8.462  0.3618  0.1233  0.1200
 1188ERGO   ROH16263  14.818  12.565   7.013  0.1948 -0.2902 -0.1599
 1188ERGO    R116264  14.957  12.546   7.259  0.0492 -0.2208 -0.0713
 1188ERGO    R216265  14.885  12.691   7.483 -0.0624 -0.1298 -0.1659
 1188ERGO    R316266  14.878  12.446   7.600 -0.1634 -0.0877 -0.0799
 1188ERGO    R416267  14.918  12.633   7.822 -0.0370 -0.0344 -0.1510
 1188ERGO    R516268  15.041  12.459   7.776 -0.1296 -0.1094 -0.1109
 1188ERGO    C116269  14.931  12.369   8.129 -0.1170  0.0607 -0.0616
 1188ERGO    C216270  14.991  12.228   8.382 -0.0469  0.1266  0.1796
 1189ERGO   ROH16271   7.449  10.484   7.062  0.0431  0.1071 -0.0977
 1189ERGO    R116272   7.374  10.575   7.319 -0.0081  0.1419 -0.1251
 1189ERGO    R216273   7.409  10.422   7.547 -0.1804  0.1177 -0.1161
 1189ERGO    R316274   7.542  10.642   7.635 -0.0950  0.0435 -0.0566
 1189ERGO    R416275   7.430  10.520   7.877  0.0413 -0.1033 -0.0615
 1189ERGO    R516276   7.405  10.727   7.812  0.0257 -0.0544  0.0883
 1189ERGO    C116277   7.567  10.784   8.153  0.2506 -0.3018  0.0262
 1189ERGO    C216278   7.712  10.914   8.438  0.2028 -0.3216  0.1626
 1190ERGO   ROH16279  11.704   8.033   6.981  0.0790  0.0036  0.0468
 1190ERGO    R116280  11.643   7.913   7.230  0.0980 -0.0560  0.0236
 1190ERGO    R216281  11.743   8.008   7.469  0.0780 -0.0818  0.0466
 1190ERGO    R316282  11.480   8.014   7.540  0.0749 -0.1437  0.0391
 1190ERGO    R416283  11.626   8.012   7.794  0.0691  0.1837  0.0417
 1190ERGO    R516284  11.467   7.875   7.734  0.1407  0.0449  0.1781
 1190ERGO    C116285  11.311   8.021   8.050  0.0613  0.2805  0.0317
 1190ERGO    C216286  11.206   7.954   8.396 -0.3571  0.1248  0.1918
 1191ERGO   ROH16287  15.964  11.716   7.117 -0.0363  0.3425  0.2156
 1191ERGO    R116288  16.057  11.597   7.357 -0.1318  0.2212  0.1922
 1191ERGO    R216289  16.285  11.683   7.487 -0.0625  0.0086  0.2048
 1191ERGO    R316290  16.116  11.705   7.699 -0.0398  0.1058  0.2143
 1191ERGO    R416291  16.366  11.603   7.814 -0.0237  0.1454  0.2303
 1191ERGO    R516292  16.168  11.516   7.837 -0.0278  0.1594  0.2899
 1191ERGO    C116293  16.255  11.577   8.203  0.0202  0.3163  0.2541
 1191ERGO    C216294  16.160  11.505   8.518  0.1242  0.1002  0.0378
 1192ERGO   ROH16295   7.093  12.664   6.786 -0.0047  0.0896 -0.0660
 1192ERGO    R116296   7.143  12.633   7.063  0.0264 -0.0165 -0.0843
 1192ERGO    R216297   7.370  12.732   7.186 -0.0329  0.0622 -0.0489
 1192ERGO    R316298   7.190  12.852   7.350 -0.0970 -0.1301  0.0260
 1192ERGO    R416299   7.444  12.868   7.495 -0.0086  0.2670 -0.1426
 1192ERGO    R516300   7.257  12.786   7.570  0.1440  0.0293  0.0088
 1192ERGO    C116301   7.317  13.060   7.829 -0.0545  0.2058 -0.1268
 1192ERGO    C216302   7.551  13.126   8.085 -0.2174 -0.3673  0.1074
 1193ERGO   ROH16303  16.162   3.792   6.439  0.1147 -0.2322 -0.1009
 1193ERGO    R116304  16.198   3.715   6.709  0.0143 -0.1146 -0.0528
 1193ERGO    R216305  16.438   3.620   6.806 -0.0581 -0.2044  0.0465
 1193ERGO    R316306  16.407   3.819   6.988  0.0166 -0.0903 -0.0644
 1193ERGO    R416307  16.500   3.589   7.145 -0.1825 -0.0693  0.0824
 1193ERGO    R516308  16.322   3.709   7.183 -0.1148  0.0671 -0.0324
 1193ERGO    C116309  16.507   3.758   7.513 -0.1847  0.1165 -0.0009
 1193ERGO    C216310  16.588   3.679   7.835 -0.1930  0.0606  0.2636
 1194ERGO   ROH16311  13.023  15.810   6.642 -0.0690 -0.0089 -0.1569
 1194ERGO    R116312  12.867  15.838   6.877 -0.1207 -0.1148 -0.1777
 1194ERGO    R216313  12.855  15.643   7.073  0.0309 -0.0998 -0.1539
 1194ERGO    R316314  12.928  15.848   7.236 -0.1681 -0.0120 -0.1715
 1194ERGO    R416315  12.778  15.666   7.409  0.4033 -0.3928 -0.0423
 1194ERGO    R516316  12.741  15.879   7.381 -0.0587 -0.4446  0.0808
 1194ERGO    C116317  12.802  15.871   7.758  0.4331 -0.4810  0.0062
 1194ERGO    C216318  12.829  15.858   8.104 -0.1667 -0.0608 -0.0377
 1195ERGO   ROH16319  15.260  15.687   6.681  0.0971 -0.1820 -0.0392
 1195ERGO    R116320  15.247  15.582   6.944  0.1946 -0.0507  0.0191
 1195ERGO    R216321  15.435  15.643   7.137  0.1395  0.2337 -0.0096
 1195ERGO    R316322  15.216  15.717   7.281  0.0666  0.1080 -0.0556
 1195ERGO    R416323  15.409  15.623   7.481  0.0157  0.0772 -0.0273
 1195ERGO    R516324  15.203  15.555   7.457  0.0464  0.0297 -0.1315
 1195ERGO    C116325  15.188  15.681   7.816 -0.1248 -0.1321 -0.0808
 1195ERGO    C216326  14.958  15.843   8.088  0.1319 -0.0705  0.0469
 1196ERGO   ROH16327   2.270  10.638   6.506  0.0918 -0.0037 -0.1654
 1196ERGO    R116328   2.262  10.585   6.784 -0.0214  0.0280 -0.1612
 1196ERGO    R216329   2.463  10.447   6.916 -0.1018 -0.0071 -0.0714
 1196ERGO    R316330   2.465  10.667   7.074 -0.1055  0.0089 -0.0961
 1196ERGO    R416331   2.528  10.445   7.255 -0.2369  0.0030 -0.0461
 1196ERGO    R516332   2.370  10.593   7.281 -0.2095  0.0514 -0.1258
 1196ERGO    C116333   2.569  10.651   7.601 -0.3191  0.0238 -0.0546
 1196ERGO    C216334   2.648  10.714   7.962 -0.2698 -0.1801  0.0119
 1197ERGO   ROH16335   9.025   9.534   6.738  0.0890 -0.0767 -0.0422
 1197ERGO    R116336   9.076   9.466   7.008  0.2668 -0.2529 -0.1187
 1197ERGO    R216337   9.315   9.355   7.091  0.4954  0.1118 -0.2812
 1197ERGO    R316338   9.314   9.564   7.265  0.1350 -0.0570 -0.0661
 1197ERGO    R416339   9.405   9.336   7.424  0.5880 -0.0731 -0.3148
 1197ERGO    R516340   9.240   9.469   7.472  0.3377 -0.4180 -0.1447
 1197ERGO    C116341   9.458   9.521   7.781  0.3035 -0.3391 -0.1323
 1197ERGO    C216342   9.618   9.400   8.140  0.2736  0.1281  0.1628
 1198ERGO   ROH16343  11.350  12.646   6.490  0.0100 -0.2135  0.0233
 1198ERGO    R116344  11.263  12.687   6.756 -0.2350 -0.1820 -0.0594
 1198ERGO    R216345  11.072  12.527   6.877 -0.0804 -0.3974 -0.0980
 1198ERGO    R316346  11.264  12.498   7.067 -0.1616  0.0044  0.0557
 1198ERGO    R416347  11.012  12.504   7.217 -0.3005 -0.4477 -0.1387
 1198ERGO    R516348  11.187  12.630   7.251 -0.5595 -0.1030 -0.0245
 1198ERGO    C116349  11.158  12.463   7.593 -0.5050 -0.0998 -0.0181
 1198ERGO    C216350  11.010  12.435   7.880  0.1664 -0.3612 -0.0802
 1199ERGO   ROH16351  16.872  12.550   6.958  0.3070  0.0588 -0.0099
 1199ERGO    R116352  16.806  12.513   7.231  0.2426 -0.0032 -0.0341
 1199ERGO    R216353  16.952  12.347   7.397  0.3088  0.0963  0.0045
 1199ERGO    R316354  16.968  12.570   7.552  0.0920  0.1001  0.0248
 1199ERGO    R416355  17.069  12.354   7.723  0.2923  0.1752  0.0093
 1199ERGO    R516356  16.909  12.495   7.772  0.1545  0.0223  0.0167
 1199ERGO    C116357  17.151  12.567   8.058  0.0793  0.2247  0.0313
 1199ERGO    C216358  17.327  12.829   8.358  0.1684  0.2009 -0.0348
 1200ERGO   ROH16359  12.251   9.585   6.718  0.0964  0.2341 -0.1761
 1200ERGO    R116360  12.256   9.798   6.904 -0.3058  0.1965 -0.1142
 1200ERGO    R216361  12.052   9.842   7.086 -0.2501 -0.4433  0.1235
 1200ERGO    R316362  12.255   9.833   7.267 -0.0116  0.0660 -0.0973
 1200ERGO    R416363  12.040   9.980   7.402 -0.3131 -0.5796  0.1817
 1200ERGO    R516364  12.247  10.046   7.376 -0.5068  0.0234 -0.0229
 1200ERGO    C116365  12.224  10.052   7.756 -0.1259 -0.1808  0.0084
 1200ERGO    C216366  12.218  10.177   7.990  0.1824 -0.3530  0.0231
 1201ERGO   ROH16367   1.012  11.107   6.656  0.0285 -0.0816 -0.1766
 1201ERGO    R116368   0.977  11.213   6.916 -0.0329 -0.0080 -0.2145
 1201ERGO    R216369   0.754  11.159   7.070 -0.0536  0.0076 -0.2376
 1201ERGO    R316370   0.939  11.081   7.253 -0.0750  0.0879 -0.1814
 1201ERGO    R416371   0.684  11.068   7.396 -0.1166 -0.0593 -0.2699
 1201ERGO    R516372   0.862  11.175   7.459 -0.1945  0.0285 -0.1986
 1201ERGO    C116373   0.817  10.941   7.757 -0.1732 -0.0229 -0.2358
 1201ERGO    C216374   0.655  10.958   8.015 -0.1717  0.1165 -0.1036
 1202ERGO   ROH16375  16.239   1.524   6.725  0.2437  0.0027 -0.2068
 1202ERGO    R116376  16.345   1.642   6.959  0.0245  0.0842 -0.1448
 1202ERGO    R216377  16.187   1.771   7.146 -0.1921 -0.1053 -0.1851
 1202ERGO    R316378  16.307   1.598   7.318 -0.0790 -0.0090 -0.1685
 1202ERGO    R416379  16.156   1.780   7.490 -0.1987 -0.1060 -0.1866
 1202ERGO    R516380  16.368   1.733   7.506 -0.1730  0.0397 -0.1786
 1202ERGO    C116381  16.251   1.623   7.851 -0.0966 -0.0161 -0.1718
 1202ERGO    C216382  15.878   1.524   7.978 -0.0529  0.1523  0.3804
 1203ERGO   ROH16383   1.527   6.723   6.432  0.1825  0.1168  0.0863
 1203ERGO    R116384   1.504   6.581   6.676  0.1527  0.0489  0.0453
 1203ERGO    R216385   1.685   6.610   6.882  0.1591 -0.0485  0.0577
 1203ERGO    R316386   1.462   6.665   7.027  0.1686 -0.0447  0.0693
 1203ERGO    R416387   1.655   6.561   7.223  0.0812 -0.3075  0.0147
 1203ERGO    R516388   1.452   6.489   7.189  0.0479 -0.1695 -0.0743
 1203ERGO    C116389   1.428   6.584   7.558  0.0447 -0.4549  0.0004
 1203ERGO    C216390   1.393   6.753   7.881 -0.0625  0.0695 -0.2874
 1204ERGO   ROH16391   4.096  13.027   6.517 -0.0463 -0.1309  0.1686
 1204ERGO    R116392   4.120  13.235   6.709 -0.1403 -0.0472  0.0907
 1204ERGO    R216393   3.913  13.305   6.878 -0.1838 -0.0551  0.0427
 1204ERGO    R316394   4.100  13.264   7.071 -0.1875  0.0864  0.0775
 1204ERGO    R416395   3.983  13.526   7.134 -0.2866  0.0672 -0.0330
 1204ERGO    R516396   4.195  13.480   7.108 -0.2688  0.1341  0.0057
 1204ERGO    C116397   4.200  13.615   7.465 -0.3499  0.2714 -0.0443
 1204ERGO    C216398   4.217  13.842   7.740 -0.2555  0.4778 -0.2189
 1205ERGO   ROH16399   9.477   5.377   6.814  0.3625 -0.3826  0.0906
 1205ERGO    R116400   9.362   5.496   7.043  0.3608 -0.1463 -0.0297
 1205ERGO    R216401   9.244   5.348   7.245  0.0105  0.0798 -0.0595
 1205ERGO    R316402   9.418   5.484   7.403  0.0912 -0.1063  0.0152
 1205ERGO    R416403   9.194   5.417   7.580  0.0734 -0.1097 -0.0103
 1205ERGO    R516404   9.278   5.615   7.546  0.1679 -0.1287  0.1107
 1205ERGO    C116405   9.329   5.585   7.923  0.1857 -0.3948  0.0886
 1205ERGO    C216406   9.434   5.676   8.257 -0.2433  0.2514  0.3018
 1206ERGO   ROH16407  15.711   9.318   6.337  0.1975  0.0108  0.0887
 1206ERGO    R116408  15.745   9.282   6.616  0.2798 -0.0590  0.0706
 1206ERGO    R216409  15.991   9.301   6.739  0.2767  0.2058  0.0460
 1206ERGO    R316410  15.862   9.482   6.896  0.0620 -0.0179  0.1335
 1206ERGO    R416411  16.064   9.363   7.072  0.2849  0.2203  0.0411
 1206ERGO    R516412  15.850   9.377   7.111  0.2729 -0.0947  0.1085
 1206ERGO    C116413  15.985   9.568   7.412  0.0879  0.0187  0.1204
 1206ERGO    C216414  16.073   9.768   7.684 -0.0659 -0.0593 -0.4472
 1207ERGO   ROH16415  13.004   5.131   6.411 -0.2263 -0.2433  0.1412
 1207ERGO    R116416  13.109   4.894   6.524  0.0585 -0.1392  0.1078
 1207ERGO    R216417  13.377   4.860   6.579  0.0810  0.2465  0.2825
 1207ERGO    R316418  13.285   4.801   6.828 -0.0127  0.0015  0.1918
 1207ERGO    R416419  13.564   4.711   6.828 -0.0639 -0.1355  0.1682
 1207ERGO    R516420  13.390   4.592   6.881 -0.1332 -0.1113 -0.0169
 1207ERGO    C116421  13.587   4.568   7.207 -0.2362 -0.5879  0.0166
 1207ERGO    C216422  13.944   4.570   7.466 -0.0430  0.0137  0.0486
 1208ERGO   ROH16423  10.680   9.551   6.911 -0.2104 -0.0428 -0.0531
 1208ERGO    R116424  10.624   9.444   7.167 -0.0175  0.0000  0.0073
 1208ERGO    R216425  10.776   9.242   7.280  0.1013  0.0614 -0.0494
 1208ERGO    R316426  10.798   9.417   7.486  0.1976  0.1078 -0.0977
 1208ERGO    R416427  10.901   9.163   7.592  0.2292  0.1192 -0.0848
 1208ERGO    R516428  10.744   9.287   7.680  0.2700  0.1499 -0.0456
 1208ERGO    C116429  10.995   9.283   7.968  0.3941  0.1965 -0.1508
 1208ERGO    C216430  11.035   9.400   8.225 -0.1427 -0.1478 -0.1297
 1209ERGO   ROH16431  11.336  10.403   6.941 -0.1983  0.1025  0.0682
 1209ERGO    R116432  11.255  10.459   7.206 -0.4758  0.0027  0.0091
 1209ERGO    R216433  11.071  10.304   7.342 -0.0905 -0.4894  0.0081
 1209ERGO    R316434  11.268  10.289   7.528 -0.0992  0.1848  0.0944
 1209ERGO    R416435  11.021  10.232   7.676  0.0115 -0.7143 -0.0238
 1209ERGO    R516436  11.170  10.384   7.725 -0.5308 -0.1760  0.0653
 1209ERGO    C116437  11.178  10.177   8.046  0.0628 -0.2122  0.0386
 1209ERGO    C216438  11.249   9.904   8.321 -0.0747  0.0466 -0.1015
 1210ERGO   ROH16439  14.005  13.991   7.068  0.2389  0.2278  0.2068
 1210ERGO    R116440  13.867  13.952   7.312  0.1258  0.1925  0.1388
 1210ERGO    R216441  13.996  13.883   7.546  0.0145  0.1177  0.1831
 1210ERGO    R316442  13.869  14.103   7.643  0.0072  0.1171  0.1731
 1210ERGO    R416443  13.857  13.908   7.862 -0.1810  0.0568  0.1030
 1210ERGO    R516444  13.689  14.015   7.774 -0.0968  0.1240  0.0315
 1210ERGO    C116445  13.657  14.130   8.136 -0.3017  0.0207  0.0469
 1210ERGO    C216446  13.479  14.083   8.430  0.1517 -0.0934  0.1282
 1211ERGO   ROH16447  13.689   7.296   6.640  0.2907 -0.0459  0.0229
 1211ERGO    R116448  13.668   7.322   6.921  0.1839 -0.1416  0.0249
 1211ERGO    R216449  13.725   7.115   7.094  0.2208 -0.1701 -0.0186
 1211ERGO    R316450  13.893   7.298   7.206  0.1003 -0.1264  0.0921
 1211ERGO    R416451  13.833   7.110   7.423  0.0541 -0.1736  0.0368
 1211ERGO    R516452  13.810   7.326   7.429 -0.0238 -0.1833  0.0532
 1211ERGO    C116453  14.053   7.279   7.719 -0.1562 -0.1345  0.1728
 1211ERGO    C216454  14.250   7.465   7.995  0.3219 -0.0946  0.1133
 1212ERGO   ROH16455   3.788   3.512   6.256  0.0415 -0.0309  0.0236
 1212ERGO    R116456   3.863   3.442   6.520  0.0487  0.0437  0.0424
 1212ERGO    R216457   3.788   3.591   6.740 -0.0143  0.0634  0.0131
 1212ERGO    R316458   3.692   3.353   6.828  0.0570  0.0480  0.0468
 1212ERGO    R416459   3.769   3.497   7.072 -0.0372  0.1185  0.0269
 1212ERGO    R516460   3.833   3.297   7.014  0.0423  0.1333  0.0797
 1212ERGO    C116461   3.667   3.218   7.348  0.0163  0.1361  0.0665
 1212ERGO    C216462   3.497   3.063   7.550 -0.2594  0.0594 -0.0350
 1213ERGO   ROH16463  15.514   3.032   6.484  0.1761 -0.2640  0.0116
 1213ERGO    R116464  15.547   3.142   6.743  0.0799 -0.1770 -0.0126
 1213ERGO    R216465  15.335   3.188   6.914  0.0275 -0.2061 -0.0743
 1213ERGO    R316466  15.482   3.036   7.085  0.0455 -0.1012  0.0053
 1213ERGO    R416467  15.269   3.149   7.251 -0.0646 -0.1599 -0.0860
 1213ERGO    R516468  15.483   3.160   7.289 -0.0781 -0.0518 -0.0203
 1213ERGO    C116469  15.369   2.983   7.608 -0.1011 -0.0346 -0.0181
 1213ERGO    C216470  15.208   2.818   7.963  0.0934 -0.1221  0.0753
 1214ERGO   ROH16471   7.450  13.936   6.733  0.0437 -0.0346  0.0340
 1214ERGO    R116472   7.308  13.964   6.977  0.0175  0.0519  0.0087
 1214ERGO    R216473   7.036  13.923   6.996  0.0270 -0.0043  0.0068
 1214ERGO    R316474   7.108  13.750   7.193  0.0517  0.1108  0.0998
 1214ERGO    R416475   6.880  13.899   7.304 -0.0723  0.0318 -0.0400
 1214ERGO    R516476   7.077  13.875   7.395 -0.0899  0.1746  0.0412
 1214ERGO    C116477   6.858  13.723   7.668 -0.1069  0.1608  0.0202
 1214ERGO    C216478   6.554  13.597   7.667 -0.0672  0.1080 -0.0957
 1215ERGO   ROH16479  10.856   1.035   6.699 -0.1091 -0.0244 -0.1359
 1215ERGO    R116480  10.739   1.025   6.956 -0.0876  0.0743 -0.1220
 1215ERGO    R216481  10.891   1.013   7.188 -0.0691  0.0452 -0.1351
 1215ERGO    R316482  10.744   1.231   7.256  0.0380  0.1254 -0.1585
 1215ERGO    R416483  10.842   1.125   7.511 -0.1466  0.0109 -0.1345
 1215ERGO    R516484  10.635   1.169   7.460 -0.0962  0.1534 -0.2213
 1215ERGO    C116485  10.676   1.396   7.763 -0.0911  0.0663 -0.1561
 1215ERGO    C216486  10.775   1.511   8.039 -0.1049 -0.1530 -0.1883
 1216ERGO   ROH16487  14.574  12.886   7.258 -0.1898 -0.1600 -0.0179
 1216ERGO    R116488  14.320  13.011   7.267 -0.1266 -0.0359  0.0913
 1216ERGO    R216489  14.088  12.883   7.190 -0.2024  0.1331  0.0220
 1216ERGO    R316490  14.004  12.957   7.438 -0.1375  0.0046  0.0824
 1216ERGO    R416491  13.765  12.977   7.269 -0.1578  0.1908  0.1356
 1216ERGO    R516492  13.847  13.133   7.397 -0.0861  0.0819  0.2209
 1216ERGO    C116493  13.498  13.100   7.547 -0.0710  0.1038  0.2584
 1216ERGO    C216494  13.181  13.130   7.524  0.0800  0.2687 -0.2158
 1217ERGO   ROH16495  12.149   6.040   6.719 -0.0615  0.1064 -0.0366
 1217ERGO    R116496  12.035   6.107   6.969  0.0019  0.0803 -0.0009
 1217ERGO    R216497  12.158   6.048   7.209  0.0823  0.0931 -0.0406
 1217ERGO    R316498  12.127   6.315   7.254  0.0519  0.0866 -0.0210
 1217ERGO    R416499  12.199   6.204   7.516  0.0433  0.0696 -0.0232
 1217ERGO    R516500  12.025   6.327   7.470  0.0331  0.0567 -0.0267
 1217ERGO    C116501  12.192   6.544   7.736 -0.0078  0.0499  0.0054
 1217ERGO    C216502  12.095   6.688   8.017 -0.0422 -0.2464  0.2799
 1218ERGO   ROH16503   6.134  16.460   6.524 -0.1954 -0.3371  0.1481
 1218ERGO    R116504   6.095  16.424   6.802 -0.1453 -0.1989  0.1735
 1218ERGO    R216505   6.302  16.364   6.975 -0.1134 -0.1018  0.1675
 1218ERGO    R316506   6.212  16.583   7.108 -0.0996 -0.0395  0.0750
 1218ERGO    R416507   6.363  16.433   7.308 -0.3317 -0.1060  0.2101
 1218ERGO    R516508   6.158  16.503   7.327 -0.3125  0.0073  0.0438
 1218ERGO    C116509   6.314  16.679   7.627 -0.4459 -0.0497  0.1480
 1218ERGO    C216510   6.294  16.832   7.978  0.2762 -0.2858 -0.0115
 1219ERGO   ROH16511   6.351   3.533   6.293 -0.3201 -0.1978  0.1659
 1219ERGO    R116512   6.396   3.397   6.538 -0.2698 -0.0829  0.2208
 1219ERGO    R216513   6.543   3.508   6.745 -0.1496 -0.0231  0.1017
 1219ERGO    R316514   6.319   3.453   6.889 -0.1098  0.1300  0.2253
 1219ERGO    R416515   6.533   3.472   7.088  0.0696 -0.2551  0.0870
 1219ERGO    R516516   6.395   3.306   7.062 -0.1430 -0.0835  0.0662
 1219ERGO    C116517   6.318   3.400   7.424  0.2345 -0.2464  0.1945
 1219ERGO    C216518   6.400   3.226   7.699 -0.2765  0.0916 -0.0591
 1220ERGO   ROH16519  13.938  17.458   6.508 -0.1332 -0.2827  0.0840
 1220ERGO    R116520  14.020  17.580   6.750 -0.0308 -0.3266  0.0723
 1220ERGO    R216521  13.887  17.795   6.861  0.2165 -0.1242 -0.0096
 1220ERGO    R316522  13.877  17.634   7.080 -0.0390 -0.0630  0.0268
 1220ERGO    R416523  13.920  17.903   7.187  0.3107 -0.0946 -0.0289
 1220ERGO    R516524  14.040  17.726   7.229  0.0640 -0.2512  0.0315
 1220ERGO    C116525  13.930  17.815   7.583  0.1258 -0.0204 -0.0058
 1220ERGO    C216526  13.713  17.943   7.871 -0.0916 -0.0157 -0.0216
 1221ERGO   ROH16527   4.751  14.935   8.492 -0.0641 -0.1481  0.1123
 1221ERGO    R116528   4.501  15.023   8.393 -0.0290 -0.1462  0.0245
 1221ERGO    R216529   4.358  14.880   8.204 -0.0242 -0.2098  0.0663
 1221ERGO    R316530   4.160  14.898   8.389 -0.0525 -0.0807  0.0242
 1221ERGO    R416531   4.027  14.799   8.148  0.0114 -0.3917  0.1161
 1221ERGO    R516532   3.969  14.972   8.266 -0.0658 -0.2844 -0.0796
 1221ERGO    C116533   3.648  14.768   8.289  0.0055 -0.3763  0.1055
 1221ERGO    C216534   3.357  14.632   8.410  0.0418 -0.2888  0.0964
 1222ERGO   ROH16535   3.960  17.547   6.639 -0.1520 -0.0925  0.1006
 1222ERGO    R116536   3.864  17.686   6.866 -0.2198 -0.0980  0.0768
 1222ERGO    R216537   3.735  17.558   7.075  0.0153 -0.1600  0.1915
 1222ERGO    R316538   3.926  17.679   7.225 -0.0571  0.1370  0.0565
 1222ERGO    R416539   3.716  17.605   7.416  0.1684 -0.1784  0.2017
 1222ERGO    R516540   3.802  17.804   7.388 -0.1434 -0.0394  0.1323
 1222ERGO    C116541   3.884  17.747   7.757  0.1896  0.0895  0.0810
 1222ERGO    C216542   3.989  17.739   7.982  0.1466 -0.2392 -0.2395
 1223ERGO   ROH16543  14.178   3.824   6.257 -0.1452 -0.1278  0.2939
 1223ERGO    R116544  14.263   3.903   6.515 -0.1410  0.0105  0.2509
 1223ERGO    R216545  14.471   4.080   6.555 -0.0920 -0.0232  0.1583
 1223ERGO    R316546  14.286   4.215   6.701 -0.0627  0.1206  0.0570
 1223ERGO    R416547  14.511   4.174   6.886 -0.1464  0.0512  0.1438
 1223ERGO    R516548  14.302   4.119   6.921 -0.1859  0.1771  0.0908
 1223ERGO    C116549  14.360   4.355   7.215 -0.1506  0.2295  0.0402
 1223ERGO    C216550  14.576   4.460   7.408 -0.2489  0.0234 -0.0471
 1224ERGO   ROH16551  10.147   3.438   6.733  0.2128  0.2837 -0.2515
 1224ERGO    R116552  10.354   3.450   6.926  0.0229  0.2043 -0.0394
 1224ERGO    R216553  10.574   3.615   6.898  0.2156 -0.0300  0.0821
 1224ERGO    R316554  10.498   3.704   7.144  0.0423  0.2052 -0.0521
 1224ERGO    R416555  10.785   3.762   7.129  0.1207 -0.0754  0.1992
 1224ERGO    R516556  10.683   3.651   7.286 -0.1489  0.1220  0.1745
 1224ERGO    C116557  10.837   3.931   7.494 -0.0971  0.1190  0.1413
 1224ERGO    C216558  11.081   4.029   7.731  0.0444  0.1232 -0.0877
 1225ERGO   ROH16559  10.471   5.704   6.701  0.1202  0.0004  0.0413
 1225ERGO    R116560  10.329   5.804   6.925  0.0058 -0.1228  0.0259
 1225ERGO    R216561  10.275   5.649   7.148  0.2158 -0.1409  0.0705
 1225ERGO    R316562  10.397   5.854   7.279 -0.0311  0.0495  0.0081
 1225ERGO    R416563  10.229   5.727   7.482 -0.0482  0.0586 -0.0099
 1225ERGO    R516564  10.230   5.938   7.428 -0.1873  0.0204 -0.1523
 1225ERGO    C116565  10.316   5.965   7.799 -0.4338  0.3535 -0.1153
 1225ERGO    C216566  10.429   6.159   8.160 -0.4213 -0.0050  0.5430
 1226ERGO   ROH16567  13.266   7.407   6.678  0.1290 -0.0958 -0.0587
 1226ERGO    R116568  13.205   7.405   6.955  0.1307 -0.1216 -0.0584
 1226ERGO    R216569  13.297   7.208   7.126  0.2323 -0.0720 -0.0545
 1226ERGO    R316570  13.391   7.420   7.267  0.1241 -0.0197 -0.0596
 1226ERGO    R416571  13.376   7.202   7.462  0.3003 -0.0412 -0.0697
 1226ERGO    R516572  13.287   7.401   7.481  0.1776 -0.0987 -0.0410
 1226ERGO    C116573  13.511   7.398   7.790  0.2384  0.0258 -0.0834
 1226ERGO    C216574  13.638   7.394   8.090 -0.0253 -0.1844 -0.0612
 1227ERGO   ROH16575  14.440   6.144   6.506 -0.1912  0.0963 -0.0359
 1227ERGO    R116576  14.290   6.223   6.733 -0.0418  0.0686  0.0733
 1227ERGO    R216577  14.060   6.092   6.813 -0.0913  0.1767  0.0955
 1227ERGO    R316578  14.192   6.075   7.050 -0.0051 -0.0431  0.0345
 1227ERGO    R416579  13.908   6.055   7.121 -0.0185  0.3485  0.1541
 1227ERGO    R516580  14.053   6.195   7.204  0.2243  0.1381  0.1128
 1227ERGO    C116581  13.942   6.017   7.523  0.1051  0.2423  0.1309
 1227ERGO    C216582  13.768   5.847   7.724 -0.1582  0.1239  0.1817
 1228ERGO   ROH16583  11.605   3.516   6.656  0.0836 -0.1009  0.1473
 1228ERGO    R116584  11.741   3.627   6.878  0.0498  0.0666  0.0866
 1228ERGO    R216585  11.659   3.860   7.002 -0.1734 -0.0231  0.1168
 1228ERGO    R316586  11.663   3.703   7.225  0.1049 -0.0183  0.1171
 1228ERGO    R416587  11.622   3.975   7.326  0.1528 -0.0315  0.1593
 1228ERGO    R516588  11.778   3.836   7.388  0.2523  0.0068 -0.0075
 1228ERGO    C116589  11.606   3.896   7.723  0.6040 -0.0320  0.1842
 1228ERGO    C216590  11.491   4.024   8.070 -0.0416 -0.1310  0.0786
 1229ERGO   ROH16591   2.895   5.412   6.423  0.0304 -0.1882  0.1996
 1229ERGO    R116592   3.030   5.426   6.671  0.2346  0.0211  0.0807
 1229ERGO    R216593   3.250   5.589   6.712  0.1157  0.2540 -0.1597
 1229ERGO    R316594   3.102   5.683   6.919  0.1978  0.1707 -0.0627
 1229ERGO    R416595   3.369   5.797   6.960  0.2248  0.1040 -0.0846
 1229ERGO    R516596   3.253   5.682   7.105  0.2532  0.0490 -0.1097
 1229ERGO    C116597   3.300   6.007   7.300  0.3653 -0.0615  0.0501
 1229ERGO    C216598   3.465   6.195   7.649  0.3207  0.0809 -0.1952
 1230ERGO   ROH16599   9.176  17.516   6.408 -0.0130 -0.0679  0.1765
 1230ERGO    R116600   9.186  17.515   6.691  0.0361 -0.1532  0.1737
 1230ERGO    R216601   8.998  17.646   6.847  0.2054  0.0080  0.2375
 1230ERGO    R316602   8.972  17.401   6.962 -0.0398  0.0046  0.1829
 1230ERGO    R416603   8.880  17.589   7.167 -0.0669  0.0398  0.1460
 1230ERGO    R516604   9.032  17.436   7.191 -0.1812 -0.0672  0.2356
 1230ERGO    C116605   8.786  17.327   7.461 -0.4557  0.0554  0.0415
 1230ERGO    C216606   8.619  17.204   7.672 -0.1994  0.1522  0.1232
 1231ERGO   ROH16607   3.854  16.317   6.436  0.1588 -0.1702  0.0695
 1231ERGO    R116608   3.911  16.232   6.700  0.0286 -0.0382  0.1405
 1231ERGO    R216609   4.148  16.293   6.828  0.0316 -0.1159  0.1622
 1231ERGO    R316610   3.982  16.391   7.020  0.0474  0.1199  0.0600
 1231ERGO    R416611   4.220  16.303   7.166 -0.0518  0.0183  0.1776
 1231ERGO    R516612   4.014  16.245   7.207 -0.1133  0.1953  0.1534
 1231ERGO    C116613   4.107  16.401   7.543 -0.0855  0.3176  0.0906
 1231ERGO    C216614   4.273  16.457   7.851  0.2311  0.2780  0.0730
 1232ERGO   ROH16615   2.780  16.043   6.485 -0.0437 -0.3213 -0.0696
 1232ERGO    R116616   2.833  15.909   6.729  0.0679 -0.1836 -0.0172
 1232ERGO    R216617   3.090  15.848   6.812  0.1153  0.0217 -0.0147
 1232ERGO    R316618   3.014  15.982   7.036  0.0492  0.0653 -0.0620
 1232ERGO    R416619   3.167  15.753   7.135  0.0735  0.1110  0.0218
 1232ERGO    R516620   2.966  15.810   7.195  0.0490  0.0922 -0.0295
 1232ERGO    C116621   3.141  15.824   7.534 -0.0129  0.2037 -0.0013
 1232ERGO    C216622   3.216  15.691   7.824 -0.0305 -0.1867  0.0991
 1233ERGO   ROH16623   9.683  12.506   6.829  0.1436  0.1159 -0.2185
 1233ERGO    R116624   9.674  12.774   6.920  0.1485  0.1006 -0.1707
 1233ERGO    R216625   9.626  12.840   7.184 -0.0852  0.0614 -0.1990
 1233ERGO    R316626   9.859  12.978   7.157 -0.0084 -0.0141  0.0536
 1233ERGO    R416627   9.732  13.092   7.395 -0.2652  0.0693 -0.1181
 1233ERGO    R516628   9.802  13.202   7.221 -0.0206  0.0149 -0.0571
 1233ERGO    C116629  10.011  13.369   7.493 -0.2977  0.0029  0.1663
 1233ERGO    C216630  10.113  13.453   7.705 -0.1529  0.0658 -0.1984
 1234ERGO   ROH16631   6.681   4.476   6.878 -0.2155 -0.2225 -0.1140
 1234ERGO    R116632   6.836   4.374   7.092 -0.1289 -0.1842 -0.1580
 1234ERGO    R216633   6.823   4.478   7.348 -0.1498 -0.2478 -0.1345
 1234ERGO    R316634   6.771   4.220   7.415  0.0028 -0.2911 -0.1813
 1234ERGO    R416635   6.937   4.320   7.634 -0.0489 -0.2323 -0.1660
 1234ERGO    R516636   6.974   4.142   7.515  0.0528 -0.1900 -0.2007
 1234ERGO    C116637   6.954   3.986   7.862  0.1530 -0.2639 -0.2283
 1234ERGO    C216638   6.902   4.014   8.207  0.0355  0.0142 -0.3075
 1235ERGO   ROH16639  13.223  11.044   7.007  0.0895  0.0934 -0.0573
 1235ERGO    R116640  13.296  11.035   7.281  0.0945  0.2402 -0.0527
 1235ERGO    R216641  13.222  11.232   7.461 -0.2127  0.1576 -0.0821
 1235ERGO    R316642  13.122  11.021   7.600  0.0997  0.0186 -0.0580
 1235ERGO    R416643  13.228  11.201   7.805 -0.2998  0.2818 -0.0691
 1235ERGO    R516644  13.275  10.990   7.781  0.0859  0.3500  0.0178
 1235ERGO    C116645  13.136  10.985   8.136 -0.0574  0.2235 -0.0390
 1235ERGO    C216646  12.990  11.161   8.383 -0.1343  0.0570  0.0520
 1236ERGO   ROH16647  16.545   6.598   6.564  0.1243 -0.0916 -0.0402
 1236ERGO    R116648  16.433   6.428   6.761  0.2714 -0.1997 -0.0471
 1236ERGO    R216649  16.567   6.362   6.993  0.2440  0.0916  0.0608
 1236ERGO    R316650  16.342   6.455   7.113  0.0212 -0.2134 -0.1104
 1236ERGO    R416651  16.487   6.315   7.326  0.2200  0.2696  0.0802
 1236ERGO    R516652  16.280   6.281   7.266  0.2983 -0.1831  0.0389
 1236ERGO    C116653  16.228   6.375   7.632 -0.0032  0.0871 -0.0692
 1236ERGO    C216654  16.118   6.333   7.985 -0.0049 -0.0768  0.0691
 1237ERGO   ROH16655  17.488  13.138   8.793 -0.1059  0.1138 -0.0375
 1237ERGO    R116656  17.442  13.013   9.043 -0.0753  0.1400 -0.0187
 1237ERGO    R216657  17.640  12.985   9.234 -0.0265  0.0729 -0.0796
 1237ERGO    R316658  17.459  13.109   9.394  0.0697  0.1464 -0.0267
 1237ERGO    R416659  17.644  12.977   9.579 -0.0092 -0.0463 -0.0818
 1237ERGO    R516660  17.426  12.958   9.576 -0.0247  0.1063 -0.0757
 1237ERGO    C116661  17.476  13.090   9.930  0.0913 -0.0466 -0.0335
 1237ERGO    C216662  17.462  13.099  10.263 -0.3840 -0.1610 -0.0792
 1238ERGO   ROH16663  11.699   2.075   6.612 -0.2032  0.2712 -0.1807
 1238ERGO    R116664  11.808   2.053   6.872 -0.1396  0.0760 -0.2212
 1238ERGO    R216665  11.874   2.274   7.025 -0.1237 -0.0358 -0.0610
 1238ERGO    R316666  11.713   2.155   7.209 -0.0700 -0.1958 -0.1163
 1238ERGO    R416667  11.936   2.266   7.365 -0.1090 -0.1834 -0.0673
 1238ERGO    R516668  11.865   2.059   7.367 -0.0250 -0.2147 -0.1704
 1238ERGO    C116669  11.820   2.149   7.735 -0.0500 -0.4195 -0.1230
 1238ERGO    C216670  11.817   2.240   8.081  0.0690 -0.0794 -0.2499
 1239ERGO   ROH16671   0.517   6.951   6.516 -0.1708  0.2804 -0.0598
 1239ERGO    R116672   0.593   6.974   6.787 -0.0275  0.2227 -0.0952
 1239ERGO    R216673   0.768   7.169   6.877 -0.1997  0.3783 -0.1047
 1239ERGO    R316674   0.565   7.225   7.050 -0.1586  0.0512  0.0594
 1239ERGO    R416675   0.803   7.345   7.173 -0.2222  0.3514 -0.0851
 1239ERGO    R516676   0.664   7.205   7.267  0.0348  0.1281 -0.0161
 1239ERGO    C116677   0.633   7.500   7.507 -0.1967  0.0286  0.0803
 1239ERGO    C216678   0.633   7.830   7.587 -0.1041 -0.0879  0.1916
 1240ERGO   ROH16679   0.522  10.275   6.468  0.1076  0.2169 -0.0226
 1240ERGO    R116680   0.557  10.348   6.739  0.0901  0.1805 -0.0107
 1240ERGO    R216681   0.397  10.249   6.941  0.1304  0.0888 -0.0240
 1240ERGO    R316682   0.635  10.177   7.051  0.1587  0.1521 -0.0432
 1240ERGO    R416683   0.434  10.104   7.253  0.1649 -0.1876 -0.1537
 1240ERGO    R516684   0.611  10.229   7.284  0.0703 -0.0896  0.0044
 1240ERGO    C116685   0.680   9.952   7.537  0.2116 -0.2892 -0.2472
 1240ERGO    C216686   0.744   9.769   7.760  0.1153  0.2054  0.1531
 1241ERGO   ROH16687  13.934  11.637   6.908  0.1002  0.1217 -0.0312
 1241ERGO    R116688  13.816  11.779   7.123 -0.0015  0.1975 -0.1368
 1241ERGO    R216689  13.874  11.724   7.388 -0.2819  0.1516 -0.0845
 1241ERGO    R316690  13.931  11.990   7.396 -0.1091  0.1138 -0.0247
 1241ERGO    R416691  13.896  11.913   7.676 -0.2847  0.0945 -0.0463
 1241ERGO    R516692  13.794  12.075   7.573 -0.1334  0.1787 -0.0719
 1241ERGO    C116693  13.963  12.272   7.852 -0.1239  0.0258  0.0320
 1241ERGO    C216694  13.971  12.522   7.973 -0.1448  0.1853 -0.1070
 1242ERGO   ROH16695  15.411   1.443   6.583  0.5076  0.0903  0.0693
 1242ERGO    R116696  15.327   1.314   6.821 -0.0691  0.2670 -0.0221
 1242ERGO    R216697  15.504   1.196   6.997 -0.5418 -0.4540  0.0207
 1242ERGO    R316698  15.381   1.356   7.178 -0.0730 -0.0718  0.0204
 1242ERGO    R416699  15.406   1.098   7.313 -0.4908 -0.0271  0.1752
 1242ERGO    R516700  15.223   1.213   7.287 -0.2813  0.3252  0.2542
 1242ERGO    C116701  15.234   1.191   7.668 -0.0210  0.5803  0.2649
 1242ERGO    C216702  15.089   1.016   7.898  0.1738  0.1677 -0.0912
 1243ERGO   ROH16703  10.856  17.528   6.576 -0.1544 -0.0769  0.0062
 1243ERGO    R116704  10.947  17.601   6.834 -0.0824  0.0335 -0.0495
 1243ERGO    R216705  10.802  17.766   7.001 -0.0922  0.0100 -0.0335
 1243ERGO    R316706  10.831  17.560   7.176  0.0760  0.0677  0.0087
 1243ERGO    R416707  10.818  17.800   7.345 -0.2364  0.0791 -0.0328
 1243ERGO    R516708  10.974  17.648   7.348 -0.0718  0.2483  0.0408
 1243ERGO    C116709  10.854  17.627   7.709 -0.1623  0.1735  0.0072
 1243ERGO    C216710  10.822  17.681   8.049 -0.3945  0.4253  0.2407
 1244ERGO   ROH16711  16.577  13.630   9.063 -0.0290 -0.0419  0.0971
 1244ERGO    R116712  16.515  13.783   9.294  0.1337  0.0473  0.0835
 1244ERGO    R216713  16.312  13.714   9.468  0.0220  0.3068  0.0644
 1244ERGO    R316714  16.510  13.728   9.653  0.0232  0.0658  0.0845
 1244ERGO    R416715  16.269  13.810   9.797  0.0504 -0.0042  0.1622
 1244ERGO    R516716  16.456  13.921   9.784  0.0813 -0.0473  0.2753
 1244ERGO    C116717  16.431  13.880  10.163  0.0678 -0.4116  0.2382
 1244ERGO    C216718  16.359  13.917  10.506 -0.3799 -0.1206 -0.0213
 1245ERGO   ROH16719   7.220   8.613   6.573 -0.0021  0.3189 -0.1079
 1245ERGO    R116720   7.201   8.517   6.839 -0.0955  0.2655 -0.1324
 1245ERGO    R216721   7.394   8.355   6.953 -0.2240  0.0839 -0.1557
 1245ERGO    R316722   7.396   8.547   7.145 -0.0911  0.0404 -0.1133
 1245ERGO    R416723   7.495   8.307   7.280 -0.1214 -0.0104 -0.2012
 1245ERGO    R516724   7.329   8.432   7.345 -0.0528  0.0258 -0.1142
 1245ERGO    C116725   7.555   8.459   7.651  0.0630 -0.1062 -0.1880
 1245ERGO    C216726   7.632   8.355   7.953  0.3708  0.0346 -0.0563
 1246ERGO   ROH16727  15.513   4.487   6.283  0.0681 -0.2050  0.0287
 1246ERGO    R116728  15.550   4.620   6.529  0.1867 -0.1740 -0.0036
 1246ERGO    R216729  15.367   4.607   6.735  0.0832  0.1787 -0.0558
 1246ERGO    R316730  15.582   4.526   6.879 -0.0848 -0.1107  0.0383
 1246ERGO    R416731  15.434   4.704   7.060  0.3075  0.4468 -0.1792
 1246ERGO    R516732  15.645   4.720   7.006  0.3448 -0.0816 -0.2096
 1246ERGO    C116733  15.676   4.684   7.385  0.2805  0.3312 -0.1627
 1246ERGO    C216734  15.542   4.587   7.727 -0.2801  0.1629 -0.1099
 1247ERGO   ROH16735  12.118  14.718   6.770  0.0104 -0.1156  0.0919
 1247ERGO    R116736  12.214  14.682   7.034 -0.0340 -0.2469  0.0920
 1247ERGO    R216737  12.154  14.857   7.239  0.2128 -0.1524  0.0961
 1247ERGO    R316738  12.068  14.632   7.363 -0.1071 -0.0362  0.0912
 1247ERGO    R416739  12.116  14.823   7.580  0.1008 -0.1018  0.0882
 1247ERGO    R516740  12.198  14.621   7.564 -0.1626 -0.2061  0.1132
 1247ERGO    C116741  12.013  14.591   7.896 -0.2648  0.0366  0.0789
 1247ERGO    C216742  11.805  14.632   8.210  0.0914  0.3510  0.1440
 1248ERGO   ROH16743   7.971   6.673   6.863  0.1733  0.0065  0.0791
 1248ERGO    R116744   7.930   6.588   7.130  0.0411  0.0049  0.0593
 1248ERGO    R216745   8.119   6.623   7.328 -0.0267 -0.0580  0.1402
 1248ERGO    R316746   7.914   6.745   7.458 -0.0465 -0.0046  0.0587
 1248ERGO    R416747   8.103   6.670   7.670 -0.0694  0.1189  0.1145
 1248ERGO    R516748   7.891   6.620   7.661 -0.0613  0.1019  0.1195
 1248ERGO    C116749   7.901   6.812   7.991 -0.1128  0.2719  0.0230
 1248ERGO    C216750   8.064   6.714   8.309  0.1126  0.0782 -0.0055
 1249ERGO   ROH16751   5.438  13.022   6.978  0.0294  0.0247  0.1174
 1249ERGO    R116752   5.312  12.971   7.226  0.0849 -0.0169  0.1387
 1249ERGO    R216753   5.430  12.820   7.425  0.1647  0.0116  0.1219
 1249ERGO    R316754   5.380  13.040   7.577  0.1268 -0.0009  0.1255
 1249ERGO    R416755   5.441  12.828   7.771  0.3837  0.0750  0.1138
 1249ERGO    R516756   5.264  12.955   7.768  0.3075 -0.0404  0.2133
 1249ERGO    C116757   5.401  13.039   8.114  0.4755  0.1001  0.1125
 1249ERGO    C216758   5.334  13.346   8.386  0.0147  0.1093  0.0872
 1250ERGO   ROH16759  16.913   2.691   6.033 -0.0674  0.2076 -0.1446
 1250ERGO    R116760  16.900   2.686   6.316 -0.1683  0.1598 -0.1495
 1250ERGO    R216761  17.112   2.762   6.476 -0.1313 -0.1155 -0.0611
 1250ERGO    R316762  16.927   2.927   6.587  0.0175  0.0733 -0.0888
 1250ERGO    R416763  17.128   2.890   6.796 -0.0321 -0.1039 -0.0705
 1250ERGO    R516764  16.914   2.857   6.815 -0.0675  0.1039 -0.0840
 1250ERGO    C116765  16.964   3.120   7.087  0.1654  0.0801 -0.1020
 1250ERGO    C216766  16.845   3.284   7.368  0.0180 -0.0720  0.0505
 1251ERGO   ROH16767   9.499   3.983   6.885 -0.1703 -0.1661  0.0827
 1251ERGO    R116768   9.528   4.054   7.158 -0.0760 -0.1342  0.0644
 1251ERGO    R216769   9.365   3.952   7.356  0.0457 -0.1732  0.1424
 1251ERGO    R316770   9.602   3.882   7.470  0.1190 -0.0827  0.0489
 1251ERGO    R416771   9.399   3.816   7.672  0.2290 -0.0406  0.1817
 1251ERGO    R516772   9.576   3.941   7.701  0.2238  0.0067  0.0408
 1251ERGO    C116773   9.641   3.671   7.963  0.4044  0.1216  0.1166
 1251ERGO    C216774   9.625   3.441   8.265  0.0504 -0.0701 -0.0974
 1252ERGO   ROH16775  14.005   5.893   8.522  0.1017 -0.1461 -0.1541
 1252ERGO    R116776  13.824   5.819   8.317 -0.0245 -0.1782 -0.0315
 1252ERGO    R216777  13.628   5.628   8.354 -0.1368 -0.0214  0.1838
 1252ERGO    R316778  13.463   5.827   8.268 -0.0406  0.0228  0.0984
 1252ERGO    R416779  13.297   5.585   8.264 -0.1793  0.1079  0.2737
 1252ERGO    R516780  13.329   5.723   8.098 -0.1310 -0.0056  0.1832
 1252ERGO    C116781  12.950   5.747   8.131 -0.1138  0.2245  0.2457
 1252ERGO    C216782  12.576   5.780   8.082  0.0025 -0.0303  0.1282
 1253ERGO   ROH16783   8.306  11.094   7.309 -0.2351 -0.1411  0.1072
 1253ERGO    R116784   8.379  10.860   7.450  0.0215 -0.1056  0.0372
 1253ERGO    R216785   8.619  10.837   7.585 -0.0379  0.1966  0.2014
 1253ERGO    R316786   8.459  10.773   7.795 -0.1002 -0.1623  0.0519
 1253ERGO    R416787   8.732  10.754   7.901 -0.1389  0.3173  0.2700
 1253ERGO    R516788   8.578  10.599   7.909  0.1335  0.0213  0.0970
 1253ERGO    C116789   8.646  10.645   8.282 -0.2563  0.0508  0.1696
 1253ERGO    C216790   8.887  10.793   8.490  0.0183 -0.2423  0.1156
 1254ERGO   ROH16791   8.234   9.713   6.913  0.2337 -0.1546 -0.0265
 1254ERGO    R116792   8.401   9.823   7.114  0.2035  0.0041 -0.0871
 1254ERGO    R216793   8.362  10.077   7.216 -0.0249 -0.0442 -0.0455
 1254ERGO    R316794   8.360   9.945   7.454  0.2172 -0.0743 -0.0573
 1254ERGO    R416795   8.405  10.226   7.525  0.0907 -0.0548 -0.0559
 1254ERGO    R516796   8.527  10.056   7.585  0.2376  0.0139 -0.1569
 1254ERGO    C116797   8.427  10.189   7.928  0.3853 -0.0894 -0.0730
 1254ERGO    C216798   8.496  10.109   8.303 -0.0984  0.1440 -0.0561
 1255ERGO   ROH16799   0.492   0.133   6.954 -0.0660  0.2080  0.0800
 1255ERGO    R116800   0.408   0.119   7.224 -0.0079  0.1416  0.0963
 1255ERGO    R216801   0.586   0.117   7.435  0.0405  0.1190  0.0641
 1255ERGO    R316802   0.438   0.328   7.521  0.0325  0.0851  0.1299
 1255ERGO    R416803   0.614   0.264   7.746  0.0155  0.0213  0.1116
 1255ERGO    R516804   0.396   0.281   7.752  0.0218  0.0133  0.1084
 1255ERGO    C116805   0.490   0.548   8.008 -0.0065 -0.0675  0.2011
 1255ERGO    C216806   0.612   0.698   8.276 -0.0552  0.0294  0.0879
 1256ERGO   ROH16807  17.653   8.185   6.781  0.2815  0.2966  0.0133
 1256ERGO    R116808  17.568   8.104   7.038  0.0903  0.1863 -0.0819
 1256ERGO    R216809  17.744   8.058   7.246 -0.0537 -0.0002  0.0052
 1256ERGO    R316810  17.586   8.236   7.376 -0.0626 -0.0085  0.0043
 1256ERGO    R416811  17.727   8.093   7.589 -0.0390  0.0178  0.0035
 1256ERGO    R516812  17.511   8.119   7.571 -0.0406 -0.0034  0.0143
 1256ERGO    C116813  17.568   8.281   7.912 -0.0387  0.0205  0.0018
 1256ERGO    C216814  17.683   8.318   8.283  0.3690  0.1326  0.2728
 1257ERGO   ROH16815   7.090  15.318   6.584 -0.1298  0.1362 -0.1558
 1257ERGO    R116816   7.106  15.377   6.861 -0.0954  0.0781 -0.1450
 1257ERGO    R216817   7.172  15.629   6.956 -0.0987  0.0619 -0.1005
 1257ERGO    R316818   6.938  15.603   7.092 -0.0781  0.0180 -0.0731
 1257ERGO    R416819   7.133  15.687   7.294 -0.1007  0.2045 -0.1249
 1257ERGO    R516820   7.003  15.513   7.304 -0.0203  0.1474 -0.0340
 1257ERGO    C116821   6.891  15.698   7.619 -0.0825  0.2462 -0.1133
 1257ERGO    C216822   6.672  15.661   7.887  0.2688  0.1192  0.1220
 1258ERGO   ROH16823  11.632   9.016   6.868  0.2145  0.0892  0.0606
 1258ERGO    R116824  11.623   8.899   7.126 -0.0361  0.1635  0.0894
 1258ERGO    R216825  11.851   8.843   7.271 -0.1569 -0.1315  0.1752
 1258ERGO    R316826  11.727   8.992   7.462 -0.0049  0.1005  0.0970
 1258ERGO    R416827  11.980   8.910   7.585 -0.1296 -0.1793  0.1740
 1258ERGO    R516828  11.781   8.882   7.668 -0.1845  0.1065  0.1480
 1258ERGO    C116829  11.938   9.089   7.946  0.0289  0.0107  0.0999
 1258ERGO    C216830  12.031   9.253   8.220  0.2284 -0.1661 -0.1678
 1259ERGO   ROH16831   8.561   3.246   6.550 -0.0345 -0.0353  0.0068
 1259ERGO    R116832   8.671   3.300   6.806  0.0173  0.0296 -0.0286
 1259ERGO    R216833   8.558   3.205   7.040  0.0124  0.1645  0.0265
 1259ERGO    R316834   8.808   3.105   7.080 -0.0180  0.0918  0.0329
 1259ERGO    R416835   8.696   3.137   7.349 -0.0201  0.1056  0.0280
 1259ERGO    R516836   8.886   3.216   7.277  0.0047  0.0562  0.0430
 1259ERGO    C116837   9.011   3.004   7.568 -0.0678  0.0030  0.0349
 1259ERGO    C216838   9.013   2.909   7.899 -0.2976  0.0760 -0.2191
 1260ERGO   ROH16839   9.766  10.821   6.499  0.2169  0.1530 -0.0653
 1260ERGO    R116840   9.761  10.990   6.725  0.2403  0.0808 -0.0095
 1260ERGO    R216841   9.544  11.002   6.896  0.1409  0.2297 -0.1366
 1260ERGO    R316842   9.731  10.948   7.086 -0.0235 -0.0211 -0.0420
 1260ERGO    R416843   9.508  11.068   7.234  0.0142  0.1464 -0.1338
 1260ERGO    R516844   9.716  11.132   7.238  0.0731 -0.0622  0.0121
 1260ERGO    C116845   9.663  11.055   7.608 -0.2140 -0.1375 -0.0435
 1260ERGO    C216846   9.438  11.241   7.786  0.0878  0.0756 -0.2239
 1261ERGO   ROH16847  10.676   6.894   6.736 -0.0616 -0.0883  0.0286
 1261ERGO    R116848  10.519   6.955   6.963  0.0396 -0.0582  0.0914
 1261ERGO    R216849  10.566   6.842   7.211  0.2180  0.0568  0.1127
 1261ERGO    R316850  10.574   7.101   7.292  0.1654  0.0926  0.0041
 1261ERGO    R416851  10.560   6.947   7.540  0.1209  0.1974  0.0666
 1261ERGO    R516852  10.428   7.110   7.481  0.1161  0.1562 -0.0369
 1261ERGO    C116853  10.565   7.252   7.807  0.0149  0.3131 -0.0621
 1261ERGO    C216854  10.758   7.488   7.948  0.2744 -0.0672 -0.1889
 1262ERGO   ROH16855   9.874  16.938   6.714  0.0391 -0.3357  0.1314
 1262ERGO    R116856   9.978  16.925   6.977  0.1568  0.0048  0.1074
 1262ERGO    R216857  10.009  17.148   7.136 -0.1324  0.1711 -0.0536
 1262ERGO    R316858   9.860  17.004   7.312  0.1481  0.0527  0.0914
 1262ERGO    R416859   9.985  17.215   7.474  0.0422  0.2128 -0.0492
 1262ERGO    R516860   9.993  17.000   7.511  0.2954  0.2329 -0.0049
 1262ERGO    C116861   9.832  17.118   7.837  0.4072  0.1261  0.0895
 1262ERGO    C216862   9.650  17.065   8.151 -0.2605 -0.2376 -0.0452
 1263ERGO   ROH16863  12.263  12.587   6.891  0.0055 -0.2260 -0.1134
 1263ERGO    R116864  12.250  12.429   7.126  0.0320 -0.0868 -0.0178
 1263ERGO    R216865  12.444  12.438   7.322 -0.0294  0.1499  0.0326
 1263ERGO    R316866  12.232  12.490   7.484 -0.1047  0.1271 -0.0586
 1263ERGO    R416867  12.404  12.312   7.642 -0.1492  0.1445  0.0159
 1263ERGO    R516868  12.192  12.284   7.598 -0.1294  0.1209 -0.0754
 1263ERGO    C116869  12.181  12.289   7.980 -0.2897  0.1197 -0.0794
 1263ERGO    C216870  12.330  12.167   8.301 -0.0628  0.2188  0.0705
 1264ERGO   ROH16871  12.994  10.736   6.705 -0.1691  0.1564 -0.0690
 1264ERGO    R116872  13.008  10.598   6.952 -0.0284  0.1243 -0.0947
 1264ERGO    R216873  13.236  10.594   7.108 -0.0234  0.3219 -0.1031
 1264ERGO    R316874  13.067  10.685   7.301 -0.1085  0.1174 -0.0777
 1264ERGO    R416875  13.248  10.503   7.441  0.2640  0.4641 -0.0707
 1264ERGO    R516876  13.030  10.496   7.442  0.2643  0.0991  0.0116
 1264ERGO    C116877  13.096  10.535   7.816  0.3516  0.3551 -0.0280
 1264ERGO    C216878  13.136  10.457   8.123  0.0480  0.3021  0.0470
 1265ERGO   ROH16879   5.025   3.705   6.265 -0.1029 -0.1242 -0.0911
 1265ERGO    R116880   5.031   3.546   6.499  0.0482  0.0944  0.0558
 1265ERGO    R216881   4.965   3.646   6.748 -0.3529  0.1869 -0.0858
 1265ERGO    R316882   4.792   3.436   6.750  0.0749 -0.1808 -0.0337
 1265ERGO    R416883   4.846   3.493   7.034 -0.4236  0.3639 -0.0190
 1265ERGO    R516884   4.867   3.300   6.933  0.1231  0.2407  0.2800
 1265ERGO    C116885   4.614   3.207   7.204 -0.0632  0.1219  0.0688
 1265ERGO    C216886   4.540   3.272   7.513 -0.1183 -0.1589  0.0563
 1266ERGO   ROH16887   1.834  14.699   6.801 -0.2417 -0.1648 -0.0904
 1266ERGO    R116888   1.878  14.816   7.054 -0.1176 -0.0929 -0.1445
 1266ERGO    R216889   1.704  14.781   7.267 -0.0199 -0.0245 -0.0521
 1266ERGO    R316890   1.929  14.698   7.395  0.0373  0.0034 -0.1338
 1266ERGO    R416891   1.743  14.766   7.610  0.0513 -0.1758 -0.0657
 1266ERGO    R516892   1.946  14.841   7.586  0.0161 -0.0829 -0.0673
 1266ERGO    C116893   1.977  14.679   7.930  0.1465 -0.2377 -0.1503
 1266ERGO    C216894   2.050  14.739   8.266 -0.1193 -0.2754  0.1607
 1267ERGO   ROH16895   0.457  12.302   6.728 -0.1508  0.1041  0.0527
 1267ERGO    R116896   0.441  12.233   7.002 -0.2313  0.3001  0.0991
 1267ERGO    R216897   0.659  12.140   7.145 -0.3689 -0.0059  0.1136
 1267ERGO    R316898   0.594  12.344   7.313  0.0258  0.2193  0.0043
 1267ERGO    R416899   0.776  12.175   7.468 -0.3864 -0.1266  0.1338
 1267ERGO    R516900   0.577  12.241   7.528 -0.2702  0.3425  0.0463
 1267ERGO    C116901   0.784  12.387   7.814 -0.0260  0.0144  0.0430
 1267ERGO    C216902   0.799  12.514   8.093  0.1042  0.0457  0.2260
 1268ERGO   ROH16903  15.511  10.379   7.195  0.0117 -0.0116  0.0316
 1268ERGO    R116904  15.561  10.352   7.472  0.1170  0.0160  0.0154
 1268ERGO    R216905  15.449  10.151   7.625 -0.0166  0.1717  0.1244
 1268ERGO    R316906  15.708  10.101   7.691 -0.0324 -0.0736  0.0148
 1268ERGO    R416907  15.554  10.005   7.920 -0.0398 -0.1290 -0.0120
 1268ERGO    R516908  15.719  10.146   7.926  0.0693 -0.2562  0.0468
 1268ERGO    C116909  15.858   9.874   8.154 -0.0682 -0.5344 -0.1944
 1268ERGO    C216910  15.811   9.720   8.486 -0.2034 -0.2963 -0.2958
 1269ERGO   ROH16911   3.266  10.470   6.518  0.3195 -0.1766  0.0280
 1269ERGO    R116912   3.340  10.314   6.742  0.0165 -0.1516  0.1492
 1269ERGO    R216913   3.570  10.361   6.887  0.0627 -0.4267  0.1630
 1269ERGO    R316914   3.397  10.371   7.097  0.0286 -0.0091  0.1263
 1269ERGO    R416915   3.663  10.369   7.220  0.0201 -0.5455  0.1788
 1269ERGO    R516916   3.499  10.233   7.264 -0.2902 -0.1956  0.1792
 1269ERGO    C116917   3.554  10.382   7.611 -0.0368 -0.2227  0.1535
 1269ERGO    C216918   3.381  10.478   7.902  0.1547  0.0292 -0.0929
 1270ERGO   ROH16919   5.496  10.949   6.890  0.0190 -0.2285  0.0211
 1270ERGO    R116920   5.499  10.866   7.161 -0.0554 -0.1681  0.0405
 1270ERGO    R216921   5.513  11.045   7.371  0.0431 -0.1280  0.0004
 1270ERGO    R316922   5.289  10.915   7.455 -0.0478  0.0345  0.0135
 1270ERGO    R416923   5.403  11.033   7.698  0.0453 -0.0381  0.0046
 1270ERGO    R516924   5.350  10.823   7.668 -0.1060 -0.0020  0.0143
 1270ERGO    C116925   5.129  10.904   7.968 -0.0387  0.1668  0.0195
 1270ERGO    C216926   4.987  10.867   8.277  0.2591  0.1583 -0.0199
 1271ERGO   ROH16927   0.253  15.792   6.512 -0.1438 -0.1232  0.1331
 1271ERGO    R116928   0.410  15.793   6.747 -0.1134 -0.0665  0.1123
 1271ERGO    R216929   0.301  15.772   6.999 -0.0695 -0.1519  0.1238
 1271ERGO    R316930   0.476  15.565   7.023  0.0431 -0.0634  0.0790
 1271ERGO    R416931   0.382  15.615   7.297 -0.1692 -0.3276  0.0601
 1271ERGO    R516932   0.590  15.607   7.229 -0.1176 -0.1481  0.1875
 1271ERGO    C116933   0.594  15.330   7.492 -0.1217 -0.3469 -0.0190
 1271ERGO    C216934   0.781  14.986   7.597  0.0188 -0.1712  0.4882
 1272ERGO   ROH16935   2.785   3.707   6.589 -0.0837 -0.2960 -0.1237
 1272ERGO    R116936   2.849   3.850   6.825  0.0408 -0.2015 -0.2132
 1272ERGO    R216937   2.722   3.804   7.066 -0.0901  0.1472 -0.2093
 1272ERGO    R316938   2.976   3.769   7.157 -0.1570 -0.1242 -0.1183
 1272ERGO    R416939   2.819   3.832   7.396 -0.1581  0.1343 -0.1881
 1272ERGO    R516940   3.000   3.933   7.329 -0.0169 -0.0993 -0.1628
 1272ERGO    C116941   3.114   3.816   7.674 -0.2605 -0.1280 -0.0903
 1272ERGO    C216942   3.268   3.725   8.019  0.2360 -0.0397  0.0358
 1273ERGO   ROH16943   2.588   0.181   6.676  0.0530 -0.0929 -0.1633
 1273ERGO    R116944   2.562  -0.017   6.876  0.2884 -0.1209 -0.1589
 1273ERGO    R216945   2.762  -0.069   7.060  0.3142  0.1894 -0.0957
 1273ERGO    R316946   2.562  -0.027   7.240  0.1924 -0.0962 -0.1583
 1273ERGO    R416947   2.764  -0.181   7.388  0.4235  0.2926 -0.0597
 1273ERGO    R516948   2.552  -0.230   7.367  0.5085 -0.0780 -0.0983
 1273ERGO    C116949   2.577  -0.206   7.746  0.3728  0.0846 -0.0975
 1273ERGO    C216950   2.526  -0.342   8.104 -0.2702 -0.2382 -0.0788
 1274ERGO   ROH16951   9.746  14.609   6.786  0.0699  0.2533  0.0141
 1274ERGO    R116952   9.640  14.502   7.025  0.0808  0.2160  0.0023
 1274ERGO    R216953   9.769  14.304   7.170  0.0526  0.1391 -0.0727
 1274ERGO    R316954   9.743  14.482   7.374  0.1355  0.0929 -0.0211
 1274ERGO    R416955   9.707  14.220   7.499 -0.0811  0.0849 -0.1112
 1274ERGO    R516956   9.571  14.390   7.512  0.0398  0.1766 -0.0876
 1274ERGO    C116957   9.645  14.338   7.882 -0.0810  0.0101 -0.0851
 1274ERGO    C216958   9.702  14.194   8.167  0.2178  0.2464  0.6198
 1275ERGO   ROH16959   0.721   3.266   9.969  0.0659  0.0601 -0.0042
 1275ERGO    R116960   0.698   3.377   9.710 -0.0380 -0.0493 -0.0431
 1275ERGO    R216961   0.917   3.436   9.553 -0.0954  0.0276 -0.0945
 1275ERGO    R316962   0.789   3.280   9.371 -0.0248 -0.1184 -0.0204
 1275ERGO    R416963   0.968   3.449   9.211 -0.3191  0.1119 -0.1255
 1275ERGO    R516964   0.753   3.425   9.183 -0.3143 -0.1446  0.0080
 1275ERGO    C116965   0.876   3.310   8.841 -0.3831  0.0241 -0.0740
 1275ERGO    C216966   0.961   3.048   8.584  0.1215  0.1334  0.1183
 1276ERGO   ROH16967   2.524   1.985  10.234  0.0413  0.0157 -0.0733
 1276ERGO    R116968   2.485   2.108   9.982  0.2505  0.0393 -0.0933
 1276ERGO    R216969   2.684   2.122   9.791  0.2726 -0.3274 -0.0884
 1276ERGO    R316970   2.496   2.006   9.633  0.0800 -0.0338 -0.0805
 1276ERGO    R416971   2.697   2.109   9.446  0.4326 -0.6279 -0.0762
 1276ERGO    R516972   2.483   2.150   9.441  0.5073 -0.1406 -0.2086
 1276ERGO    C116973   2.528   1.994   9.096  0.3450 -0.5272 -0.0617
 1276ERGO    C216974   2.697   1.917   8.750  0.0178 -0.1285  0.0685
 1277ERGO   ROH16975  13.118   3.685   6.344  0.0123 -0.0177 -0.0824
 1277ERGO    R116976  13.228   3.895   6.498  0.0986 -0.0968 -0.0353
 1277ERGO    R216977  13.102   3.998   6.721  0.0579  0.0197 -0.1114
 1277ERGO    R316978  13.338   3.941   6.842 -0.0533 -0.1654  0.0237
 1277ERGO    R416979  13.211   4.138   7.018 -0.0021 -0.0629 -0.0500
 1277ERGO    R516980  13.412   4.150   6.932  0.0587 -0.2197  0.0625
 1277ERGO    C116981  13.498   4.165   7.304 -0.1414 -0.2849  0.1126
 1277ERGO    C216982  13.658   4.122   7.575 -0.0180  0.1845 -0.1617
 1278ERGO   ROH16983   1.852  11.263   7.042  0.0674  0.0726  0.0265
 1278ERGO    R116984   1.784  11.232   7.315  0.0470 -0.0329  0.0086
 1278ERGO    R216985   1.943  11.327   7.520 -0.0235 -0.0159  0.0520
 1278ERGO    R316986   1.714  11.451   7.597 -0.0912 -0.1424  0.0606
 1278ERGO    R416987   1.904  11.503   7.815  0.0694  0.4474 -0.2017
 1278ERGO    R516988   1.705  11.416   7.834  0.1810  0.2477  0.1381
 1278ERGO    C116989   1.667  11.722   8.059  0.0599  0.5985 -0.3414
 1278ERGO    C216990   1.710  11.919   8.401  0.1531  0.3285 -0.1583
 1279ERGO   ROH16991   2.081   4.536   6.479  0.0772  0.1150 -0.0516
 1279ERGO    R116992   2.081   4.574   6.759  0.0345  0.0183 -0.0379
 1279ERGO    R216993   2.151   4.814   6.878  0.1197 -0.0518  0.0622
 1279ERGO    R316994   1.908   4.789   6.997  0.0819  0.0158 -0.0032
 1279ERGO    R416995   2.056   4.975   7.168  0.0295  0.0795 -0.0391
 1279ERGO    R516996   1.956   4.792   7.232  0.0018  0.1172  0.0092
 1279ERGO    C116997   1.773   5.045   7.450 -0.0585  0.2194 -0.1596
 1279ERGO    C216998   1.748   5.244   7.778 -0.1761 -0.2003 -0.0319
 1280ERGO   ROH16999  17.733  14.841   6.778  0.2568  0.0788 -0.0013
 1280ERGO    R117000  17.663  14.927   7.038  0.0036  0.0092 -0.0443
 1280ERGO    R217001  17.552  14.758   7.226  0.1276 -0.1243 -0.0923
 1280ERGO    R317002  17.759  14.844   7.379 -0.0648  0.1651  0.0148
 1280ERGO    R417003  17.559  14.749   7.572  0.0503 -0.3414 -0.0942
 1280ERGO    R517004  17.655  14.945   7.570 -0.3095 -0.1518  0.0598
 1280ERGO    C117005  17.759  14.825   7.916 -0.1752 -0.1960  0.0051
 1280ERGO    C217006  17.743  14.932   8.166  0.0945  0.0434 -0.1943
 1281ERGO   ROH17007   4.999   3.039  10.349  0.2047 -0.1302  0.0035
 1281ERGO    R117008   4.898   3.029  10.084  0.1949 -0.2296  0.0109
 1281ERGO    R217009   4.845   3.256   9.936 -0.0541 -0.2780  0.0201
 1281ERGO    R317010   5.008   3.136   9.755  0.0600 -0.1050  0.0055
 1281ERGO    R417011   4.816   3.287   9.593 -0.1336 -0.3325  0.0215
 1281ERGO    R517012   4.862   3.075   9.575  0.1050 -0.2824  0.0283
 1281ERGO    C117013   4.952   3.193   9.223 -0.0728 -0.2018  0.0086
 1281ERGO    C217014   5.087   3.226   8.907 -0.0291 -0.0470  0.0730
 1282ERGO   ROH17015   4.275   5.528   6.336 -0.0093  0.0669  0.0045
 1282ERGO    R117016   4.290   5.436   6.604  0.0412 -0.0101 -0.0248
 1282ERGO    R217017   4.505   5.492   6.768 -0.0562  0.1830  0.0376
 1282ERGO    R317018   4.311   5.587   6.934 -0.2035 -0.0987  0.0338
 1282ERGO    R417019   4.535   5.520   7.112 -0.0967  0.2405  0.0369
 1282ERGO    R517020   4.329   5.451   7.131  0.0012 -0.0693  0.0388
 1282ERGO    C117021   4.372   5.625   7.467 -0.2585  0.0097  0.0330
 1282ERGO    C217022   4.277   5.709   7.777 -0.3431 -0.0355 -0.0938
 1283ERGO   ROH17023   2.014   8.085   6.141 -0.0346  0.0675 -0.1189
 1283ERGO    R117024   2.088   8.026   6.407  0.0484  0.1396 -0.1250
 1283ERGO    R217025   2.122   8.221   6.599 -0.0609  0.1800 -0.1436
 1283ERGO    R317026   1.944   8.071   6.739  0.0654  0.0626 -0.1075
 1283ERGO    R417027   2.130   8.174   6.942  0.1671 -0.0001 -0.1709
 1283ERGO    R517028   2.076   7.965   6.909  0.1990  0.0049 -0.2463
 1283ERGO    C117029   1.966   8.006   7.272  0.4184 -0.2152 -0.1527
 1283ERGO    C217030   1.865   8.146   7.595  0.1295  0.0562 -0.0714
 1284ERGO   ROH17031  14.363  14.831   6.840  0.0571  0.0954 -0.0105
 1284ERGO    R117032  14.486  14.694   7.055  0.0029  0.1346  0.0447
 1284ERGO    R217033  14.685  14.807   7.209 -0.0199  0.1515  0.0549
 1284ERGO    R317034  14.520  14.741   7.414 -0.0620  0.2124  0.0418
 1284ERGO    R417035  14.787  14.750   7.534 -0.0155 -0.2092 -0.0047
 1284ERGO    R517036  14.645  14.584   7.544 -0.2257 -0.0440 -0.0959
 1284ERGO    C117037  14.690  14.655   7.916 -0.0525 -0.3620 -0.0516
 1284ERGO    C217038  14.621  14.550   8.168 -0.1348  0.1184 -0.0352
 1285ERGO   ROH17039   6.321   0.317   6.585 -0.0607  0.1325  0.0656
 1285ERGO    R117040   6.212   0.317   6.846 -0.1039 -0.0350  0.0488
 1285ERGO    R217041   6.198   0.089   7.002  0.0492 -0.0968 -0.0264
 1285ERGO    R317042   6.331   0.242   7.182 -0.0992 -0.0485  0.0444
 1285ERGO    R417043   6.150   0.078   7.344 -0.1349 -0.1061 -0.0515
 1285ERGO    R517044   6.167   0.295   7.348 -0.2088 -0.0993 -0.0458
 1285ERGO    C117045   6.247   0.215   7.712 -0.3814 -0.0662  0.0005
 1285ERGO    C217046   6.305   0.227   7.966  0.1999 -0.2342 -0.3472
 1286ERGO   ROH17047   3.616   9.743   6.187  0.1919 -0.0467  0.0075
 1286ERGO    R117048   3.698   9.824   6.445  0.0650 -0.0158  0.0380
 1286ERGO    R217049   3.524   9.939   6.627 -0.0342 -0.0388 -0.0450
 1286ERGO    R317050   3.613   9.739   6.789 -0.0657 -0.0107  0.0080
 1286ERGO    R417051   3.462   9.917   6.966 -0.3619 -0.1348 -0.1073
 1286ERGO    R517052   3.667   9.849   6.994 -0.3413 -0.0077  0.0850
 1286ERGO    C117053   3.508   9.718   7.315 -0.5824 -0.1643 -0.0938
 1286ERGO    C217054   3.320   9.519   7.496 -0.3394  0.0337 -0.1650
 1287ERGO   ROH17055  14.433   9.372   8.811  0.3055  0.1003 -0.0865
 1287ERGO    R117056  14.504   9.209   9.031  0.2491  0.0769 -0.0858
 1287ERGO    R217057  14.682   9.292   9.225  0.1380  0.0884  0.0121
 1287ERGO    R317058  14.478   9.229   9.393  0.0774 -0.0009 -0.0928
 1287ERGO    R417059  14.709   9.270   9.569 -0.0824  0.3239  0.0478
 1287ERGO    R517060  14.580   9.094   9.563  0.0867  0.1974  0.0619
 1287ERGO    C117061  14.533   9.198   9.927 -0.2675  0.3772 -0.0301
 1287ERGO    C217062  14.582   9.205  10.325  0.3295 -0.1374 -0.1150
 1288ERGO   ROH17063  12.257   4.468   6.699  0.0317  0.1671 -0.0532
 1288ERGO    R117064  12.403   4.536   6.931  0.0211  0.0733 -0.0184
 1288ERGO    R217065  12.282   4.620   7.164  0.0157  0.0663 -0.0204
 1288ERGO    R317066  12.426   4.418   7.274 -0.0658 -0.0017 -0.0376
 1288ERGO    R417067  12.386   4.609   7.493  0.2349  0.1278 -0.0861
 1288ERGO    R517068  12.577   4.528   7.425  0.1271 -0.0518 -0.1873
 1288ERGO    C117069  12.582   4.413   7.789  0.2861  0.0997 -0.1404
 1288ERGO    C217070  12.490   4.484   8.133  0.1409  0.1009  0.1137
 1289ERGO   ROH17071  15.703   0.037   6.553 -0.1108  0.1143 -0.1135
 1289ERGO    R117072  15.776   0.062   6.825 -0.0582  0.0804 -0.1253
 1289ERGO    R217073  15.700   0.278   6.980  0.0101  0.0805 -0.0986
 1289ERGO    R317074  15.602   0.084   7.144  0.0038  0.0885 -0.0910
 1289ERGO    R417075  15.569   0.333   7.295 -0.0010  0.0995 -0.1052
 1289ERGO    R517076  15.669   0.152   7.364 -0.0023  0.1016 -0.0912
 1289ERGO    C117077  15.400   0.183   7.633 -0.0131  0.1181 -0.1020
 1289ERGO    C217078  15.463   0.139   7.974 -0.0253 -0.0108  0.2517
 1290ERGO   ROH17079   1.524   1.876   6.665  0.1021 -0.0482  0.0190
 1290ERGO    R117080   1.444   1.870   6.937  0.2383 -0.0465  0.0602
 1290ERGO    R217081   1.622   1.908   7.146  0.2963  0.2478 -0.0354
 1290ERGO    R317082   1.445   2.102   7.217  0.0922  0.0615 -0.0283
 1290ERGO    R417083   1.512   1.967   7.468  0.1075  0.0273 -0.0574
 1290ERGO    R517084   1.312   2.001   7.389  0.1106 -0.1216 -0.1225
 1290ERGO    C117085   1.282   2.183   7.723 -0.1940 -0.2761 -0.0636
 1290ERGO    C217086   1.466   2.272   8.026  0.3613 -0.2064  0.2432
 1291ERGO   ROH17087  17.263  15.954   6.764 -0.0219  0.0377 -0.0341
 1291ERGO    R117088  17.152  15.846   7.001 -0.2002  0.0121 -0.1261
 1291ERGO    R217089  17.308  15.753   7.209 -0.3502 -0.3345 -0.1576
 1291ERGO    R317090  17.160  15.927   7.356 -0.1543 -0.2401 -0.0695
 1291ERGO    R417091  17.303  15.765   7.554 -0.3822 -0.5385 -0.1498
 1291ERGO    R517092  17.088  15.799   7.545 -0.3386 -0.2663 -0.1591
 1291ERGO    C117093  17.161  15.936   7.893 -0.2169 -0.5689 -0.0628
 1291ERGO    C217094  17.366  15.921   8.121  0.2298 -0.2135  0.1275
 1292ERGO   ROH17095   9.057   4.481   7.090 -0.0112  0.1679  0.0840
 1292ERGO    R117096   9.174   4.441   7.345  0.0346  0.0637  0.0469
 1292ERGO    R217097   9.031   4.462   7.580  0.1168  0.1452  0.0911
 1292ERGO    R317098   9.127   4.212   7.624 -0.0462  0.0721  0.0402
 1292ERGO    R417099   9.066   4.316   7.891  0.1210  0.0978  0.0683
 1292ERGO    R517100   9.256   4.232   7.825  0.0386 -0.0340 -0.0032
 1292ERGO    C117101   9.177   3.996   8.114 -0.0297  0.0016  0.0072
 1292ERGO    C217102   9.195   3.839   8.369  0.4541 -0.4646 -0.2829
 1293ERGO   ROH17103   9.140   1.613   6.739  0.0681  0.1012  0.2139
 1293ERGO    R117104   9.213   1.532   7.000  0.0739  0.0801  0.2059
 1293ERGO    R217105   9.159   1.685   7.223 -0.0935 -0.0264  0.2407
 1293ERGO    R317106   9.040   1.456   7.311  0.0626 -0.1455  0.1466
 1293ERGO    R417107   9.204   1.547   7.537 -0.1959  0.0158  0.2740
 1293ERGO    R517108   9.209   1.350   7.445  0.0688  0.0187  0.2731
 1293ERGO    C117109   9.119   1.253   7.803 -0.1089 -0.0715  0.2052
 1293ERGO    C217110   9.088   1.183   8.124  0.0639  0.1902  0.1620
 1294ERGO   ROH17111   1.380   0.046   6.674  0.0798 -0.1665  0.1299
 1294ERGO    R117112   1.443  -0.064   6.927  0.0674 -0.0562  0.1821
 1294ERGO    R217113   1.637   0.044   7.092  0.0184  0.0539  0.1747
 1294ERGO    R317114   1.434   0.049   7.273 -0.0133  0.0747  0.1372
 1294ERGO    R417115   1.676   0.091   7.432 -0.0199 -0.1905  0.2136
 1294ERGO    R517116   1.523  -0.061   7.466 -0.1275 -0.1082  0.0856
 1294ERGO    C117117   1.508   0.123   7.800 -0.0720 -0.3134  0.2010
 1294ERGO    C217118   1.718   0.361   8.076  0.2276  0.0016 -0.0564
 1295ERGO   ROH17119   6.406  10.631   6.906  0.0213  0.0068 -0.0924
 1295ERGO    R117120   6.346  10.515   7.157  0.1479 -0.0832 -0.1016
 1295ERGO    R217121   6.541  10.459   7.345  0.2107  0.1503 -0.0865
 1295ERGO    R317122   6.382  10.609   7.507  0.0066 -0.0521 -0.0963
 1295ERGO    R417123   6.527  10.432   7.690  0.0936  0.0243 -0.1012
 1295ERGO    R517124   6.311  10.458   7.678  0.0768 -0.1724 -0.1766
 1295ERGO    C117125   6.369  10.558   8.042 -0.1661 -0.2392 -0.1189
 1295ERGO    C217126   6.255  10.609   8.436  0.2299 -0.0806 -0.2428
 1296ERGO   ROH17127   6.197  13.010   8.564  0.0627 -0.0653  0.1123
 1296ERGO    R117128   6.352  13.222   8.669  0.0167 -0.0117  0.0695
 1296ERGO    R217129   6.594  13.181   8.796  0.0727  0.0754 -0.0188
 1296ERGO    R317130   6.683  13.361   8.613 -0.0560  0.1238 -0.0366
 1296ERGO    R417131   6.872  13.381   8.837 -0.0278  0.2268 -0.0605
 1296ERGO    R517132   6.761  13.546   8.745 -0.1354  0.1689 -0.0458
 1296ERGO    C117133   7.118  13.668   8.689 -0.2071  0.3603 -0.1015
 1296ERGO    C217134   7.491  13.813   8.761  0.0919  0.0395 -0.0827
 1297ERGO   ROH17135  16.643  13.500   7.271  0.3052  0.0588  0.0543
 1297ERGO    R117136  16.666  13.747   7.407  0.4990 -0.0231  0.1763
 1297ERGO    R217137  16.445  13.896   7.485  0.6026  0.3451 -0.1813
 1297ERGO    R317138  16.565  13.882   7.729  0.1406  0.0406  0.0413
 1297ERGO    R417139  16.392  14.116   7.746  0.4642  0.2998 -0.1721
 1297ERGO    R517140  16.604  14.109   7.790  0.3827 -0.0471  0.2187
 1297ERGO    C117141  16.473  14.231   8.127 -0.0500 -0.0123  0.0423
 1297ERGO    C217142  16.346  14.493   8.407 -0.1639 -0.2591  0.0462
 1298ERGO   ROH17143   5.487  14.915  10.613 -0.0992 -0.3186  0.1298
 1298ERGO    R117144   5.466  14.774  10.369 -0.0704 -0.1808  0.0457
 1298ERGO    R217145   5.367  14.890  10.138 -0.0754 -0.0580  0.1025
 1298ERGO    R317146   5.603  14.806  10.033 -0.0576  0.0335  0.0711
 1298ERGO    R417147   5.448  14.901   9.803 -0.2066 -0.2404  0.0642
 1298ERGO    R517148   5.542  14.705   9.824 -0.0632 -0.1560  0.1664
 1298ERGO    C117149   5.717  14.828   9.508 -0.2663 -0.2606  0.0124
 1298ERGO    C217150   5.828  14.788   9.233  0.1121  0.0756 -0.0389
 1299ERGO   ROH17151  16.993   7.314   6.917  0.0431  0.2289  0.1077
 1299ERGO    R117152  16.974   7.186   7.170 -0.0884  0.0282  0.0006
 1299ERGO    R217153  17.033   7.316   7.407  0.1813 -0.2709  0.1103
 1299ERGO    R317154  16.783   7.234   7.476  0.0641  0.0580  0.0902
 1299ERGO    R417155  16.923   7.272   7.731  0.1429 -0.2815  0.0947
 1299ERGO    R517156  16.818   7.092   7.666 -0.1281 -0.0939  0.0108
 1299ERGO    C117157  16.624   7.169   7.985  0.0106  0.0209  0.0667
 1299ERGO    C217158  16.443   7.302   8.220  0.2602 -0.1891 -0.1518
 1300ERGO   ROH17159   5.579   2.294  10.259  0.2105  0.1680  0.0782
 1300ERGO    R117160   5.605   2.447  10.022  0.1365  0.1035  0.0279
 1300ERGO    R217161   5.848   2.487   9.897  0.0793 -0.0380 -0.1322
 1300ERGO    R317162   5.717   2.389   9.681 -0.1009 -0.0244 -0.0304
 1300ERGO    R417163   5.937   2.545   9.568 -0.1330 -0.0971 -0.2015
 1300ERGO    R517164   5.726   2.565   9.520 -0.1635 -0.0430 -0.0556
 1300ERGO    C117165   5.866   2.485   9.174 -0.4257 -0.1186 -0.1463
 1300ERGO    C217166   5.901   2.582   8.844 -0.1468  0.0935  0.0165
 1301ERGO   ROH17167   4.947  10.173   6.673  0.0585 -0.1064 -0.0338
 1301ERGO    R117168   4.978  10.182   6.954 -0.0608  0.0318 -0.0234
 1301ERGO    R217169   4.852  10.006   7.123  0.0502 -0.0347 -0.0074
 1301ERGO    R317170   5.104   9.961   7.213  0.0634  0.2544  0.1093
 1301ERGO    R417171   4.930   9.894   7.441  0.0042 -0.2536 -0.0720
 1301ERGO    R517172   5.099  10.033   7.442 -0.2022  0.0072  0.1867
 1301ERGO    C117173   5.213   9.786   7.710 -0.0100 -0.1100 -0.0000
 1301ERGO    C217174   5.158   9.706   8.018  0.0572  0.1164  0.0036
 1302ERGO   ROH17175  10.404   4.480   6.715  0.1015  0.0228  0.1649
 1302ERGO    R117176  10.335   4.668   6.915 -0.1150  0.0731  0.0462
 1302ERGO    R217177  10.073   4.731   6.976 -0.1920 -0.1808 -0.0008
 1302ERGO    R317178  10.151   4.666   7.228 -0.1211  0.0595  0.0417
 1302ERGO    R417179   9.925   4.850   7.264 -0.2868 -0.1226 -0.0731
 1302ERGO    R517180  10.124   4.869   7.353 -0.3006  0.1187 -0.0923
 1302ERGO    C117181   9.912   4.858   7.669 -0.2754  0.1369 -0.0753
 1302ERGO    C217182  10.002   4.923   7.972  0.2032  0.1591 -0.2161
 1303ERGO   ROH17183  14.180   2.403   9.946  0.1091 -0.0506 -0.1433
 1303ERGO    R117184  14.119   2.253   9.714  0.0727 -0.1946 -0.0416
 1303ERGO    R217185  14.141   2.357   9.459 -0.3227 -0.2305 -0.0956
 1303ERGO    R317186  14.298   2.139   9.418 -0.0709 -0.0356 -0.1927
 1303ERGO    R417187  14.126   2.154   9.180 -0.4155 -0.3829  0.0191
 1303ERGO    R517188  14.153   1.981   9.311 -0.0026 -0.2898  0.0747
 1303ERGO    C117189  14.265   1.830   8.979 -0.2332 -0.2887 -0.0054
 1303ERGO    C217190  14.169   1.505   8.777 -0.2673  0.0513 -0.0301
 1304ERGO   ROH17191   5.113  16.608   6.539 -0.2835  0.0611 -0.2118
 1304ERGO    R117192   5.187  16.562   6.808 -0.1684 -0.0761 -0.2660
 1304ERGO    R217193   5.208  16.766   6.994 -0.0751 -0.1694 -0.1753
 1304ERGO    R317194   5.036  16.610   7.136 -0.0216 -0.2280 -0.1739
 1304ERGO    R417195   5.250  16.678   7.325 -0.2220  0.1514 -0.0670
 1304ERGO    R517196   5.179  16.478   7.276  0.0182  0.0320  0.0427
 1304ERGO    C117197   5.113  16.480   7.652 -0.2573  0.2835 -0.0026
 1304ERGO    C217198   5.139  16.346   7.991 -0.2736  0.2664 -0.1921
 1305W        W17199  13.672   3.177  16.016 -0.0359  0.1760 -0.2469
 1306W        W17200   1.936   5.017   4.565  0.0542  0.0522  0.0892
 1307W        W17201  11.581  10.161   0.928 -0.2587 -0.0311 -0.1226
 1308W        W17202   2.910  12.822  14.333  0.1383 -0.1090  0.2205
 1309W        W17203   2.143  15.551  16.097  0.0517 -0.2533  0.0781
 1310W        W17204   0.300  17.405   2.848 -0.0588 -0.0757  0.2301
 1311W        W17205   6.291   0.953   5.033 -0.5018  0.1821 -0.1488
 1312W        W17206  16.539   9.449  13.945  0.1417 -0.0271  0.3383
 1313W        W17207  17.233   6.156   2.410  0.1550 -0.0679  0.2539
 1314W        W17208  15.472   4.624  16.394 -0.0050 -0.1808 -0.0142
 1315W        W17209   1.879  17.709   3.862  0.1034 -0.3269  0.1294
 1316W        W17210   2.442   7.325   4.986 -0.0208  0.3669  0.2585
 1317W        W17211  12.541  13.772  11.032 -0.0694 -0.0836 -0.2109
 1318W        W17212   6.132   6.544  12.750  0.0157 -0.0870  0.1895
 1319W        W17213   8.254   3.860   2.857 -0.0812  0.0081 -0.0649
 1320W        W17214  15.554   8.314   3.243  0.1826 -0.0405  0.4266
 1321W        W17215  16.839  14.679  16.683 -0.1321  0.2956  0.0972
 1322W        W17216  11.158  12.148   4.535  0.1336 -0.2179 -0.0063
 1323W        W17217   2.676   9.512   4.959  0.0124  0.2744  0.1220
 1324W        W17218   3.993   6.203  13.585  0.2367 -0.4300 -0.0405
 1325W        W17219   4.001  13.706  15.638 -0.0568  0.0129 -0.1160
 1326W        W17220   5.411  17.452  13.223 -0.0641  0.0979 -0.1532
 1327W        W17221   6.392  16.232   3.867  0.0244 -0.2180 -0.0390
 1328W        W17222  17.005   6.438   3.328  0.0436 -0.2000 -0.1372
 1329W        W17223  16.237   2.292  16.247 -0.2081  0.0724  0.3511
 1330W        W17224   4.828  10.163  12.505 -0.0415  0.0380 -0.1804
 1331W        W17225   9.185  14.534  14.231 -0.0898 -0.2108  0.0177
 1332W        W17226   0.084   5.030   5.072 -0.0692  0.1972  0.3592
 1333W        W17227  16.669  16.023  14.376 -0.2084  0.0033 -0.2696
 1334W        W17228  14.163  11.478  12.861 -0.0205  0.2072  0.2076
 1335W        W17229   9.083   9.363  11.078 -0.2814  0.0025  0.2025
 1336W        W17230   2.531   6.773   1.067 -0.0053 -0.0182 -0.0725
 1337W        W17231   7.938  14.280   1.748 -0.0017  0.0218  0.0293
 1338W        W17232   6.094   9.118  15.081 -0.0573  0.0775  0.1790
 1339W        W17233   7.864  14.244   4.951 -0.0299  0.2780 -0.0333
 1340W        W17234   9.960   2.929  16.097 -0.0565  0.1578 -0.0537
 1341W        W17235  16.172   0.862   1.286 -0.1947 -0.0852  0.3918
 1342W        W17236  10.429   4.113   4.057  0.2463  0.0890 -0.1203
 1343W        W17237  10.447  15.202  14.382 -0.1753  0.0769  0.0256
 1344W        W17238   3.498   0.303   2.588  0.0425  0.0628 -0.2451
 1345W        W17239   9.594  12.869  16.460  0.1800  0.1672  0.0114
 1346W        W17240   8.737  17.289   4.704 -0.2511  0.2004 -0.1606
 1347W        W17241  17.057   5.643  12.863 -0.0012  0.0472  0.3942
 1348W        W17242   3.598  10.242  13.519 -0.1804 -0.0201  0.3148
 1349W        W17243  17.023   4.108  15.519 -0.0728  0.0206 -0.1580
 1350W        W17244  14.665   3.724  14.079 -0.0502  0.0535 -0.2664
 1351W        W17245   0.581   7.606   0.650  0.2835  0.1434  0.0990
 1352W        W17246   1.179   1.716  13.562  0.0049  0.0050 -0.3839
 1353W        W17247   2.056   4.033  12.466  0.0028 -0.3639 -0.2103
 1354W        W17248   9.679   7.006  14.356 -0.3922  0.1549 -0.0938
 1355W        W17249   0.560   6.845   0.183  0.0994  0.0466 -0.0156
 1356W        W17250   4.780   7.233  14.859 -0.2374 -0.0451 -0.2000
 1357W        W17251  16.059   2.266  12.608  0.3733 -0.2560  0.3494
 1358W        W17252   6.782  16.666   2.217  0.1297  0.1407  0.1665
 1359W        W17253   6.859   7.934  12.493 -0.0041 -0.0060 -0.0559
 1360W        W17254   8.089  15.446   5.815  0.0379  0.0124  0.2357
 1361W        W17255  17.014   0.074   1.563  0.1070  0.0172 -0.0326
 1362W        W17256  16.385  12.280  12.652  0.0063  0.0057  0.0919
 1363W        W17257  12.996   4.067   1.029  0.3227  0.0474  0.0846
 1364W        W17258   7.372  13.164  13.167 -0.1706  0.3731  0.2020
 1365W        W17259  13.139  15.325   3.930 -0.4774 -0.1295  0.0393
 1366W        W17260  12.327   2.210  11.986  0.0023 -0.0926  0.2440
 1367W        W17261   3.776  17.470   1.651 -0.2743  0.0671  0.1583
 1368W        W17262  14.710  16.860  16.638 -0.0932  0.0034  0.0780
 1369W        W17263   3.741   8.377  12.115 -0.1033  0.0403 -0.1208
 1370W        W17264   1.021  10.701  15.209  0.1921 -0.2467 -0.0130
 1371W        W17265   9.062   1.784   5.463 -0.1633  0.0609 -0.0447
 1372W        W17266   3.167  15.882   4.466 -0.4081  0.0689 -0.0693
 1373W        W17267  12.074   2.800   1.108 -0.1871 -0.0281 -0.1950
 1374W        W17268  11.925   0.106   5.415  0.0518  0.1515 -0.0888
 1375W        W17269  10.687  16.386   1.353 -0.2508  0.2823 -0.0060
 1376W        W17270   6.069   4.626   5.779  0.2657  0.1353  0.1441
 1377W        W17271  17.525   7.601  11.328  0.0580  0.0687  0.0155
 1378W        W17272  12.996  17.712  13.243  0.2166 -0.1308  0.1757
 1379W        W17273  16.676   0.928   1.403 -0.2577  0.0549 -0.0497
 1380W        W17274   0.130  11.594  15.645 -0.0916 -0.2917  0.3660
 1381W        W17275  11.930   7.408   3.690  0.0686  0.2180 -0.1821
 1382W        W17276  14.526  11.572   0.538 -0.0813  0.0602 -0.2266
 1383W        W17277  12.503   7.636   2.448  0.0464 -0.0942  0.2021
 1384W        W17278   6.418   0.987  10.771 -0.1505  0.2157 -0.1044
 1385W        W17279  14.284  17.283  15.491  0.3388  0.1015  0.0969
 1386W        W17280   7.388  16.297  16.540  0.0902 -0.0996 -0.1644
 1387W        W17281   2.169  16.812  16.320 -0.3078  0.0912  0.2118
 1388W        W17282   1.334   5.725  13.237  0.3138  0.0191 -0.2007
 1389W        W17283  17.775   5.174   3.697 -0.3200 -0.1383 -0.0017
 1390W        W17284   1.568   9.949  12.313 -0.0632  0.0139  0.2143
 1391W        W17285   4.992   4.070  11.054 -0.3936  0.0139  0.0606
 1392W        W17286  15.469   4.990   4.724  0.1251  0.1326 -0.0678
 1393W        W17287  16.207   7.418   6.241 -0.2725 -0.1390 -0.0456
 1394W        W17288  11.582   8.960   5.936 -0.1895  0.1535  0.0459
 1395W        W17289   4.320  16.994   5.334 -0.1432  0.0112  0.1294
 1396W        W17290   6.207  14.634   2.588  0.0056  0.1824 -0.2907
 1397W        W17291   6.397  14.579  15.279 -0.1955 -0.1953  0.0045
 1398W        W17292  10.533   0.532  14.272  0.0894 -0.1556 -0.0958
 1399W        W17293  17.282   5.720   1.646  0.1631  0.1296 -0.2140
 1400W        W17294  14.612  14.175  12.304 -0.1113 -0.0552  0.0926
 1401W        W17295  16.592  14.568  15.641  0.3743  0.3589  0.0682
 1402W        W17296   0.602   2.038  11.633  0.1251  0.1460  0.2773
 1403W        W17297  16.983   4.952   5.295  0.1011  0.0502  0.1123
 1404W        W17298   7.377  17.790  16.238 -0.1892  0.1667 -0.0030
 1405W        W17299  15.374   8.045   2.833  0.1513  0.2428  0.1743
 1406W        W17300   4.374  14.504  12.715 -0.2468  0.1209 -0.1061
 1407W        W17301  13.759   0.978   5.176 -0.3841  0.0748 -0.0496
 1408W        W17302   7.729   8.668  13.611  0.0952  0.0509 -0.1335
 1409W        W17303  15.011  14.797  15.370  0.1174  0.2273 -0.3516
 1410W        W17304   8.822  15.573  12.497  0.2668 -0.3413  0.1095
 1411W        W17305   3.832  14.889   0.496 -0.1845 -0.1633 -0.2478
 1412W        W17306   3.375  13.861   0.281  0.1813  0.0958 -0.2871
 1413W        W17307   7.350  12.220   2.125 -0.1241  0.1152  0.1556
 1414W        W17308   4.796  12.347   6.563  0.0239 -0.0062 -0.0743
 1415W        W17309  12.547  10.323   2.107  0.1345  0.0106  0.0230
 1416W        W17310   5.544   0.524  15.257  0.1363 -0.2194  0.1772
 1417W        W17311   0.233  12.560  14.762  0.2193 -0.1588 -0.0908
 1418W        W17312   3.539   4.039   4.818 -0.0909 -0.0428 -0.1945
 1419W        W17313  12.225  14.995   5.060 -0.0959 -0.1570  0.0118
 1420W        W17314  10.518  13.838   3.693 -0.2249  0.0762  0.3002
 1421W        W17315  15.119   4.914  15.796 -0.0883  0.0206 -0.0573
 1422W        W17316   2.928  14.920   2.917 -0.1384  0.3445  0.0821
 1423W        W17317   8.017   7.638  14.826  0.3973 -0.1848  0.0400
 1424W        W17318   3.880   2.158  11.744 -0.0622 -0.1349  0.1455
 1425W        W17319   0.472  13.091  13.963  0.0262  0.1420 -0.1254
 1426W        W17320   7.910   8.217   0.239  0.2223 -0.2161  0.1124
 1427W        W17321   0.742   0.045   6.189  0.0964 -0.1860  0.0755
 1428W        W17322  13.006   7.123   1.882 -0.1525  0.0812  0.1252
 1429W        W17323   5.907  14.265  11.891  0.0123 -0.2384 -0.1046
 1430W        W17324  15.835  16.284  12.527  0.0554 -0.4484  0.0471
 1431W        W17325   2.252   3.762   3.048  0.0979 -0.0482 -0.0875
 1432W        W17326   8.904   7.042   3.386 -0.2681  0.0281 -0.1210
 1433W        W17327  14.968  11.153   1.673  0.1626  0.2695  0.1169
 1434W        W17328   6.162   8.226  13.579 -0.0298  0.1049 -0.0977
 1435W        W17329   4.181  12.860   2.106  0.1672  0.0477 -0.1505
 1436W        W17330  11.393  11.501  12.884 -0.2136  0.0508 -0.0787
 1437W        W17331  16.362  14.062   3.676  0.1218 -0.0744  0.1446
 1438W        W17332   5.246  12.777   5.588  0.4481 -0.0737  0.2116
 1439W        W17333   4.583  17.382   5.155  0.5316  0.0509 -0.1066
 1440W        W17334  15.943   2.368  15.845 -0.1175 -0.0262 -0.1608
 1441W        W17335   1.334   9.628  16.850 -0.1331  0.0176  0.0701
 1442W        W17336  16.768   9.233  13.081 -0.5652 -0.0996 -0.2934
 1443W        W17337   0.337  17.790   3.697  0.1877  0.2113 -0.0951
 1444W        W17338  11.854   5.948  15.627  0.0458 -0.5254 -0.0810
 1445W        W17339  17.412   5.604  15.298 -0.2520  0.2879  0.0660
 1446W        W17340  15.647   5.008   0.279 -0.1596 -0.1514  0.0471
 1447W        W17341  15.832  11.210   4.683 -0.0853  0.3629  0.0544
 1448W        W17342   2.443  12.684  14.314 -0.3202 -0.0221  0.0197
 1449W        W17343  14.463  17.784   0.473 -0.0706  0.1980  0.1326
 1450W        W17344  17.779   2.503   6.223  0.1514 -0.0868 -0.1614
 1451W        W17345  17.210   4.780  15.614  0.2447  0.0148  0.1792
 1452W        W17346   2.178   9.264  14.378  0.1278 -0.2468 -0.1393
 1453W        W17347  12.556   9.536   0.059 -0.0958  0.4847  0.1660
 1454W        W17348   8.245   0.260  14.898 -0.1572  0.1184 -0.3253
 1455W        W17349  16.125   8.640   3.666  0.0592  0.1298 -0.0470
 1456W        W17350  14.801  11.026  12.041  0.3339 -0.0812 -0.2713
 1457W        W17351   1.004  15.022  15.343  0.0028 -0.0400  0.1111
 1458W        W17352   6.294  17.122  12.303 -0.4268  0.1213  0.1462
 1459W        W17353  11.561  11.490   5.966  0.1342  0.2852  0.1894
 1460W        W17354  13.818   1.927   0.900  0.1185  0.1853 -0.0081
 1461W        W17355   8.460  14.100   1.018 -0.0235  0.0284 -0.0397
 1462W        W17356   4.589   5.092  12.761 -0.3134 -0.1031 -0.0126
 1463W        W17357  12.780   1.950  14.210 -0.4907  0.0037 -0.1748
 1464W        W17358  14.107  16.901   3.527  0.1319  0.0831  0.0157
 1465W        W17359  12.020   5.712  15.117  0.0401 -0.0448  0.0429
 1466W        W17360   2.406   4.133   4.957  0.1036  0.2281  0.1975
 1467W        W17361   9.574  15.737   0.551 -0.4146 -0.4151 -0.0168
 1468W        W17362   7.472   3.256  14.632  0.0781  0.3695  0.0584
 1469W        W17363   5.414   5.514  14.160  0.3683 -0.0078 -0.1312
 1470W        W17364  13.743  14.455   2.275 -0.1343 -0.0409  0.1502
 1471W        W17365   8.007  13.545  16.624  0.2011 -0.1119 -0.1631
 1472W        W17366  14.092   1.092   3.684 -0.1366 -0.1249  0.0713
 1473W        W17367   7.584   9.115  16.689  0.3650  0.3747 -0.3514
 1474W        W17368  14.218   4.290   0.469 -0.1731  0.0412 -0.0609
 1475W        W17369   7.495  12.867   0.647  0.0660  0.0770  0.1555
 1476W        W17370   2.067   2.765   0.535  0.1121 -0.0410  0.4026
 1477W        W17371   3.174   6.449   2.752 -0.0909  0.0726 -0.1315
 1478W        W17372   6.414   1.843   3.882  0.1448 -0.2358  0.3879
 1479W        W17373  12.746   4.855   0.705 -0.0458  0.0395 -0.4399
 1480W        W17374   1.104   2.963  12.212 -0.0996 -0.0490 -0.1916
 1481W        W17375   4.547  17.683  12.154  0.1997  0.3969 -0.2096
 1482W        W17376  13.066   8.330   0.193  0.1652  0.0298  0.1000
 1483W        W17377   6.315  14.933   0.618  0.2457 -0.0649  0.2216
 1484W        W17378  14.478   0.121  14.170 -0.0595  0.0398  0.0143
 1485W        W17379  13.012  15.998   2.781 -0.0324  0.1218  0.1551
 1486W        W17380   3.527   1.937  14.808  0.2566  0.1192  0.0139
 1487W        W17381  10.848  12.184   5.380  0.0769 -0.2035  0.4429
 1488W        W17382   9.738  15.482  12.413 -0.2864 -0.3414 -0.0275
 1489W        W17383   9.174  15.106   0.516  0.3163 -0.0204 -0.1972
 1490W        W17384   7.140   9.297  16.447 -0.0421 -0.4406 -0.3683
 1491W        W17385   6.116  14.348  14.135  0.0187  0.2560 -0.1130
 1492W        W17386   7.705   4.934  13.050  0.1739 -0.1905 -0.3129
 1493W        W17387   6.811  11.498   3.682 -0.0321 -0.1044  0.1226
 1494W        W17388  14.495   4.716   1.764  0.0335 -0.2529  0.0460
 1495W        W17389   2.507   8.991   4.905 -0.1308  0.0478  0.2274
 1496W        W17390   2.236   4.012   5.912 -0.0715 -0.0288  0.0249
 1497W        W17391  17.783  15.298   4.867  0.1348  0.0570  0.2611
 1498W        W17392   1.384  14.146   3.497  0.0949  0.1594 -0.1227
 1499W        W17393   8.265   0.134   1.147  0.0139 -0.2643 -0.0674
 1500W        W17394  16.423   8.977  12.143  0.2123  0.0278 -0.1357
 1501W        W17395  10.215  10.618   0.121  0.1486  0.2115 -0.0569
 1502W        W17396   5.980  13.889  14.690 -0.2027 -0.0085 -0.1386
 1503W        W17397  15.378  13.205   3.724  0.0059  0.3402 -0.1910
 1504W        W17398   0.213   1.660  16.764  0.1864  0.3165  0.3448
 1505W        W17399   4.024  16.167  11.555 -0.1095 -0.1052 -0.1305
 1506W        W17400   9.797   9.613   1.125 -0.0230 -0.0813  0.1337
 1507W        W17401   7.980  17.255   1.796  0.1118  0.1063 -0.0844
 1508W        W17402   3.624   4.242  15.094 -0.0392  0.0014  0.0489
 1509W        W17403   4.088   9.878  12.750  0.0015 -0.1625  0.0648
 1510W        W17404   9.414   1.555  15.988 -0.1741  0.3043 -0.0376
 1511W        W17405  11.422   6.683  11.550 -0.0045  0.2629  0.2491
 1512W        W17406  13.355   8.172   1.121  0.0500 -0.0813 -0.0190
 1513W        W17407   3.511   8.393   3.726 -0.0897 -0.3516 -0.1214
 1514W        W17408  12.493  14.834   5.500 -0.1498  0.0211 -0.1475
 1515W        W17409  11.608  17.545   4.326 -0.0193 -0.0076  0.0522
 1516W        W17410  15.316  11.240  13.020  0.0431 -0.0538  0.1681
 1517W        W17411  14.365   0.515   1.152 -0.0937 -0.3484 -0.0315
 1518W        W17412  17.128   5.267  14.954  0.0382 -0.3309 -0.1741
 1519W        W17413   5.564  13.941  14.985  0.0831  0.0599  0.0642
 1520W        W17414  14.387   7.426  16.608 -0.1028  0.0252 -0.0539
 1521W        W17415   6.317  17.211   2.221  0.1190 -0.3121  0.1043
 1522W        W17416  11.117  12.426  14.859 -0.2256  0.0076 -0.2115
 1523W        W17417  13.043  10.671  13.463 -0.0497 -0.2082 -0.4187
 1524W        W17418  16.530   0.724   2.186 -0.1629  0.0848 -0.3195
 1525W        W17419   8.849  10.055  13.132  0.6278  0.1113  0.2326
 1526W        W17420  11.613  11.390   6.480  0.1311 -0.0017 -0.1956
 1527W        W17421  17.129   5.245  13.813 -0.3675  0.1431 -0.1356
 1528W        W17422  13.168   8.041   1.634 -0.0890 -0.2227 -0.1826
 1529W        W17423   3.242   1.390  15.518  0.0710 -0.2013  0.0507
 1530W        W17424  10.676  16.103  16.134 -0.2001 -0.1119 -0.0430
 1531W        W17425   2.723  10.804   5.438 -0.1657  0.1613  0.0169
 1532W        W17426   3.638   6.086  12.235  0.0739 -0.4235  0.0902
 1533W        W17427  16.109   7.826   5.485 -0.2745  0.1019 -0.1706
 1534W        W17428  10.481   5.976  14.448 -0.1579 -0.1591  0.0034
 1535W        W17429  15.247   9.318   5.135  0.2551 -0.1759 -0.1918
 1536W        W17430   1.699  14.587   1.571  0.1866 -0.0808  0.1334
 1537W        W17431   0.242  16.016  15.370  0.0561 -0.1633 -0.0874
 1538W        W17432   9.302   7.612   2.238 -0.0873 -0.0688  0.3087
 1539W        W17433  12.163   4.158   0.451  0.0295 -0.1393  0.0564
 1540W        W17434  17.262   1.417   5.207  0.1706  0.2254 -0.1946
 1541W        W17435  16.952  16.376  14.627  0.2188 -0.0302 -0.2970
 1542W        W17436  15.203   2.408  15.056 -0.1673  0.0951 -0.2303
 1543W        W17437   8.649   0.499  15.066  0.1667  0.0692  0.1513
 1544W        W17438  17.729  14.002  13.278  0.0157 -0.3362  0.0591
 1545W        W17439  10.231  12.977  11.888  0.3602  0.0662 -0.0047
 1546W        W17440  11.101  17.105   3.063  0.0533 -0.1061  0.1312
 1547W        W17441  10.066   2.388   3.927 -0.0791 -0.3295  0.1933
 1548W        W17442   2.448  16.563  13.594  0.1185 -0.0542 -0.1706
 1549W        W17443   5.515   0.820   2.168  0.0025 -0.0811  0.1668
 1550W        W17444  10.717  15.122  13.647  0.0375 -0.0901 -0.3350
 1551W        W17445   4.560  14.157   4.419  0.0798 -0.0930 -0.3273
 1552W        W17446  15.406   6.875   1.238  0.0848  0.0375 -0.1381
 1553W        W17447  14.762  15.364  13.168  0.2290 -0.3263 -0.0232
 1554W        W17448   1.779   1.498  10.953 -0.0464  0.0250  0.1779
 1555W        W17449   5.739   0.834  15.657  0.0383  0.1850  0.1387
 1556W        W17450  12.084   9.039  15.687 -0.1178 -0.2065  0.2316
 1557W        W17451   1.632   5.260  13.177 -0.0704  0.1565 -0.1063
 1558W        W17452   4.345   8.259  13.060 -0.0467  0.0882 -0.1552
 1559W        W17453   5.977  17.366   4.955  0.6195  0.0769 -0.2936
 1560W        W17454  12.947   5.105   5.547  0.0261 -0.1630 -0.1196
 1561W        W17455   1.059   1.083   3.122  0.0756 -0.1487 -0.2975
 1562W        W17456   4.801  13.422  15.344 -0.1455  0.2671  0.1008
 1563W        W17457  12.464   7.812   5.095 -0.0800 -0.2171  0.1087
 1564W        W17458  15.392  11.513   0.894  0.0048 -0.3365  0.0014
 1565W        W17459   4.499   8.441   2.683 -0.3020 -0.1833  0.2442
 1566W        W17460   8.344   8.293   3.048 -0.0977  0.0196  0.0970
 1567W        W17461   8.029   0.912   5.021  0.2977 -0.0840 -0.1625
 1568W        W17462  12.223  11.339  14.246  0.2102 -0.0086 -0.1030
 1569W        W17463   7.588   4.657  12.312 -0.0852  0.0487 -0.0592
 1570W        W17464   6.338   9.590   3.843 -0.1714 -0.3604  0.2275
 1571W        W17465  17.358  15.802  15.982  0.0240  0.0989  0.0616
 1572W        W17466  13.418   2.879  15.721 -0.2054 -0.0351  0.0823
 1573W        W17467   1.412  11.556   4.356 -0.0356  0.4550  0.0476
 1574W        W17468  10.019  16.279  15.998 -0.1340 -0.0111 -0.2531
 1575W        W17469  14.704  15.786   2.667 -0.3152 -0.1777  0.2891
 1576W        W17470  11.623  12.902  15.914 -0.0072  0.0507  0.1556
 1577W        W17471   3.084   6.213   3.910 -0.1458  0.1277 -0.1016
 1578W        W17472   3.403   8.505   0.095  0.2315 -0.0831  0.0181
 1579W        W17473   3.655   3.542  12.774 -0.1617  0.0722  0.3462
 1580W        W17474   7.987   5.895  14.578  0.1347 -0.2093 -0.1602
 1581W        W17475   4.976   1.576   0.370 -0.0502 -0.0002  0.2778
 1582W        W17476  10.465   2.237  16.591 -0.1462  0.1617  0.1177
 1583W        W17477  15.421   7.122   3.708  0.1046 -0.0495  0.0930
 1584W        W17478   1.359   3.049   1.121 -0.0820 -0.3359  0.0055
 1585W        W17479   8.997  12.169   3.657 -0.1689 -0.1350 -0.2579
 1586W        W17480   5.744  15.050  15.585 -0.4601 -0.1232 -0.0332
 1587W        W17481  14.583  13.306  13.527  0.1645 -0.2586 -0.0970
 1588W        W17482   5.270   7.100  10.745  0.1470  0.3757 -0.2434
 1589W        W17483   1.589  10.407   5.667 -0.0862 -0.0054 -0.0600
 1590W        W17484  17.464  15.614   3.808 -0.1402  0.2186 -0.1440
 1591W        W17485   5.914  15.740   3.272  0.0289  0.1002 -0.2251
 1592W        W17486   8.736   1.382   0.292  0.3395  0.2424 -0.0958
 1593W        W17487   4.166  13.161  14.700 -0.0935  0.0815 -0.1427
 1594W        W17488   4.729   2.289   2.928 -0.0079 -0.1450 -0.1453
 1595W        W17489   3.994   4.117   5.633 -0.1687  0.6693  0.0599
 1596W        W17490   5.326  13.640   3.848  0.0102  0.1729 -0.0123
 1597W        W17491   5.627  12.643  11.820 -0.1784  0.0476 -0.1578
 1598W        W17492   8.758   1.658  15.383 -0.0557 -0.0195  0.3645
 1599W        W17493  17.080  16.510   2.373  0.2781  0.0694 -0.0152
 1600W        W17494  14.582  13.842   3.626 -0.2645  0.1383  0.1925
 1601W        W17495  15.980  12.376  15.157 -0.2344 -0.1486  0.1870
 1602W        W17496  12.207  11.517  13.714  0.0768 -0.0834  0.0331
 1603W        W17497   6.115   4.531   1.706 -0.0835  0.1173 -0.0238
 1604W        W17498   7.264   4.466  16.288 -0.0496 -0.1809 -0.1470
 1605W        W17499  15.646  15.322   5.541 -0.2310  0.1891  0.0252
 1606W        W17500  14.466  15.587   0.404  0.1553  0.2219  0.0023
 1607W        W17501   7.176   4.679   5.570 -0.1456  0.0184  0.0451
 1608W        W17502  14.231  12.083   0.715  0.1719  0.0976 -0.2710
 1609W        W17503   6.462   7.988  11.940  0.1909  0.0035 -0.0708
 1610W        W17504  16.338  16.454  13.343  0.3654  0.1503  0.1652
 1611W        W17505   2.593  12.695  12.738 -0.0104  0.2860  0.0426
 1612W        W17506   1.140  12.628   4.444 -0.1038 -0.0962  0.4177
 1613W        W17507   6.348  13.489  14.722  0.2507 -0.2025  0.0217
 1614W        W17508   6.953  15.815  11.948  0.0025 -0.0914 -0.1628
 1615W        W17509  13.532   5.576   3.100  0.1289 -0.0849  0.4578
 1616W        W17510  12.224  15.948   3.226  0.1612  0.2202 -0.2574
 1617W        W17511   3.383  16.697  15.218  0.1374  0.0061 -0.3154
 1618W        W17512  17.827   1.139  16.162  0.0343  0.2013  0.0253
 1619W        W17513   2.471   6.177   2.206  0.1598 -0.0999 -0.0605
 1620W        W17514  11.597   1.765  13.049  0.0738 -0.1076 -0.0073
 1621W        W17515  15.186   0.892  16.239  0.2370 -0.1944  0.2465
 1622W        W17516   6.946   3.735  16.725 -0.1685  0.0298 -0.0276
 1623W        W17517  10.658  17.791  15.538  0.4695 -0.0440  0.0675
 1624W        W17518   9.305  16.580  16.375  0.0697 -0.2318 -0.0672
 1625W        W17519  10.032   2.408  11.640 -0.1201 -0.0868  0.1454
 1626W        W17520   3.680   1.515   3.819 -0.4515  0.1391 -0.1875
 1627W        W17521  10.214   9.081   4.036  0.3298 -0.0458 -0.2340
 1628W        W17522   0.619   3.458   4.461 -0.0286 -0.0137 -0.0304
 1629W        W17523   8.908   5.471  13.856 -0.2775  0.3489 -0.1240
 1630W        W17524  12.053  12.558  12.354  0.1920  0.1443 -0.5294
 1631W        W17525   5.779  14.824  14.299 -0.2236 -0.0057  0.2408
 1632W        W17526   8.716   2.172   4.770 -0.1682  0.2179 -0.4228
 1633W        W17527  12.631   9.489   5.253 -0.3841 -0.1614  0.4285
 1634W        W17528  10.141   5.489   3.547  0.0588  0.1498 -0.0177
 1635W        W17529  16.648   2.794   4.895  0.0554  0.0040  0.1459
 1636W        W17530   6.494   8.707   2.855  0.2091 -0.0173 -0.1329
 1637W        W17531   3.214   0.042  14.584  0.0812  0.0768 -0.2806
 1638W        W17532  12.517   0.710   1.237  0.0193 -0.1905  0.1876
 1639W        W17533  17.537   8.671   4.848  0.1644  0.1795 -0.0222
 1640W        W17534   8.304  14.645  14.532 -0.1413 -0.0635 -0.0244
 1641W        W17535   8.178   0.556   0.180  0.2562  0.0535  0.2146
 1642W        W17536   6.076  11.843  14.720 -0.0885 -0.1424  0.0299
 1643W        W17537  10.506   1.538  12.472 -0.0413 -0.3915  0.0387
 1644W        W17538  11.677   7.469   4.419 -0.1849 -0.0907 -0.0027
 1645W        W17539  11.906  13.058   0.506 -0.0277 -0.1533 -0.1688
 1646W        W17540  10.786  11.040  13.147 -0.0390 -0.1059 -0.2665
 1647W        W17541  15.680  15.596  13.284 -0.2019  0.2222  0.1128
 1648W        W17542  16.282   7.569  15.948  0.1681  0.0544  0.2621
 1649W        W17543   1.201  12.132  15.486  0.1420 -0.0670  0.0032
 1650W        W17544  12.498   4.316  14.372 -0.1976  0.1864  0.3134
 1651W        W17545  17.798  12.632  16.591 -0.1547 -0.1576 -0.1605
 1652W        W17546  11.741  12.751   2.039 -0.2023 -0.2938 -0.0452
 1653W        W17547   5.939   9.250   0.252 -0.1167 -0.1228  0.3393
 1654W        W17548   6.131   3.483  14.454  0.1911 -0.1425 -0.1362
 1655W        W17549   0.242  16.707   2.269 -0.1364  0.0978 -0.0009
 1656W        W17550   1.640   6.824   4.428 -0.4272  0.1092 -0.1014
 1657W        W17551   6.876   5.232   3.019  0.3295  0.1140 -0.0663
 1658W        W17552   8.053   1.528  16.591  0.1980  0.0162 -0.3645
 1659W        W17553   4.109   3.939  14.196  0.2517  0.2369 -0.0937
 1660W        W17554  16.300   7.878   0.741  0.1814  0.2360 -0.1158
 1661W        W17555   4.674  15.980  15.917 -0.2262 -0.0133 -0.2097
 1662W        W17556  13.330  11.878   2.987 -0.1893  0.0148  0.0488
 1663W        W17557   8.389  12.508  16.506 -0.0984  0.0426 -0.2932
 1664W        W17558   7.076   7.000   0.231 -0.0761 -0.4458 -0.0893
 1665W        W17559   9.912   7.720  15.132  0.0265  0.1788  0.1440
 1666W        W17560   8.951  13.831   2.278  0.3998 -0.2284 -0.0192
 1667W        W17561  12.512   5.203  14.793 -0.1305  0.1016  0.5021
 1668W        W17562  11.268  11.004  12.926 -0.3088 -0.0772  0.3913
 1669W        W17563  11.406   7.462   3.616  0.0445  0.0563 -0.2602
 1670W        W17564  16.533  14.271   6.552  0.3743  0.2272  0.1369
 1671W        W17565  11.143  10.962  14.667  0.1573 -0.1129 -0.0404
 1672W        W17566   9.238   3.759   5.445  0.0249 -0.0732 -0.0199
 1673W        W17567   6.047  11.442  14.379  0.0151 -0.0350 -0.0521
 1674W        W17568   1.366   1.310  16.424  0.0059 -0.0874  0.2002
 1675W        W17569  16.305  13.232  14.250 -0.1233  0.1492  0.1618
 1676W        W17570   7.918   1.160   1.719 -0.1145  0.1527 -0.2427
 1677W        W17571   2.033   0.111   0.142  0.2082  0.0996  0.0857
 1678W        W17572  16.315  10.071  16.225 -0.4102  0.0640 -0.2523
 1679W        W17573  17.046   5.447   5.202 -0.0235  0.1150  0.1863
 1680W        W17574  14.982  12.618  14.244 -0.1196 -0.0334  0.1758
 1681W        W17575  11.362  16.574   4.843  0.0251  0.2034 -0.4375
 1682W        W17576   8.751   7.291   2.113  0.0683 -0.2053  0.0527
 1683W        W17577  13.287   3.690  14.331  0.0077 -0.0586 -0.1370
 1684W        W17578  12.556   9.868  12.153 -0.3733  0.0611  0.1456
 1685W        W17579   4.676   4.528   1.609 -0.3264 -0.1887  0.0181
 1686W        W17580   7.821  17.092   0.039 -0.1576 -0.0212 -0.1927
 1687W        W17581   0.950   3.959  16.888  0.1184  0.1053 -0.0771
 1688W        W17582   7.767   4.731   0.621  0.2293 -0.2163  0.0972
 1689W        W17583  14.965   7.255  12.473  0.0312 -0.1206 -0.1081
 1690W        W17584  15.935  15.961   0.287 -0.2405  0.2438  0.0527
 1691W        W17585   7.213  12.012   3.895 -0.1782 -0.1238 -0.0415
 1692W        W17586   4.611  12.923  14.540 -0.0031  0.0710  0.1329
 1693W        W17587  13.021   7.415  11.945 -0.0354 -0.0429  0.2408
 1694W        W17588   8.282   0.912  10.659  0.1387 -0.0507  0.2198
 1695W        W17589   5.589   9.122   0.647 -0.2337  0.0654 -0.0090
 1696W        W17590   1.704  14.016  15.338 -0.3164  0.0889  0.1367
 1697W        W17591  16.879  16.988  11.261 -0.3908  0.1433  0.2984
 1698W        W17592   9.772  16.451   1.444  0.1012  0.1213 -0.0242
 1699W        W17593   4.926  15.127  16.786  0.4235  0.1178 -0.1970
 1700W        W17594  17.720  14.473  12.008 -0.0139  0.0705  0.2848
 1701W        W17595  10.179  17.081  16.551  0.0160  0.0848  0.1398
 1702W        W17596   3.650  10.151   0.030 -0.1185 -0.0747  0.0339
 1703W        W17597   1.849   6.155   4.795 -0.0225  0.1600  0.0321
 1704W        W17598   3.258   4.088  16.506  0.1264 -0.1090 -0.1290
 1705W        W17599  15.406   3.487   3.990 -0.2837 -0.1525  0.0698
 1706W        W17600  13.482   8.249  11.990 -0.4865 -0.2845 -0.1989
 1707W        W17601  10.600   1.791  15.159 -0.0203  0.2688  0.1605
 1708W        W17602   4.818   0.709  11.838  0.2313  0.0628 -0.0081
 1709W        W17603  16.792  17.707   0.581 -0.0035 -0.2327 -0.2302
 1710W        W17604  13.566   2.344  15.949 -0.1480 -0.1180 -0.0650
 1711W        W17605  17.789   3.578  13.962 -0.0171 -0.0706  0.2252
 1712W        W17606  12.837   9.379   1.791  0.1690 -0.1450  0.0094
 1713W        W17607   2.582   7.676   2.984 -0.2294 -0.0633 -0.0154
 1714W        W17608   2.278   6.678   2.047 -0.3844 -0.2437  0.2159
 1715W        W17609  17.499  13.444   1.288 -0.0442 -0.1972  0.0232
 1716W        W17610  10.857   8.490  13.642  0.0182 -0.1511 -0.2044
 1717W        W17611   0.454  15.089  16.423  0.1359  0.2215  0.2695
 1718W        W17612   5.816   2.958  12.126 -0.0335 -0.4471  0.1936
 1719W        W17613   0.117  13.774   5.647 -0.1984  0.0356  0.0457
 1720W        W17614   1.142  12.314  16.660  0.0991 -0.0802 -0.0991
 1721W        W17615   2.469   2.066   6.016 -0.1975 -0.0582 -0.1204
 1722W        W17616  11.659   0.574  12.179  0.4050  0.3148 -0.2032
 1723W        W17617  15.863  17.624   2.554 -0.3970  0.1968  0.2269
 1724W        W17618  16.765   2.005   0.467 -0.0695 -0.0965  0.1339
 1725W        W17619  17.225  10.444   0.181 -0.0079 -0.2924  0.0669
 1726W        W17620  10.984  15.538  15.075 -0.1935  0.0032  0.2215
 1727W        W17621  10.226   1.963  12.319 -0.1645 -0.3395 -0.1150
 1728W        W17622   1.698   6.456   1.003 -0.0930 -0.1311  0.3441
 1729W        W17623   0.369   1.200   5.640  0.1086  0.2817 -0.1513
 1730W        W17624   4.667   7.321  15.494  0.3932 -0.1518  0.0560
 1731W        W17625   4.451   7.658   3.160  0.3616  0.1823 -0.1444
 1732W        W17626   0.582  16.818  12.236  0.3280 -0.0702 -0.1250
 1733W        W17627   8.193  10.765  15.520 -0.0086 -0.0698  0.2853
 1734W        W17628   6.843  10.880   5.745 -0.1567  0.0296  0.5005
 1735W        W17629   7.917  13.736  15.499  0.0010  0.1864 -0.1803
 1736W        W17630  10.519   9.549  15.534  0.1150 -0.1702 -0.1263
 1737W        W17631   3.882   8.141  15.152 -0.2183  0.0637  0.1502
 1738W        W17632  12.370  11.507  12.951  0.1189 -0.1116 -0.0273
 1739W        W17633  15.698  11.469   1.304 -0.0937 -0.1954  0.1717
 1740W        W17634   1.805  15.469  11.140  0.0223 -0.1791 -0.4843
 1741W        W17635  10.007  15.839   3.862 -0.2126 -0.1183 -0.1024
 1742W        W17636   8.175   3.810  15.575 -0.0418 -0.0464  0.1412
 1743W        W17637   6.009  16.700  15.053  0.1644  0.0919  0.0177
 1744W        W17638   4.313  10.136  13.225  0.0537 -0.1390 -0.0769
 1745W        W17639  11.830  14.654  12.832 -0.0480 -0.1768 -0.2204
 1746W        W17640   5.931   7.403   4.497  0.2421 -0.0986 -0.2005
 1747W        W17641   0.404   9.092  12.419 -0.0844  0.0131  0.0883
 1748W        W17642  13.250  11.821   5.259 -0.0188 -0.1261 -0.0466
 1749W        W17643   3.119  10.082  12.044 -0.1251  0.2667  0.3698
 1750W        W17644   4.877  15.708  13.746 -0.0097 -0.1586 -0.0481
 1751W        W17645  11.097  17.224  16.749  0.0071  0.2224  0.0989
 1752W        W17646   0.143   7.329  13.131 -0.0790  0.1064  0.3781
 1753W        W17647  16.307   7.893  15.471 -0.1582  0.1068 -0.1355
 1754W        W17648  14.377   8.221   3.881 -0.3598 -0.1082  0.0696
 1755W        W17649   5.548  11.579  13.812 -0.0019  0.1384 -0.3219
 1756W        W17650  11.067   4.008   3.527 -0.1013  0.3889 -0.1497
 1757W        W17651  12.521   9.893   5.746  0.0346  0.0749  0.1740
 1758W        W17652  12.222   5.771  13.079 -0.0602 -0.1993  0.1208
 1759W        W17653   8.601  16.405   0.039  0.1670 -0.0686 -0.1352
 1760W        W17654   4.093   9.549  15.228  0.0840  0.4806  0.3324
 1761W        W17655   4.968  10.257   2.983 -0.0697  0.0485  0.0934
 1762W        W17656  16.495   8.444   3.892 -0.1506 -0.0653  0.2923
 1763W        W17657   3.160  12.159  12.302 -0.1651 -0.1358 -0.1597
 1764W        W17658  10.620  10.058   4.979 -0.3202  0.1237 -0.1769
 1765W        W17659   8.804  10.986   3.133 -0.2531  0.1843  0.0722
 1766W        W17660  13.779  10.556   1.124  0.0513  0.0210 -0.1332
 1767W        W17661  11.502  17.651   1.051 -0.1332 -0.1216 -0.1031
 1768W        W17662   7.826   4.090  14.073  0.0655  0.0790 -0.0678
 1769W        W17663   3.661  11.943  15.681  0.1287  0.0646 -0.2144
 1770W        W17664   9.234   0.044  16.099 -0.2301  0.3084 -0.1518
 1771W        W17665   9.687  12.872   4.093  0.1433 -0.3163  0.1578
 1772W        W17666  10.904   9.559   5.940  0.1898 -0.0440 -0.0083
 1773W        W17667  10.760  10.097  12.516 -0.1678  0.0525 -0.0893
 1774W        W17668   0.870  11.157   3.588  0.1844 -0.1008 -0.0064
 1775W        W17669  11.331   0.929   3.074  0.1185 -0.1160 -0.1600
 1776W        W17670  13.843   6.356  11.502 -0.2372 -0.1283  0.2346
 1777W        W17671  15.462   0.450   2.660  0.0969 -0.1724 -0.1723
 1778W        W17672   4.821  14.642  12.122 -0.0783 -0.1498  0.2812
 1779W        W17673   7.885   5.770   5.184 -0.0911 -0.0041 -0.0258
 1780W        W17674   6.221   6.499  15.783  0.5917 -0.1436  0.0890
 1781W        W17675   7.628   6.807  14.340 -0.0461 -0.2031 -0.2702
 1782W        W17676   1.815   0.451  15.326  0.3142  0.2010 -0.1434
 1783W        W17677   8.223  15.797   4.354  0.0743 -0.1635  0.2077
 1784W        W17678  12.880  17.710   0.587 -0.0876  0.0313  0.1281
 1785W        W17679   4.248   0.340  11.920 -0.0973 -0.0063 -0.0692
 1786W        W17680  14.947   6.051   0.506 -0.2562  0.2179 -0.0862
 1787W        W17681  12.237  13.023  12.051 -0.0436 -0.4867  0.0709
 1788W        W17682   8.980   9.564  16.670  0.1453  0.1742 -0.1778
 1789W        W17683  14.830  10.560   3.216  0.0803 -0.1472 -0.4642
 1790W        W17684  12.423  16.729  14.197 -0.0425 -0.2628 -0.0154
 1791W        W17685   2.790  13.270  14.008  0.1650  0.1414  0.2923
 1792W        W17686   4.607   4.378  12.203  0.1325 -0.1681  0.2235
 1793W        W17687   6.662  10.128  16.143  0.1189 -0.2373 -0.1621
 1794W        W17688   9.369   2.861   2.357  0.4103  0.1473  0.2017
 1795W        W17689   0.833   5.163  12.427 -0.4054  0.1250 -0.3110
 1796W        W17690   4.493   2.650  15.314  0.2555 -0.2252 -0.1887
 1797W        W17691  14.320   0.429  13.412 -0.0835  0.1647  0.1998
 1798W        W17692   3.454  13.547   1.167 -0.2300  0.0603 -0.1228
 1799W        W17693  16.583  13.877  10.919 -0.0005 -0.0723 -0.2546
 1800W        W17694  10.022   1.851   3.995  0.0662  0.0110 -0.4154
 1801W        W17695   9.612   2.995   3.944  0.0526  0.2527  0.1498
 1802W        W17696  14.204   6.040  16.853 -0.1263  0.1450 -0.1046
 1803W        W17697  10.429  13.551   6.482  0.0073  0.0583  0.0627
 1804W        W17698  13.419   4.107  13.987 -0.1623 -0.0273 -0.0587
 1805W        W17699  17.088  12.958   3.474 -0.0970  0.2183 -0.1731
 1806W        W17700  12.442   1.882  13.766  0.1337  0.0765 -0.1328
 1807W        W17701   8.893   6.933  16.655  0.0397 -0.0198  0.1049
 1808W        W17702  10.110   0.600   4.570  0.0576  0.0040  0.2023
 1809W        W17703  11.129  13.563  13.856  0.1012  0.0199 -0.0920
 1810W        W17704   2.414  16.777   0.247 -0.0796 -0.0302 -0.2752
 1811W        W17705   2.924   5.367   2.694 -0.0802 -0.3903  0.1035
 1812W        W17706  13.888  14.763   0.278  0.4580 -0.0380 -0.2590
 1813W        W17707   1.596  17.284  12.142 -0.0934  0.0450  0.2103
 1814W        W17708   4.797  11.484  13.972 -0.1522 -0.1434  0.0798
 1815W        W17709   1.509  10.293   2.255 -0.2388 -0.2097 -0.0727
 1816W        W17710  16.364  13.969   2.739 -0.3064 -0.1117  0.0785
 1817W        W17711  15.755   7.331   3.274  0.0609  0.1341  0.2255
 1818W        W17712   6.807   1.326  14.190 -0.1450 -0.0228 -0.1990
 1819W        W17713  16.338  17.258   2.602  0.1012 -0.3227  0.2054
 1820W        W17714  16.133   6.765  15.915 -0.1353  0.0446  0.0453
 1821W        W17715   5.434  15.654   2.769 -0.0169  0.1906  0.0148
 1822W        W17716   1.106  14.109   2.613  0.3394  0.2283  0.2263
 1823W        W17717  11.753  10.806   3.621  0.1835  0.1724 -0.1719
 1824W        W17718  17.501   0.659  16.407  0.1308  0.0580  0.1510
 1825W        W17719   0.294   1.978  15.885  0.2280 -0.1645  0.1046
 1826W        W17720  17.386   3.436  14.686  0.2464 -0.4905 -0.1879
 1827W        W17721   0.285  17.033  13.795  0.0265  0.4096 -0.0052
 1828W        W17722   9.939   7.266  16.673 -0.4068 -0.0782  0.2904
 1829W        W17723   7.777   0.570  14.034 -0.0728 -0.0719 -0.0426
 1830W        W17724  11.617   8.190  12.029  0.2334  0.0704  0.0247
 1831W        W17725   4.860   6.673   1.686 -0.1828 -0.1115 -0.2351
 1832W        W17726  15.214   3.070   0.363  0.1644 -0.1375  0.0656
 1833W        W17727  13.010  10.932   4.215 -0.2472 -0.2308  0.1902
 1834W        W17728  11.795   8.891   3.986 -0.0407 -0.4991 -0.2002
 1835W        W17729   9.670   4.592  14.916 -0.1289 -0.1181 -0.2672
 1836W        W17730   7.698   6.781  14.806 -0.0695 -0.0681 -0.1285
 1837W        W17731  16.875  12.393   5.403  0.1819  0.0006  0.2090
 1838W        W17732  14.796  15.917   0.218 -0.1018  0.1536 -0.3182
 1839W        W17733  11.753  10.400  16.422 -0.1711 -0.0979 -0.0318
 1840W        W17734   8.231  16.426  16.612 -0.0156  0.2152  0.2245
 1841W        W17735   9.089   3.740  13.288  0.3617  0.1943 -0.1560
 1842W        W17736   8.973  12.110   5.353  0.0413  0.1139  0.0125
 1843W        W17737  11.898  10.548   2.654  0.2204  0.0973  0.4267
 1844W        W17738  11.080   4.907   0.062  0.0322  0.1669 -0.0607
 1845W        W17739   3.925   6.253   3.308  0.0695 -0.1165  0.0094
 1846W        W17740  15.428  12.236   4.507 -0.2325  0.5086  0.0335
 1847W        W17741   9.319   3.285   4.270 -0.0635  0.3134  0.0213
 1848W        W17742  14.326   2.828  11.478  0.0040 -0.1025  0.2340
 1849W        W17743  10.399  12.159   0.837  0.0306 -0.1074  0.1721
 1850W        W17744  10.319   5.955   2.892  0.0003 -0.1583 -0.0155
 1851W        W17745  16.589  14.289   1.410 -0.1127 -0.2135 -0.3801
 1852W        W17746  14.833  11.012  14.293  0.0607  0.3806  0.0690
 1853W        W17747   4.759  10.472  11.954  0.0847  0.0893 -0.0240
 1854W        W17748  11.277  10.614  15.581  0.0966  0.0030 -0.0900
 1855W        W17749  11.038  12.875   1.377 -0.0527 -0.0323  0.0916
 1856W        W17750   8.721   2.701   2.831 -0.2507 -0.0973 -0.3780
 1857W        W17751  10.078   9.229  15.539  0.0337 -0.1478 -0.1128
 1858W        W17752   2.837  10.048  15.562 -0.4147 -0.0679 -0.0216
 1859W        W17753   5.643  12.154  11.998 -0.1475  0.0703 -0.0841
 1860W        W17754   4.172  12.464   4.036  0.2516 -0.2248  0.0411
 1861W        W17755   3.864   9.377  16.411 -0.1170  0.0587 -0.0787
 1862W        W17756   2.345   1.977  15.626  0.0028  0.2265 -0.2084
 1863W        W17757  15.006  16.164   2.530 -0.3661 -0.1894 -0.1423
 1864W        W17758   7.727  11.182   0.956  0.0729 -0.2430  0.0107
 1865W        W17759  13.919  16.191  14.958 -0.0492 -0.0674 -0.0050
 1866W        W17760  10.521  11.553  15.116  0.1158 -0.1437  0.2269
 1867W        W17761   9.607   4.248  13.277  0.2582  0.3497 -0.0134
 1868W        W17762   4.415   1.000  11.566 -0.0106  0.3452  0.0078
 1869W        W17763   5.468   9.868  16.118 -0.0103 -0.1156 -0.1415
 1870W        W17764  16.112   6.359   3.053 -0.2225 -0.2793  0.4139
 1871W        W17765   7.906  14.564   0.130 -0.0171  0.0212 -0.1826
 1872W        W17766  17.747  12.885  12.390  0.0837  0.0181 -0.0649
 1873W        W17767   9.922  12.439   2.643 -0.1369  0.0480  0.3129
 1874W        W17768  12.114   2.420   1.433 -0.0650  0.0644 -0.1419
 1875W        W17769   8.225  16.904  14.389 -0.0560 -0.0192 -0.4798
 1876W        W17770  11.470   3.712  11.983  0.1814  0.2430 -0.0253
 1877W        W17771   8.174   1.685   4.552 -0.0657 -0.0649 -0.0606
 1878W        W17772  15.536  17.170   0.620  0.4244  0.4308  0.0847
 1879W        W17773  10.286  16.130  13.543 -0.0978 -0.2149 -0.2213
 1880W        W17774  16.300  10.295  14.201  0.2405  0.0538 -0.2267
 1881W        W17775  10.152   1.192  13.724  0.0808  0.0548 -0.0151
 1882W        W17776  12.491  14.557   1.451  0.0053 -0.2673 -0.1335
 1883W        W17777   6.560  11.737  13.029 -0.1886 -0.1390  0.0042
 1884W        W17778   7.356  12.005  12.837 -0.0532 -0.0964  0.0637
 1885W        W17779  11.539   8.513  16.803  0.1607 -0.2379  0.1374
 1886W        W17780   2.171  15.836   1.025 -0.3661  0.1031 -0.0908
 1887W        W17781   9.206   7.449   3.432  0.0428 -0.0136  0.2194
 1888W        W17782   4.942   9.049   4.848 -0.1034  0.0413 -0.2399
 1889W        W17783   5.785   0.697   4.396  0.0824 -0.0849 -0.2248
 1890W        W17784  12.381   3.427   3.079 -0.2075  0.0151  0.0071
 1891W        W17785  14.548  17.286  12.027 -0.1725 -0.2261 -0.1333
 1892W        W17786   9.694   9.190  15.015 -0.1042 -0.2761  0.0096
 1893W        W17787  12.065  11.806  14.092  0.1004 -0.0849 -0.2469
 1894W        W17788  11.968  12.620  13.276 -0.0811 -0.4353 -0.2164
 1895W        W17789   0.764  12.850   5.941  0.2514  0.0409 -0.3198
 1896W        W17790  16.101   9.023   5.609  0.0674  0.0141  0.0456
 1897W        W17791   9.104   0.747  15.248  0.1466  0.0843 -0.3711
 1898W        W17792  15.110   2.551  14.438 -0.1007  0.0494 -0.2097
 1899W        W17793  13.250   9.378  16.583 -0.1336  0.3557 -0.0943
 1900W        W17794  11.697   5.356   5.673  0.1198 -0.0066 -0.1960
 1901W        W17795   5.112   3.339  16.912  0.0471 -0.0790  0.0135
 1902W        W17796   3.319   0.114   3.602  0.1046 -0.5833  0.0403
 1903W        W17797   0.487  10.497   2.431 -0.0700  0.3567  0.2239
 1904W        W17798   3.989   9.127   1.270  0.0165  0.0990 -0.0532
 1905W        W17799   9.593   9.229  13.252 -0.1715  0.0954 -0.0077
 1906W        W17800  15.754   2.137  13.971  0.0449 -0.2061  0.1008
 1907W        W17801   5.796   8.224  12.105 -0.1284  0.1545  0.0611
 1908W        W17802  12.705   4.077   0.263  0.1081 -0.1055 -0.2010
 1909W        W17803  12.561   1.476  16.219  0.1474  0.3872 -0.1226
 1910W        W17804   9.731   9.111  12.386 -0.0720  0.2429  0.0531
 1911W        W17805  17.341   0.220  13.053  0.2311 -0.0258  0.0450
 1912W        W17806  16.241   8.708   1.325 -0.0634 -0.0580 -0.0468
 1913W        W17807  15.065  17.358   3.562 -0.0658  0.0659  0.0304
 1914W        W17808   0.817   9.761  15.652  0.1094  0.0147 -0.0308
 1915W        W17809   3.334  16.829   1.748  0.1258 -0.2519  0.0306
 1916W        W17810   3.809  13.181  14.339  0.0500 -0.1130 -0.2136
 1917W        W17811  14.610  11.789   1.744 -0.2009 -0.0594 -0.1224
 1918W        W17812  17.130   3.624   1.084 -0.2647 -0.1789 -0.4102
 1919W        W17813   8.693  16.910  14.485 -0.0202 -0.0133  0.2789
 1920W        W17814   7.753   0.281   0.785  0.0541 -0.0061 -0.0414
 1921W        W17815   0.277   1.379  15.205  0.0002 -0.0634 -0.0246
 1922W        W17816   1.618   2.807   2.759 -0.0058 -0.1309  0.1017
 1923W        W17817  16.096   3.209   1.966 -0.0209 -0.1398  0.1875
 1924W        W17818  12.544  13.499   1.048  0.1081  0.4162 -0.3390
 1925W        W17819   9.372   8.275  15.972 -0.0052 -0.1882  0.0945
 1926W        W17820   3.962  12.937  15.941 -0.0531  0.1375 -0.1693
 1927W        W17821   1.065  16.280   2.815 -0.0706 -0.1461  0.1516
 1928W        W17822   1.493   0.028  14.416 -0.1161  0.1660 -0.0434
 1929W        W17823  14.294  17.054   0.298  0.1937  0.0329  0.2507
 1930W        W17824   6.688   5.433   0.704  0.1112  0.0241  0.0888
 1931W        W17825  13.004  11.077  16.058 -0.0330 -0.0933  0.1355
 1932W        W17826   9.903  10.274   2.730  0.0551 -0.0403  0.1400
 1933W        W17827  12.193   5.194   1.892 -0.1251 -0.1223  0.1609
 1934W        W17828   4.845   3.670  14.147  0.2372 -0.2485  0.0615
 1935W        W17829  15.941  12.686   2.299 -0.0159  0.2061 -0.1751
 1936W        W17830   3.450  11.418   5.029  0.0036 -0.1550 -0.1356
 1937W        W17831  16.412   2.799  16.189 -0.0623  0.0357 -0.0041
 1938W        W17832  17.817   1.634  15.465 -0.0900 -0.0140  0.0952
 1939W        W17833   2.991   7.566  12.746  0.0772  0.1934  0.0716
 1940W        W17834   1.492   8.430  14.644 -0.0442  0.0425 -0.1442
 1941W        W17835   2.373   6.574  13.981 -0.1124 -0.0013 -0.0528
 1942W        W17836  17.486  17.732  15.406  0.1456  0.2291 -0.1867
 1943W        W17837  15.532  14.984   2.206  0.1908  0.3491 -0.0526
 1944W        W17838  10.138   2.740  13.077  0.0547 -0.2305  0.4665
 1945W        W17839   0.781   2.122   3.544  0.1300 -0.2068 -0.4297
 1946W        W17840  10.405   0.256   6.145  0.1054 -0.4828 -0.0248
 1947W        W17841  17.480   0.769   4.561 -0.0294 -0.0503 -0.2974
 1948W        W17842   1.776   7.541  15.649 -0.0917 -0.1066  0.3514
 1949W        W17843   9.004  15.643   6.350 -0.1712 -0.1658 -0.0938
 1950W        W17844   9.035  14.631   0.713  0.1113  0.0838 -0.0974
 1951W        W17845   5.683   2.448  13.367  0.0349 -0.0277 -0.0895
 1952W        W17846   0.609  10.801  16.440 -0.3275  0.0090 -0.2470
 1953W        W17847  15.101  14.015   2.223 -0.0873 -0.1941 -0.2872
 1954W        W17848   1.978   3.670  12.137  0.0240  0.0331  0.4367
 1955W        W17849  17.522   0.277   2.480 -0.2096  0.3601  0.1227
 1956W        W17850   0.419   5.855   0.204  0.0457  0.0502 -0.2490
 1957W        W17851   4.159   3.082  14.749 -0.2421 -0.0403  0.0347
 1958W        W17852  15.075  17.025   4.932  0.2193  0.2521  0.0830
 1959W        W17853   0.803   6.393   1.557 -0.0615  0.0841  0.1001
 1960W        W17854  11.551   1.664  14.679  0.2633  0.1199  0.0908
 1961W        W17855  13.955   2.033  12.187 -0.0021 -0.1471 -0.0365
 1962W        W17856   5.400   7.666   3.836  0.2498  0.1563 -0.1397
 1963W        W17857  11.153  17.689  12.293  0.0515 -0.0305 -0.1432
 1964W        W17858   6.357  13.647   4.180  0.0158 -0.0100 -0.4715
 1965W        W17859   0.551  11.979   1.556  0.0613  0.6551 -0.2549
 1966W        W17860   2.114   1.702  15.242 -0.1853  0.3211 -0.2181
 1967W        W17861   6.519  13.228  15.159 -0.1970 -0.0534 -0.1093
 1968W        W17862   5.767  13.928   6.193  0.1812 -0.3735  0.0657
 1969W        W17863  15.642  15.975   4.075  0.0682 -0.0813 -0.0620
 1970W        W17864   5.357   3.252  14.768  0.0949 -0.0187  0.0940
 1971W        W17865   9.651  12.908   3.562  0.2339  0.0130  0.2060
 1972W        W17866  17.607  17.586  14.689  0.0544 -0.0897 -0.4257
 1973W        W17867   5.088  17.297  14.004  0.0574 -0.0142  0.2721
 1974W        W17868   1.265   2.756   4.673  0.0066 -0.2523 -0.0827
 1975W        W17869  16.496  15.976   5.967 -0.0036  0.1270  0.0697
 1976W        W17870   1.084   4.935   3.403 -0.2939 -0.1393  0.0568
 1977W        W17871  11.095   8.953   1.604  0.1460 -0.1142  0.0495
 1978W        W17872   8.216  12.241   6.238 -0.0475  0.0094  0.0523
 1979W        W17873  11.632  16.961  12.411 -0.0135  0.1742  0.0794
 1980W        W17874   8.527   2.306   0.048  0.0100 -0.0492  0.0807
 1981W        W17875  17.547   1.762   6.493  0.1738 -0.1318 -0.2710
 1982W        W17876   5.362   7.682  15.565 -0.0447  0.0714 -0.0001
 1983W        W17877   7.288  11.283   3.718  0.1832 -0.0575  0.1482
 1984W        W17878   8.707   5.542  13.372 -0.1004  0.2592 -0.1192
 1985W        W17879   5.042   8.739   1.940  0.3260  0.1138 -0.0230
 1986W        W17880   0.269   8.912  16.493 -0.1272  0.0223  0.0186
 1987W        W17881  16.638   3.301   5.168 -0.2443  0.0693 -0.0436
 1988W        W17882  12.904   6.174   0.727 -0.1340 -0.0090 -0.0572
 1989W        W17883   2.718  10.322   5.144 -0.0717 -0.3300 -0.1413
 1990W        W17884  13.309   0.749   3.109 -0.0983 -0.1950 -0.1240
 1991W        W17885  16.380   3.042   1.424  0.3737 -0.1580 -0.0911
 1992W        W17886   7.574   1.665   5.298 -0.2471  0.1119  0.0393
 1993W        W17887   0.575  10.346   0.228  0.0640  0.0298 -0.1273
 1994W        W17888  14.991  11.807  12.553 -0.1757 -0.0688 -0.0113
 1995W        W17889  13.847   2.892  11.390 -0.2838 -0.1004  0.0070
 1996W        W17890  15.701   1.697   1.084  0.0742  0.2476 -0.0885
 1997W        W17891  12.748   1.508  13.966  0.1870 -0.0424  0.0214
 1998W        W17892   4.157   1.916  16.606 -0.0754 -0.1537  0.0983
 1999W        W17893   8.347  11.254  13.071  0.0405  0.2868 -0.0782
 2000W        W17894  14.932  17.840   0.294 -0.2161 -0.1294  0.0528
 2001W        W17895  16.594  17.099  16.330 -0.3348 -0.2999  0.0273
 2002W        W17896  17.267   2.686  16.302  0.1347  0.1206  0.2555
 2003W        W17897  10.929  15.831   5.015  0.2374 -0.0508  0.1636
 2004W        W17898  10.617  16.388  11.685 -0.2382 -0.1191  0.1861
 2005W        W17899  13.391   3.780   2.213  0.3386 -0.1876  0.2276
 2006W        W17900   9.686   0.208   3.256 -0.1336 -0.2502  0.1996
 2007W        W17901   8.024  12.823  12.331 -0.0856 -0.0016 -0.0153
 2008W        W17902  12.744  14.952   5.054 -0.2053 -0.0022  0.0402
 2009W        W17903  12.299   9.686   6.204 -0.1566  0.3229 -0.1627
 2010W        W17904   6.012  15.637  14.794  0.3680 -0.1184 -0.0124
 2011W        W17905   0.851   8.943  15.464  0.2165 -0.0546 -0.0621
 2012W        W17906  14.787   9.024  14.986 -0.0016 -0.0509 -0.1802
 2013W        W17907  12.124  16.907  12.632  0.2761  0.1685 -0.1688
 2014W        W17908   8.725   6.362   0.240 -0.1591  0.1106  0.0839
 2015W        W17909  17.077   7.347  15.401 -0.1205 -0.0158 -0.0437
 2016W        W17910   0.334  15.514  15.295 -0.1369 -0.1064 -0.0849
 2017W        W17911   6.264   9.352   4.284 -0.0687 -0.0129 -0.0272
 2018W        W17912  16.004   8.669  12.127  0.0678  0.3631  0.2041
 2019W        W17913  17.097   8.032   1.401  0.1018  0.3556 -0.3148
 2020W        W17914  11.003   4.248  16.808 -0.1342  0.1377  0.1040
 2021W        W17915   9.506  10.572   4.664  0.0647 -0.2468 -0.1001
 2022W        W17916  12.241  10.871  14.947  0.0121 -0.1500  0.1468
 2023W        W17917   7.921  12.420  15.069  0.1114  0.0044 -0.3121
 2024W        W17918  14.366  17.257  13.449  0.0812 -0.3882  0.2125
 2025W        W17919   3.110  17.021   5.714  0.0377  0.0356  0.0663
 2026W        W17920  12.245   3.736   0.123 -0.2460 -0.0689  0.1435
 2027W        W17921  12.430   9.377  14.892  0.0598 -0.1329 -0.1734
 2028W        W17922   2.686  16.631   2.490  0.1944  0.0284  0.2848
 2029W        W17923  16.154   0.874  11.626  0.0591  0.0500 -0.1783
 2030W        W17924   1.011  15.991  12.324  0.0246  0.3133 -0.0588
 2031W        W17925   6.572   8.834  15.079  0.0544 -0.2765  0.1766
 2032W        W17926  17.139   1.330   5.731 -0.0990 -0.0073 -0.3338
 2033W        W17927   7.174  15.784   3.681  0.0330  0.1808 -0.0260
 2034W        W17928   0.413  16.540   1.808 -0.1676 -0.0260 -0.0742
 2035W        W17929   8.200  15.263   4.177 -0.2195 -0.0758 -0.0012
 2036W        W17930  16.752   5.848   0.448  0.1059 -0.2363  0.2037
 2037W        W17931   5.672  13.879   5.290  0.1367  0.3650  0.3385
 2038W        W17932   9.577  12.378  14.595 -0.0784 -0.1700  0.0455
 2039W        W17933   2.813   9.729  11.854  0.4633  0.0024  0.3682
 2040W        W17934  17.621   6.275  13.437  0.0262 -0.1450  0.2343
 2041W        W17935   3.222  14.925  11.857  0.0271  0.2114 -0.1221
 2042W        W17936  17.619  17.044  13.182 -0.1445 -0.2329  0.0182
 2043W        W17937  15.938  10.277  14.567  0.0154  0.0332 -0.1591
 2044W        W17938   3.925  11.240  13.908  0.0313  0.3166  0.0148
 2045W        W17939   5.200  10.838  13.622 -0.2595  0.1070  0.0584
 2046W        W17940  16.486   8.497   3.329 -0.1931 -0.0918 -0.2483
 2047W        W17941   8.411   9.315   3.836  0.2853  0.0512  0.3548
 2048W        W17942   6.911   6.847   5.692 -0.0545  0.1709 -0.0935
 2049W        W17943  12.015  16.792   3.616  0.2029  0.0819 -0.0703
 2050W        W17944  13.126   2.166  15.203 -0.1457  0.1828 -0.0793
 2051W        W17945   8.500   3.012   4.666 -0.2906 -0.2100 -0.0664
 2052W        W17946   0.451   7.070  14.742  0.1487  0.1510  0.1249
 2053W        W17947  15.873   8.975   2.865 -0.4638  0.1074 -0.2103
 2054W        W17948  13.744   6.796   2.820 -0.1396 -0.0554  0.2179
 2055W        W17949  12.502   4.741  13.040  0.0520 -0.0118 -0.0807
 2056W        W17950   4.227   2.442   4.087 -0.1181 -0.1174  0.0950
 2057W        W17951   7.837  11.608  15.708  0.0284  0.1589  0.5855
 2058W        W17952  12.494   3.072  15.102 -0.2839 -0.1483 -0.2901
 2059W        W17953  17.150   5.327  11.628  0.1215 -0.1552  0.1283
 2060W        W17954   6.528   7.552   0.002  0.0508 -0.1103  0.3404
 2061W        W17955   8.731   3.992  14.744  0.0074  0.0940  0.1400
 2062W        W17956   7.369   7.476   2.418  0.0374  0.1562 -0.3487
 2063W        W17957   1.131   3.444  15.062 -0.3129 -0.1492 -0.1091
 2064W        W17958   1.228  12.884  13.779  0.0050 -0.1399  0.1363
 2065W        W17959   9.157  13.230   1.624 -0.0047 -0.0149  0.0064
 2066W        W17960  16.441   8.375   0.028 -0.0245  0.0481 -0.0164
 2067W        W17961  13.117  13.047  16.831 -0.0909 -0.0710 -0.0588
 2068W        W17962   6.053  11.411   3.909  0.1105  0.1437  0.0963
 2069W        W17963   2.996  14.794   1.464  0.3491 -0.2756  0.0059
 2070W        W17964   9.153   3.939   0.851 -0.3427  0.3174  0.0747
 2071W        W17965  16.970   8.213   3.736 -0.1690  0.1460 -0.0495
 2072W        W17966   3.780  16.722  13.791 -0.0871 -0.1023  0.0775
 2073W        W17967   9.438  10.984   0.831 -0.2392 -0.2617  0.1913
 2074W        W17968   5.424   5.464   0.965  0.1230  0.0354  0.1730
 2075W        W17969  14.081   4.033   0.025  0.2316 -0.2314  0.2007
 2076W        W17970   7.676   1.161  12.230 -0.2925 -0.0097 -0.1744
 2077W        W17971   0.006  12.894   5.265 -0.1840  0.1793 -0.1959
 2078W        W17972  16.148   6.868  13.880  0.0906 -0.1860 -0.2812
 2079W        W17973  16.154   2.697   3.765 -0.0364  0.2072 -0.3354
 2080W        W17974  14.726   2.830  14.643  0.1697 -0.1289  0.1960
 2081W        W17975  13.943   6.934  15.721 -0.5688  0.0775 -0.1495
 2082W        W17976   3.538   8.582  16.542  0.1805 -0.0366  0.1904
 2083W        W17977   2.593   6.101   5.973  0.0892 -0.1997 -0.0123
 2084W        W17978   7.504  12.595   6.557 -0.0978 -0.0374 -0.2615
 2085W        W17979   2.061   6.213   1.910  0.1888  0.3962 -0.3459
 2086W        W17980   1.531  12.742  14.373  0.0611 -0.0675 -0.0362
 2087W        W17981   2.145  11.383   4.952 -0.0632  0.3302 -0.3067
 2088W        W17982  15.890  11.237  12.716 -0.3452 -0.1926  0.5599
 2089W        W17983   1.448   0.945   0.907  0.1482 -0.1015 -0.1496
 2090W        W17984  13.262  17.032   0.067  0.0056  0.2150 -0.2084
 2091W        W17985  16.240  14.259  16.038 -0.1220  0.3545  0.0067
 2092W        W17986   7.163   3.048  16.028 -0.0715 -0.0326  0.2381
 2093W        W17987   0.752  17.093  14.541  0.3288  0.0675 -0.0336
 2094W        W17988  11.927  17.390  12.532  0.0611 -0.2431 -0.2641
 2095W        W17989  16.604   3.080  15.801 -0.1326 -0.1947  0.0258
 2096W        W17990  13.407   5.779  12.624  0.1268 -0.6375 -0.0237
 2097W        W17991  15.459   0.960   6.179  0.1075 -0.0023  0.0960
 2098W        W17992  17.478   9.269   1.352  0.0125 -0.0801  0.0012
 2099W        W17993   0.965  11.790  15.194  0.1432 -0.0902  0.2614
 2100W        W17994  14.104   5.540   3.569 -0.0808 -0.2376  0.3494
 2101W        W17995   8.985  16.517   0.572 -0.0164 -0.1137 -0.2104
 2102W        W17996  15.029  12.326   2.494  0.6530  0.1332 -0.0774
 2103W        W17997  10.276   7.661   6.524  0.0241  0.2153  0.3067
 2104W        W17998  10.109   4.895   6.435  0.0428  0.0835  0.0600
 2105W        W17999  15.743   0.626  15.060 -0.2520 -0.1557 -0.0458
 2106W        W18000   4.494   0.205   4.293  0.0833 -0.1622  0.1824
 2107W        W18001   7.109  16.104   5.136 -0.2566 -0.3868 -0.1778
 2108W        W18002  16.313   4.742   1.848  0.0373 -0.1142 -0.4344
 2109W        W18003   1.656   6.482  12.176 -0.2271 -0.0166  0.1652
 2110W        W18004  15.328  13.468   1.094  0.0768  0.0561 -0.3319
 2111W        W18005   6.452   4.250  12.613 -0.3050 -0.2989  0.2292
 2112W        W18006  10.225  11.782  11.616 -0.0775 -0.5904 -0.0961
 2113W        W18007   0.016   1.930  12.940 -0.0467  0.0450  0.0694
 2114W        W18008  11.662  10.977  12.613  0.1650 -0.3267  0.1513
 2115W        W18009  13.372  13.286   5.494  0.0399 -0.1687  0.3140
 2116W        W18010  10.344  13.920  13.579  0.3626  0.0306  0.0657
 2117W        W18011   8.488  17.831  14.246 -0.0738 -0.2087 -0.2719
 2118W        W18012   2.229   0.754  15.057  0.2420 -0.1318 -0.1698
 2119W        W18013   6.489  14.624  13.558  0.0979  0.0662 -0.0399
 2120W        W18014  12.397  15.181  14.026  0.1412  0.1617  0.1871
 2121W        W18015   8.968   0.877  14.673  0.2259 -0.2245 -0.3456
 2122W        W18016   1.138   7.142  15.261  0.1248  0.1611 -0.1602
 2123W        W18017  17.704   3.160   1.374  0.0941 -0.2672  0.0096
 2124W        W18018   3.212   4.878   3.818 -0.1122 -0.3648  0.0787
 2125W        W18019  13.924   8.258   5.406 -0.0326  0.0605  0.0497
 2126W        W18020   3.280  11.382   1.205  0.0586 -0.2456 -0.1396
 2127W        W18021   5.576  10.037  12.965  0.0244  0.1411 -0.1801
 2128W        W18022   8.637  10.291  14.922 -0.1547 -0.1622 -0.0464
 2129W        W18023  16.757   3.189  15.277 -0.0399 -0.1328  0.0303
 2130W        W18024   9.383  17.295   3.944 -0.2169 -0.1373 -0.0174
 2131W        W18025  16.978  15.362   5.525 -0.0255 -0.1672  0.0363
 2132W        W18026   9.888   3.192   0.848 -0.0076 -0.2713 -0.1481
 2133W        W18027   5.882   8.484   5.732 -0.2033 -0.1522  0.1559
 2134W        W18028   5.468   0.713  16.138  0.0783 -0.0573 -0.3485
 2135W        W18029  15.166  16.078   4.791 -0.0805 -0.2366  0.0589
 2136W        W18030   0.208   8.482   4.966  0.2152  0.0809 -0.2232
 2137W        W18031  11.158   5.597   0.408 -0.0931 -0.0563  0.1466
 2138W        W18032   8.789  13.786   0.218  0.0569 -0.0186 -0.1279
 2139W        W18033  12.820   0.050   5.629 -0.1890  0.1058  0.0589
 2140W        W18034  16.204  16.187   2.479 -0.0500  0.1278  0.0378
 2141W        W18035   3.150   2.933  12.369 -0.1212  0.0263 -0.0049
 2142W        W18036   8.524  12.675   4.421  0.3118 -0.0254 -0.1797
 2143W        W18037  12.936  14.578   5.334  0.2654  0.0759 -0.0573
 2144W        W18038  12.629   3.047   2.300  0.0734 -0.2002  0.3628
 2145W        W18039   5.019   1.845  12.855 -0.2065  0.1086 -0.0372
 2146W        W18040  12.859   4.543  13.430 -0.0100  0.0044 -0.2160
 2147W        W18041  17.723   0.700  15.920 -0.2013 -0.2205  0.0291
 2148W        W18042  10.990   6.492   4.939  0.0254 -0.2627 -0.0420
 2149W        W18043   4.522   3.222   1.067 -0.3485  0.0921  0.0544
 2150W        W18044   6.667   3.723   2.975  0.2286 -0.0403 -0.1131
 2151W        W18045   6.186  10.448   2.687  0.3050  0.2305  0.0452
 2152W        W18046   6.765  14.331   2.036  0.0470 -0.0049 -0.0378
 2153W        W18047  13.926   3.235   4.270  0.1219 -0.0119 -0.0785
 2154W        W18048  17.503   0.002   1.538 -0.0167 -0.2772 -0.1125
 2155W        W18049  13.601   1.805   4.196  0.1610 -0.0798 -0.3539
 2156W        W18050  12.007   0.359   2.813  0.1168 -0.1005 -0.0435
 2157W        W18051   7.567  10.484  10.956  0.2295  0.1210  0.1515
 2158W        W18052  11.077  14.167  15.771 -0.0028  0.0083 -0.4305
 2159W        W18053   6.845  16.702   3.116  0.2303  0.1135 -0.2127
 2160W        W18054   0.100  14.879  12.271  0.1877  0.1972  0.0367
 2161W        W18055   0.342   8.594  15.333  0.0926 -0.0562  0.0972
 2162W        W18056   3.084   6.356   5.849  0.1727 -0.0723  0.0104
 2163W        W18057  14.948   6.226  14.931  0.0633  0.0799 -0.1563
 2164W        W18058   5.605   4.193  15.574 -0.0405  0.1410  0.2009
 2165W        W18059   8.878   1.167  15.431  0.0962  0.0465  0.1189
 2166W        W18060   6.016  12.922   3.167  0.1173 -0.2713 -0.0223
 2167W        W18061  12.631  16.788  15.917 -0.1739  0.1562 -0.0686
 2168W        W18062   7.256  16.309   0.089  0.1431  0.3184  0.0333
 2169W        W18063   6.928  10.652   0.749  0.1045 -0.0241  0.1241
 2170W        W18064  11.608   6.881   0.335  0.0517  0.0381  0.1642
 2171W        W18065  16.018  15.031   4.777 -0.0141 -0.1849 -0.0851
 2172W        W18066  16.207   2.633   4.748 -0.0053 -0.0170  0.1822
 2173W        W18067  14.618   4.324  12.043  0.0513  0.1931  0.1574
 2174W        W18068  13.548  11.277   2.043 -0.1709  0.1170 -0.0666
 2175W        W18069  11.517  14.589  12.391  0.0776 -0.1452 -0.1214
 2176W        W18070   0.601  14.032   1.842 -0.1143  0.2059  0.1249
 2177W        W18071  10.844   5.540   1.789 -0.0631 -0.0374 -0.2052
 2178W        W18072   6.468  16.163  16.094  0.4240 -0.0398 -0.5750
 2179W        W18073  14.393  13.370   0.126 -0.1047 -0.0234  0.2034
 2180W        W18074  14.660   6.571  15.236 -0.1150  0.1751 -0.2476
 2181W        W18075  15.071   1.944   3.271 -0.0567  0.1137  0.1984
 2182W        W18076   0.402   4.375   3.542 -0.0031  0.0680  0.0486
 2183W        W18077  11.565   6.114   2.314 -0.0256 -0.1571 -0.1193
 2184W        W18078   6.414  16.851  15.333  0.1484 -0.3405 -0.2811
 2185W        W18079  12.437   4.800  11.584 -0.3326 -0.0623 -0.2629
 2186W        W18080   6.189   1.175  13.650  0.3056 -0.1002  0.0743
 2187W        W18081   6.699   8.320   3.913  0.3699 -0.0332 -0.0043
 2188W        W18082   3.233  13.443  16.350 -0.0536 -0.0567 -0.0740
 2189W        W18083   2.436   9.967   1.160 -0.1578 -0.1469 -0.1571
 2190W        W18084   9.147  17.032   0.551 -0.0062 -0.2193  0.0371
 2191W        W18085  10.880   6.171   1.259 -0.3159  0.3349 -0.0821
 2192W        W18086  16.966   9.480  14.253 -0.4964 -0.1983  0.0435
 2193W        W18087   1.279  16.914  13.920  0.0634  0.0121  0.0085
 2194W        W18088   5.092  17.435  15.573  0.1001 -0.1113  0.0047
 2195W        W18089   4.014   0.384   4.350 -0.0597  0.0167  0.0081
 2196W        W18090  16.923   7.650  13.710 -0.1291 -0.1035  0.3304
 2197W        W18091  13.323   1.042   0.086  0.0324  0.0039  0.1148
 2198W        W18092   6.642   5.559   5.773 -0.0345 -0.2133  0.1562
 2199W        W18093   4.527  14.018  12.739  0.1247  0.4001  0.0642
 2200W        W18094  17.321  13.683   2.466  0.0966  0.2890 -0.1407
 2201W        W18095   1.417  15.333   1.788 -0.0428 -0.0703 -0.1280
 2202W        W18096   1.069  12.238   3.734  0.1332  0.0685  0.0604
 2203W        W18097  17.209   9.616  11.822 -0.0769  0.0546 -0.0017
 2204W        W18098  13.498  12.755   5.574  0.0313  0.2306  0.2610
 2205W        W18099   1.832  15.354  13.627  0.3194  0.1357  0.1812
 2206W        W18100  17.364  16.075   0.377 -0.0553  0.0714  0.1942
 2207W        W18101   2.266   2.879   1.457 -0.0284  0.1313  0.1538
 2208W        W18102   3.981  10.470   2.707  0.0300 -0.0986 -0.0102
 2209W        W18103  14.054  10.810  15.021  0.1765  0.0726 -0.1942
 2210W        W18104  16.659   5.384   4.205  0.2288 -0.2484 -0.3935
 2211W        W18105   7.805  15.502  16.573 -0.0367  0.1119  0.3546
 2212W        W18106  13.413   8.540  13.876 -0.0793 -0.1082  0.1176
 2213W        W18107  12.666   4.490  16.754  0.1341  0.4822  0.1152
 2214W        W18108  13.959   2.117  13.852  0.0926  0.1251  0.2741
 2215W        W18109  14.690   8.060  15.413  0.1744  0.2829  0.2081
 2216W        W18110   4.227   3.210   5.065  0.0364  0.0268 -0.1497
 2217W        W18111   0.417  17.204  11.925 -0.0247  0.3805  0.2855
 2218W        W18112  14.291  11.984  12.906 -0.2795 -0.1470 -0.0573
 2219W        W18113  13.141   6.707  16.739  0.0973 -0.0790 -0.1958
 2220W        W18114   2.675   0.323  16.324 -0.1329  0.1937 -0.0293
 2221W        W18115   9.450  13.686   4.500  0.0331  0.0131  0.2280
 2222W        W18116   5.795  17.192  11.505  0.1257  0.3670 -0.1512
 2223W        W18117   1.554   1.063   4.861 -0.1675  0.2003 -0.0512
 2224W        W18118   8.526  12.029   5.719 -0.1125 -0.2973 -0.0003
 2225W        W18119  14.931  11.603  14.153 -0.0251  0.0044  0.0636
 2226W        W18120  13.330   1.046   1.724 -0.1229 -0.0547 -0.1290
 2227W        W18121   8.534   7.672  12.591  0.1120 -0.1148  0.1211
 2228W        W18122   1.780  16.848   1.144 -0.0544  0.0324  0.2952
 2229W        W18123   7.440  16.169   3.607 -0.0957  0.1133  0.2071
 2230W        W18124   6.328   9.824   6.372  0.1168  0.0834 -0.1134
 2231W        W18125   7.193   7.868   1.269  0.1466 -0.0606 -0.2729
 2232W        W18126   3.573  13.879  16.242 -0.0950 -0.1610  0.0221
 2233W        W18127  14.085  14.849  11.798 -0.2100 -0.2276 -0.1647
 2234W        W18128   1.871   1.462  16.463 -0.0039  0.0468 -0.0747
 2235W        W18129   9.864   1.460  16.189  0.1871  0.0454 -0.2100
 2236W        W18130  14.397   3.230  15.258  0.0657 -0.0604 -0.2678
 2237W        W18131  11.063  10.623  13.865  0.0020  0.4544 -0.0855
 2238W        W18132   3.088   2.152  14.825 -0.0484  0.0199  0.1496
 2239W        W18133  15.490  15.126   1.128  0.0962  0.1073  0.1278
 2240W        W18134   3.840   5.989  14.813 -0.0549 -0.1146 -0.1753
 2241W        W18135  17.209   9.106  11.320 -0.0138  0.1754 -0.1440
 2242W        W18136   2.255   6.031  13.173  0.1435  0.1847 -0.1920
 2243W        W18137  13.419   8.592  11.583 -0.1360 -0.1678 -0.2410
 2244W        W18138  12.052  15.177  15.199  0.0276 -0.1375  0.0275
 2245W        W18139   3.560  13.252  13.872  0.0076 -0.0236 -0.0493
 2246W        W18140   7.369   1.492  13.159  0.1604  0.0760 -0.1300
 2247W        W18141  16.230   5.315   0.558 -0.0614 -0.0981  0.1783
 2248W        W18142   7.789  14.388   4.145  0.0030  0.1158 -0.0765
 2249W        W18143  13.216   3.440   3.470 -0.1303 -0.1465 -0.0067
 2250W        W18144   2.790  11.273  16.834  0.0087 -0.0262 -0.1192
 2251W        W18145  16.568   8.784   2.201 -0.1124  0.1229 -0.4323
 2252W        W18146   8.703   9.562  13.723  0.0551 -0.2406  0.0909
 2253W        W18147  14.376   6.741  12.012  0.2576  0.0199 -0.0671
 2254W        W18148  10.953   1.820   2.220 -0.2592  0.1072 -0.1922
 2255W        W18149  14.702   3.079   0.450  0.1642  0.1516  0.1412
 2256W        W18150  13.325   9.434   1.673 -0.0882 -0.1145 -0.2689
 2257W        W18151   0.739   0.704  13.074 -0.2322 -0.0749  0.1904
 2258W        W18152  17.812  11.242   1.826 -0.0742 -0.0301 -0.0665
 2259W        W18153  13.529   7.794  16.035  0.2712  0.5387  0.4555
 2260W        W18154   1.407   3.000   2.002  0.2165  0.1640  0.0230
 2261W        W18155  15.954   9.976   3.248  0.0148 -0.0581  0.1590
 2262W        W18156  13.920   7.307   3.345 -0.0765  0.4990 -0.0520
 2263W        W18157   8.241   4.826   0.812  0.2692  0.1235 -0.0195
 2264W        W18158   7.285  14.306  16.831  0.0806 -0.1828 -0.0183
 2265W        W18159   8.528  10.565   0.844  0.2260  0.2068 -0.0093
 2266W        W18160   2.272   2.346   0.358  0.0154  0.1563  0.0446
 2267W        W18161   9.860   5.441   5.216 -0.0778  0.0558 -0.2057
 2268W        W18162   8.862   9.153  13.894 -0.0357  0.4365  0.0857
 2269W        W18163  12.917   7.349   2.581  0.2420 -0.0247 -0.0739
 2270W        W18164  10.216  11.450   1.918 -0.0072  0.3599 -0.0341
 2271W        W18165   4.536  14.714  11.292  0.2478 -0.1373  0.0611
 2272W        W18166  17.517   3.490  15.209 -0.1637  0.0697  0.0036
 2273W        W18167  11.251   6.034   4.108 -0.0757 -0.1563  0.1181
 2274W        W18168   0.086  10.943   2.195  0.0144  0.0086 -0.0755
 2275W        W18169  12.508   2.940   3.672  0.1001 -0.1493  0.1632
 2276W        W18170  16.691  15.562   3.773 -0.0540 -0.2826  0.1205
 2277W        W18171   9.526  10.712  15.553  0.1191  0.1433  0.0652
 2278W        W18172  13.053   3.018  14.824 -0.1995 -0.0071  0.1542
 2279W        W18173  12.105  12.417  14.807  0.1521 -0.0387 -0.1948
 2280W        W18174   4.291  14.505   5.251 -0.1274 -0.0150 -0.0089
 2281W        W18175  17.714   0.936  11.870  0.1676  0.3391 -0.0979
 2282W        W18176  15.935  16.816  12.551 -0.1364 -0.1245 -0.0330
 2283W        W18177  13.749  14.266  13.793 -0.0087 -0.1257 -0.0427
 2284W        W18178  10.799   3.228   4.012  0.2491  0.2712 -0.0919
 2285W        W18179   3.958   3.946  13.092 -0.2623 -0.0967 -0.1056
 2286W        W18180   8.030  14.382   5.368  0.1648  0.0991 -0.2793
 2287W        W18181   1.475  12.862   2.682 -0.0796  0.1642  0.2903
 2288W        W18182   1.284  11.844  14.817 -0.0498  0.0537  0.1461
 2289W        W18183  10.989  13.545   1.633 -0.0659 -0.0371 -0.0826
 2290W        W18184   6.504   4.053   5.666 -0.1300 -0.1664 -0.0040
 2291W        W18185  12.978  15.830  11.819  0.0309 -0.1146  0.1359
 2292W        W18186   5.156  11.619   4.591  0.0783  0.3354 -0.0232
 2293W        W18187   6.449  17.217   3.266 -0.2312  0.1669  0.1968
 2294W        W18188   0.580  17.473  14.293  0.0919  0.1426 -0.0330
 2295W        W18189  13.249   4.906   1.998  0.2136 -0.3242 -0.2375
 2296W        W18190  13.659  10.187   5.010 -0.1607  0.1062  0.2856
 2297W        W18191  13.267   2.041  11.720 -0.0334 -0.1415  0.1391
 2298W        W18192  10.000  13.216  12.855 -0.1839 -0.1468  0.0332
 2299W        W18193  15.074   7.881  15.823  0.3403  0.1773  0.0140
 2300W        W18194   2.760   3.613   5.785  0.1080  0.0606 -0.0522
 2301W        W18195   7.182   8.208  16.369 -0.2188 -0.0830 -0.1088
 2302W        W18196  13.736  10.491  16.290 -0.0893  0.1326  0.0616
 2303W        W18197  10.930  16.506  11.313 -0.1607 -0.4533  0.0616
 2304W        W18198  12.810   4.064  16.541  0.2095 -0.1754  0.0464
 2305W        W18199   6.994   7.556   0.925  0.1812  0.3067  0.1094
 2306W        W18200  14.329  11.495  14.721 -0.1455 -0.0974 -0.0817
 2307W        W18201   9.822  16.006   1.890 -0.0542  0.2409 -0.0081
 2308W        W18202  11.866   0.299  13.021  0.2442 -0.0463  0.2371
 2309W        W18203   9.658   1.464  11.641 -0.1387 -0.2951  0.0776
 2310W        W18204   7.756   5.509   4.684  0.0821 -0.0547 -0.1105
 2311W        W18205  15.777   7.150   1.864 -0.2628  0.2224  0.0306
 2312W        W18206  16.724  12.852   6.592 -0.1268  0.0616  0.1783
 2313W        W18207  15.257   8.424   0.366 -0.1627  0.4259  0.1837
 2314W        W18208  13.710   4.685  12.039  0.2664 -0.2744 -0.1100
 2315W        W18209   7.965   4.131   0.104 -0.1608 -0.1412  0.2597
 2316W        W18210  11.241   8.910   0.034 -0.0127 -0.0388 -0.0312
 2317W        W18211  13.716   3.232  12.051 -0.2110  0.1714 -0.2201
 2318W        W18212  12.370  14.261  14.613  0.1145 -0.2325  0.1261
 2319W        W18213   0.030  16.722   3.942  0.0585 -0.0487 -0.0283
 2320W        W18214  11.399   4.408  14.613  0.1416  0.2281 -0.1971
 2321W        W18215   6.518  10.037  16.715 -0.0334  0.0458 -0.1043
 2322W        W18216  16.070   1.447  13.336 -0.2117  0.1785 -0.0655
 2323W        W18217   9.351   2.612   5.151  0.0361  0.1098  0.1099
 2324W        W18218   5.031   7.051  16.274 -0.0279  0.2371  0.1489
 2325W        W18219   9.234  16.468   5.425  0.1499 -0.1988 -0.3041
 2326W        W18220  16.462  17.401  15.890 -0.3764 -0.2036 -0.2252
 2327W        W18221   3.948  17.818  16.040  0.2897 -0.1711 -0.0722
 2328W        W18222   6.364  11.640  16.899 -0.1379 -0.1501 -0.1163
 2329W        W18223  11.232   3.163  12.130 -0.0364 -0.0068 -0.2177
 2330W        W18224   3.740  16.383  15.484  0.2591 -0.1671  0.0439
 2331W        W18225   2.233   6.648  15.414 -0.2206  0.3227 -0.0979
 2332W        W18226   7.913  16.886   4.220  0.1102  0.1315 -0.3405
 2333W        W18227  15.264  10.974  14.544 -0.0364 -0.4319  0.0919
 2334W        W18228   1.631  12.050  13.288  0.0370  0.1722  0.2898
 2335W        W18229  12.645  16.177   2.314  0.1597 -0.2005 -0.0828
 2336W        W18230  15.717   7.524   6.255  0.0346 -0.0670  0.0666
 2337W        W18231   3.432  14.605  16.664  0.2996  0.0093  0.1822
 2338W        W18232   6.642   3.352  14.660 -0.1282  0.0536 -0.1796
 2339W        W18233   0.624   4.297   2.241  0.0399 -0.2344 -0.0759
 2340W        W18234   1.213   9.204  11.673  0.0434 -0.1110  0.0474
 2341W        W18235  12.607  14.392   0.916 -0.0767 -0.3314 -0.0616
 2342W        W18236  17.655   9.487   5.532 -0.0171  0.1765 -0.1062
 2343W        W18237   6.608  10.065  14.421  0.2383  0.1398  0.0604
 2344W        W18238   4.803   3.323   4.979  0.1121  0.0107 -0.1620
 2345W        W18239   5.435   6.545  14.343  0.3570  0.3036  0.5270
 2346W        W18240   0.096   5.015   4.212  0.1493 -0.2223 -0.1273
 2347W        W18241  16.362   6.996   1.715  0.3067  0.1611  0.1688
 2348W        W18242   6.414  16.570  11.619  0.2336  0.1056 -0.0806
 2349W        W18243  12.798  12.222  13.424 -0.1134  0.1840  0.2473
 2350W        W18244   2.632   6.371  13.168 -0.1346  0.1850  0.1311
 2351W        W18245   1.372   8.164  13.127  0.0627  0.0791 -0.0005
 2352W        W18246  17.298  15.321  15.899 -0.0856 -0.0360  0.0313
 2353W        W18247  12.090   7.764  16.224  0.0843  0.0345  0.1969
 2354W        W18248   0.321  17.016   0.170 -0.4608  0.2836  0.0562
 2355W        W18249  15.813  10.160  16.631  0.2424  0.4014 -0.1823
 2356W        W18250   4.047   6.353  13.023  0.2728  0.0040  0.1111
 2357W        W18251  16.589  10.827  15.720 -0.1687 -0.3170  0.4278
 2358W        W18252   7.668   7.269   3.677  0.1980 -0.3257  0.0879
 2359W        W18253   9.263   6.224  11.785 -0.1193  0.0287 -0.1169
 2360W        W18254   8.478  10.444  15.759 -0.0863 -0.5215 -0.1151
 2361W        W18255  12.816   5.543  13.557 -0.3124 -0.3216  0.1245
 2362W        W18256   7.154   8.020  14.218 -0.2288 -0.2771 -0.1970
 2363W        W18257   8.947  10.189  15.904 -0.2009 -0.4956  0.0897
 2364W        W18258   8.947   9.347  14.315  0.0413  0.0821  0.1315
 2365W        W18259   0.655   5.991  15.961  0.2877 -0.0381  0.2056
 2366W        W18260   3.612   9.725   5.211 -0.1682 -0.1565  0.1947
 2367W        W18261   4.780   8.556   4.761 -0.0901  0.1323 -0.3601
 2368W        W18262   3.847  15.274  12.684 -0.0217 -0.0753  0.0538
 2369W        W18263  14.112   3.213  12.906  0.1270 -0.1009  0.1440
 2370W        W18264   0.031  15.368   4.129 -0.0879 -0.0008  0.1483
 2371W        W18265  16.917  10.231  12.058 -0.1122 -0.2408 -0.0164
 2372W        W18266  14.117   3.228  11.736 -0.0698  0.0745 -0.3057
 2373W        W18267  13.412  12.226   1.501 -0.1614  0.1296  0.2969
 2374W        W18268  13.476  16.615  16.526 -0.0558  0.2409 -0.0468
 2375W        W18269  11.676   2.153   4.468 -0.1630 -0.1248  0.1728
 2376W        W18270   0.781   8.896  16.671 -0.1637  0.1643 -0.1743
 2377W        W18271   9.985  14.817  13.995  0.1262 -0.0706  0.0378
 2378W        W18272   0.399  11.935   2.511  0.3960 -0.1156  0.0100
 2379W        W18273   0.239  10.743   5.545 -0.1130 -0.2781 -0.0918
 2380W        W18274  13.576   0.480  13.950  0.5509 -0.3517  0.1155
 2381W        W18275   2.388   0.817   1.032 -0.4345 -0.0403 -0.2324
 2382W        W18276  12.916  13.659  16.563  0.1404 -0.0145 -0.0560
 2383W        W18277  11.435   4.928  14.693  0.5150 -0.1027 -0.0006
 2384W        W18278   0.952   3.532  15.544  0.1848  0.1769 -0.3472
 2385W        W18279  10.886  11.825  14.244  0.0079 -0.2055  0.3204
 2386W        W18280  10.509   3.367   6.368  0.1989 -0.0150  0.5811
 2387W        W18281  15.774  13.095   6.217  0.2207 -0.0346 -0.0550
 2388W        W18282  10.153   2.160   3.450  0.1559 -0.0879 -0.0293
 2389W        W18283   5.767  11.558  13.384  0.0855  0.1462 -0.1711
 2390W        W18284  14.505   8.580  14.855  0.4119  0.1597 -0.3286
 2391W        W18285   7.178   5.615  14.611 -0.0301 -0.1468  0.1779
 2392W        W18286   4.149   8.012  16.861 -0.0809 -0.0427 -0.3198
 2393W        W18287   7.846   4.289  12.562  0.0152 -0.0420  0.1181
 2394W        W18288  12.566  11.713  14.337 -0.0829  0.3190 -0.1475
 2395W        W18289   3.103  12.575  13.579  0.0298  0.1106 -0.0993
 2396W        W18290  13.449  10.799  13.787 -0.0011 -0.3077 -0.2457
 2397W        W18291   1.890   9.997   2.436  0.1356 -0.1463  0.0506
 2398W        W18292   7.674   4.858  15.952 -0.0798 -0.0752 -0.0246
 2399W        W18293   2.862  13.956   5.786  0.0253 -0.1688 -0.0788
 2400W        W18294  17.616   1.898  11.469 -0.0186  0.1866 -0.1749
 2401W        W18295   8.617   9.092   6.402  0.1300 -0.0846  0.0896
 2402W        W18296   5.971   8.721  14.209 -0.1522 -0.1944  0.1726
 2403W        W18297   2.783   6.485   4.397  0.0664 -0.0768  0.0581
 2404W        W18298  11.548   4.439  11.955  0.1880  0.1646  0.0403
 2405W        W18299   9.053   0.543   0.009  0.1432 -0.2463 -0.2259
 2406W        W18300  11.985   2.903   4.494  0.2981  0.2332 -0.0954
 2407W        W18301  10.498   6.851  14.532 -0.5872 -0.3376  0.1706
 2408W        W18302   6.203   8.816   1.547 -0.0017  0.0550 -0.1124
 2409W        W18303  11.428   3.148  15.160 -0.1285  0.2786  0.0363
 2410W        W18304   7.681  10.866   1.537 -0.2142 -0.1011 -0.2278
 2411W        W18305   7.299  15.885  15.168  0.1212  0.0184 -0.4388
 2412W        W18306  12.465  15.530   1.668  0.1524 -0.2617 -0.0845
 2413W        W18307   1.373   1.984   1.271 -0.0849  0.0277 -0.1552
 2414W        W18308   7.567   4.505   3.830  0.2173 -0.2544  0.1741
 2415W        W18309   1.784  12.551   1.682 -0.3051 -0.1149  0.3629
 2416W        W18310   7.091  11.471  12.024 -0.0747  0.0527  0.2813
 2417W        W18311   6.498   7.643   5.886 -0.0063  0.0271  0.0768
 2418W        W18312  16.805   1.067   1.854 -0.0875 -0.2885  0.0800
 2419W        W18313   8.790  16.881   0.222  0.0153 -0.2789  0.2779
 2420W        W18314   1.797   6.984   2.612 -0.2173 -0.2887 -0.0893
 2421W        W18315  16.709   7.405   4.210 -0.1093  0.1186 -0.0130
 2422W        W18316  14.688  12.918  14.491 -0.1374 -0.0658 -0.0777
 2423W        W18317  16.350  10.398  11.987 -0.0186 -0.0931 -0.1284
 2424W        W18318   9.089   6.842   1.422  0.3063  0.0341 -0.0553
 2425W        W18319   8.267  12.521  12.605  0.2673  0.0364  0.2121
 2426W        W18320   9.195   7.096   5.183 -0.2876 -0.1765  0.3314
 2427W        W18321   1.728  15.683   2.773 -0.7030 -0.0388  0.0247
 2428W        W18322   8.937   4.075   6.792 -0.1870 -0.2270  0.0394
 2429W        W18323   6.258   1.028  14.450  0.3344  0.1712  0.0438
 2430W        W18324  16.685   7.412  16.334 -0.0199  0.0281 -0.1191
 2431W        W18325   1.223  14.735  11.838 -0.0884  0.1780 -0.0908
 2432W        W18326   6.716  12.565  13.498 -0.1969 -0.2266 -0.0941
 2433W        W18327   6.857   5.809   0.396 -0.0384  0.0118  0.0571
 2434W        W18328   1.735   0.831   0.391  0.0305  0.0103  0.2065
 2435W        W18329   0.482  11.281   0.031  0.1994 -0.0586 -0.0168
 2436W        W18330  14.885   9.486  14.833  0.2720 -0.2243  0.1072
 2437W        W18331  11.377  12.260   5.498 -0.4675 -0.0957  0.0205
 2438W        W18332  16.987  14.925  13.484 -0.3267 -0.2592 -0.0706
 2439W        W18333  10.317  17.820  15.985 -0.0207 -0.0373  0.2409
 2440W        W18334   2.562   0.727   4.586  0.2415  0.1334 -0.0827
 2441W        W18335  11.249  16.753  12.599 -0.1020  0.2213 -0.3157
 2442W        W18336   9.732   9.015  14.189 -0.0741  0.0222 -0.1944
 2443W        W18337   7.711   1.122  13.144  0.0223 -0.0932 -0.1040
 2444W        W18338   3.282   9.763   0.056 -0.0616 -0.1908 -0.2263
 2445W        W18339   2.771   4.629   3.689  0.2234 -0.1219  0.1529
 2446W        W18340   8.900   8.416  16.051  0.2720  0.0641  0.0138
 2447W        W18341  17.333   6.048   3.305 -0.3073 -0.0750  0.2445
 2448W        W18342   8.515  17.091  13.544  0.0303  0.2386  0.4531
 2449W        W18343   1.073  17.227   1.206 -0.2105 -0.0558  0.2053
 2450W        W18344  12.656   6.843   0.128 -0.0589 -0.3066  0.3271
 2451W        W18345   6.115   2.477   0.497  0.1400 -0.4371  0.0145
 2452W        W18346  12.020   7.648  13.586  0.2075  0.3028 -0.1548
 2453W        W18347   2.839  14.759   5.604 -0.0463  0.3129 -0.0507
 2454W        W18348   5.210   1.663  11.324  0.1220 -0.1484 -0.1581
 2455W        W18349  15.763   5.462   1.495 -0.1647  0.3664 -0.1510
 2456W        W18350   1.582  11.538   0.279 -0.0888  0.0989  0.0927
 2457W        W18351  12.140   5.349   1.412  0.0271  0.0449 -0.1936
 2458W        W18352   6.641   3.246   4.852 -0.0863  0.2407  0.2218
 2459W        W18353   3.859  17.264   6.194  0.1237  0.3825 -0.1969
 2460W        W18354   1.454   7.161   1.660  0.1850  0.1817  0.0887
 2461W        W18355   2.406   5.620  14.712 -0.2960  0.0608  0.0392
 2462W        W18356   8.431   1.388   4.880 -0.1354  0.0307  0.1366
 2463W        W18357  17.279  11.746   3.330 -0.1709  0.2529  0.2259
 2464W        W18358   3.169   8.255  11.298  0.0484  0.0619 -0.0471
 2465W        W18359  14.986   1.594  14.828 -0.0024  0.0713 -0.1678
 2466W        W18360  14.694  12.143   2.206 -0.0171 -0.0787 -0.0605
 2467W        W18361   6.987  12.811   1.393 -0.3143 -0.0255  0.0179
 2468W        W18362   8.627   0.198   0.784  0.1133 -0.0338  0.1540
 2469W        W18363   5.774   9.536  11.363 -0.0378  0.1159  0.0166
 2470W        W18364   4.193  12.389  16.283  0.2098 -0.0596 -0.0846
 2471W        W18365   7.178  15.543   2.467  0.0212 -0.1428 -0.0196
 2472W        W18366  13.043   8.673   4.200  0.2949  0.2840 -0.0788
 2473W        W18367   4.019  14.597  13.124  0.0902  0.0339  0.1032
 2474W        W18368  11.268  12.601   1.801  0.3230 -0.2047  0.0864
 2475W        W18369   4.595   5.020   4.260 -0.1661 -0.3626 -0.0840
 2476W        W18370   4.715   7.399   3.822 -0.0374  0.1860 -0.2623
 2477W        W18371   5.948   2.650  15.532  0.0963 -0.4478 -0.1673
 2478W        W18372  17.210  12.592  12.316  0.3414  0.0575  0.0903
 2479W        W18373   7.173  17.581   4.264  0.0777  0.0957 -0.0853
 2480W        W18374  11.915  15.492  14.807  0.0248 -0.1326  0.0538
 2481W        W18375  13.342   7.099  16.409 -0.0730  0.1668 -0.0704
 2482W        W18376   2.829  11.769  16.708 -0.0038  0.1423 -0.1415
 2483W        W18377   3.229   1.237   2.104 -0.1681  0.0176 -0.1526
 2484W        W18378   8.553   5.813  16.703 -0.0228  0.2192 -0.0255
 2485W        W18379  13.198   3.487   5.603  0.1844 -0.1264  0.1649
 2486W        W18380   8.518   2.923   5.367  0.0906  0.0876 -0.2646
 2487W        W18381   2.947   7.878   3.968 -0.0383  0.0252 -0.1132
 2488W        W18382   7.687   6.643   2.757 -0.0182 -0.1237 -0.5162
 2489W        W18383   5.861  15.174  13.411  0.3612 -0.2833  0.0241
 2490W        W18384  11.596  14.414   5.394  0.0166  0.1094  0.1208
 2491W        W18385   7.095  13.078   0.836  0.1706  0.0400  0.0879
 2492W        W18386  11.893  11.055   2.449 -0.4000 -0.2177  0.0374
 2493W        W18387   3.667   6.305  16.390 -0.1519 -0.0913  0.4297
 2494W        W18388   0.760   2.475  12.187 -0.1930 -0.0669  0.0590
 2495W        W18389   6.400   7.285  12.654  0.1317  0.0415 -0.0123
 2496W        W18390   2.708  14.502   1.130 -0.0576 -0.0391 -0.0750
 2497W        W18391   3.861   4.391   5.975  0.0119 -0.0717  0.2680
 2498W        W18392   6.551  10.108   3.847  0.0794  0.1199 -0.2198
 2499W        W18393  17.741   2.649   4.956  0.0505  0.0319 -0.1755
 2500W        W18394  13.927  12.304   1.604  0.2531 -0.0651 -0.4382
 2501W        W18395   0.310  12.962  15.153  0.0432  0.1830 -0.0281
 2502W        W18396   0.871   2.213  16.061 -0.0100  0.1195  0.2969
 2503W        W18397  13.667  11.505   5.082  0.1770  0.0111 -0.0147
 2504W        W18398   5.588   6.139  12.480  0.1447 -0.0213 -0.0170
 2505W        W18399  15.391  12.530   5.558  0.1166 -0.0077 -0.1720
 2506W        W18400  15.635   2.989   0.222 -0.2189  0.0938  0.2019
 2507W        W18401   8.376  11.290  14.050 -0.0638  0.1597 -0.2308
 2508W        W18402   4.057  10.740   4.258  0.1005  0.0805 -0.1013
 2509W        W18403  10.763   4.174  11.349  0.0546 -0.0401 -0.2395
 2510W        W18404  12.729   5.342   4.084 -0.0063 -0.1946  0.2654
 2511W        W18405   8.262  13.430  12.582  0.1972 -0.1213 -0.2408
 2512W        W18406  13.544   5.809   0.617  0.0865 -0.1655  0.4561
 2513W        W18407   4.576  17.697   4.712 -0.1699 -0.1637 -0.1370
 2514W        W18408   7.319   6.218   2.780 -0.0241  0.1466  0.2274
 2515W        W18409  15.014  17.420   2.531 -0.1966 -0.3037 -0.0665
 2516W        W18410   6.391  16.445   0.581 -0.1061  0.0270  0.1674
 2517W        W18411  16.095  15.603  15.925 -0.1473  0.0936  0.0626
 2518W        W18412  17.161   4.391  13.167  0.1648  0.3024 -0.2064
 2519W        W18413  12.878   1.103   0.369  0.1187  0.4312 -0.0322
 2520W        W18414   3.178   3.493   4.079 -0.4669  0.0378  0.0922
 2521W        W18415   4.356  12.372   1.015 -0.3048 -0.2098  0.0694
 2522W        W18416  12.332   9.475   1.956 -0.1929  0.1941  0.2002
 2523W        W18417  15.980   0.381   4.704  0.0018 -0.1656 -0.1362
 2524W        W18418   4.740  13.858   5.696 -0.0287  0.0684  0.1640
 2525W        W18419   8.631   6.805   2.316 -0.1619  0.3534  0.2707
 2526W        W18420   6.629   2.330   4.976  0.2655 -0.0257 -0.0485
 2527W        W18421  16.116  13.068   2.576  0.0191 -0.1536  0.0250
 2528W        W18422   5.025  15.580  16.076 -0.0049 -0.4780 -0.0436
 2529W        W18423   3.253  13.722   6.025 -0.0624  0.1042 -0.0418
 2530W        W18424   0.232   7.373   3.580  0.3188  0.1785 -0.0406
 2531W        W18425  13.261  12.009   2.125  0.2076 -0.0849  0.0020
 2532W        W18426  17.096   9.571  15.148  0.2033  0.2916 -0.1762
 2533W        W18427  15.642  16.917   2.408 -0.2471  0.2113 -0.1599
 2534W        W18428   9.903   1.465  15.128 -0.1070  0.1482 -0.0656
 2535W        W18429   5.045  14.680  13.292  0.2135  0.0409 -0.3785
 2536W        W18430  15.652  13.713  15.236 -0.0299  0.1711  0.2257
 2537W        W18431   3.569  12.334  13.414 -0.2083 -0.0987  0.1167
 2538W        W18432   4.069  13.286  11.488  0.2726  0.0029  0.1374
 2539W        W18433  14.991  17.041  16.170 -0.0930  0.0096 -0.1852
 2540W        W18434  11.046   0.168  15.251 -0.2875  0.0427 -0.2408
 2541W        W18435  10.875   3.815  15.024  0.1194  0.1048  0.1706
 2542W        W18436  12.501   3.988  12.184 -0.1093 -0.3091  0.0625
 2543W        W18437  13.608   3.395  14.027 -0.0673 -0.3149  0.3576
 2544W        W18438  14.825   3.225  14.961  0.2926  0.3262 -0.0837
 2545W        W18439   7.721   7.989  12.076  0.0368 -0.0158  0.1280
 2546W        W18440   1.494   5.459  13.635  0.1622  0.1518  0.0176
 2547W        W18441  17.437  11.288   3.224  0.0342 -0.3653 -0.1479
 2548W        W18442   5.205  12.891  13.054 -0.0768 -0.1792 -0.0056
 2549W        W18443   2.319  12.099   2.653 -0.5325  0.3246 -0.2026
 2550W        W18444  11.391   3.695   5.599  0.3089 -0.4722 -0.0219
 2551W        W18445  12.358   1.847  16.865 -0.2984 -0.1913 -0.2077
 2552W        W18446   7.611   6.633  12.321  0.1670  0.1282 -0.4918
 2553W        W18447   0.994  11.102  16.696  0.0908 -0.0989  0.1596
 2554W        W18448   1.546  10.798  16.605 -0.0730 -0.1050  0.1008
 2555W        W18449  14.311  15.543  14.534  0.0701 -0.0067 -0.0441
 2556W        W18450   0.934   4.418   1.165 -0.0341 -0.1126 -0.1230
 2557W        W18451   6.058   2.165  13.816 -0.1751 -0.4026 -0.0518
 2558W        W18452   7.590  15.254  11.990 -0.2833  0.0792 -0.0887
 2559W        W18453   8.200   2.922  15.342  0.2699  0.1947 -0.1122
 2560W        W18454  14.490  12.191  16.770  0.1645  0.1183 -0.0327
 2561W        W18455  15.786  16.560  15.845 -0.0719 -0.1908  0.1985
 2562W        W18456   8.315  10.321  13.898  0.0502 -0.0893 -0.0441
 2563W        W18457  12.957  13.137   2.950  0.0646 -0.1580  0.2727
 2564W        W18458  16.019   3.698  14.494  0.1112 -0.0418 -0.3319
 2565W        W18459   1.762  11.208  16.344 -0.0788 -0.1034  0.0511
 2566W        W18460  16.128   1.795   5.508 -0.0792  0.1159  0.0760
 2567W        W18461   8.051   0.003  14.517 -0.0986 -0.2112 -0.0904
 2568W        W18462   7.748   9.158   1.608 -0.1211 -0.3564 -0.0278
 2569W        W18463  17.534  11.829  12.360  0.0851 -0.3346  0.0366
 2570W        W18464  10.646  14.953  12.591 -0.2460 -0.0077 -0.2221
 2571W        W18465   5.536   2.730  13.019 -0.1080 -0.1963  0.1041
 2572W        W18466  10.383   3.180  15.947 -0.0047  0.2290  0.0986
 2573W        W18467   9.164   0.544  15.744 -0.1040 -0.1481  0.0295
 2574W        W18468  10.349   5.280   4.939  0.1649 -0.0282  0.1152
 2575W        W18469   3.696   7.078  12.213 -0.3462  0.2982  0.1455
 2576W        W18470   5.036   7.800   2.228  0.0585  0.0418  0.0297
 2577W        W18471  15.369  14.212  15.491 -0.1869 -0.0126 -0.3987
 2578W        W18472   1.614   0.987  16.799 -0.0434  0.0995  0.5380
 2579W        W18473  10.278   0.500   2.069  0.3613  0.1913  0.0610
 2580W        W18474  10.784  10.921  16.341  0.4026  0.1297 -0.0437
 2581W        W18475  14.741  10.396  12.785 -0.1409 -0.0012  0.0907
 2582W        W18476   9.851   1.375   0.940 -0.0141 -0.0720  0.0050
 2583W        W18477  12.359   4.195   1.113  0.3309  0.0135  0.3169
 2584W        W18478   8.986  14.946   3.558  0.0951  0.0918 -0.2031
 2585W        W18479  14.631   2.203   0.324  0.2914 -0.3412 -0.0708
 2586W        W18480  12.943  13.387   1.687  0.1748  0.1626 -0.0593
 2587W        W18481   4.025  10.510  13.479  0.0244 -0.0337 -0.0298
 2588W        W18482   6.299   7.706   1.118  0.0251 -0.0812  0.0284
 2589W        W18483   6.686  10.841  11.017  0.1328 -0.1559  0.0898
 2590W        W18484  14.265   8.691  12.438  0.4455  0.1731  0.1689
 2591W        W18485   0.615   3.834  11.667 -0.0643 -0.3763  0.1398
 2592W        W18486   2.861  10.232  15.113 -0.1049  0.2743 -0.0499
 2593W        W18487   6.901   0.563   2.786  0.2087  0.0618 -0.3534
 2594W        W18488  16.662   8.188   1.471 -0.1819  0.0316  0.2092
 2595W        W18489   9.207   3.151  16.389 -0.1594 -0.2094  0.0988
 2596W        W18490  15.472  14.937  16.297  0.1038 -0.0777 -0.1593
 2597W        W18491   2.187   3.334  16.177  0.1000 -0.2132  0.2203
 2598W        W18492   1.026  13.820  12.575  0.0993  0.0549 -0.1818
 2599W        W18493   2.843   3.248  13.177 -0.0351  0.2904 -0.2358
 2600W        W18494   8.336   3.397   5.229  0.0871 -0.0024  0.0448
 2601W        W18495   5.143  15.648  14.696  0.1572  0.2345  0.0287
 2602W        W18496  10.628  14.702  11.781 -0.0274 -0.1019  0.1012
 2603W        W18497  14.183  14.807   1.493 -0.1456  0.0726 -0.2893
 2604W        W18498  14.120   3.613   4.689  0.0333 -0.0671 -0.0277
 2605W        W18499  15.729   7.321  16.481 -0.1929  0.0232 -0.0601
 2606W        W18500   5.358   6.581   1.840  0.1802 -0.3225 -0.0569
 2607W        W18501  12.862  12.716  14.777 -0.0276 -0.0047 -0.1131
 2608W        W18502  15.135  12.312  14.686 -0.0554  0.0258  0.1098
 2609W        W18503  14.329  15.702   4.089 -0.0280 -0.1042  0.3186
 2610W        W18504  16.047   7.869   6.409  0.1331 -0.0687  0.0852
 2611W        W18505   9.460   6.184  15.241  0.0137 -0.0122 -0.1009
 2612W        W18506   6.758  15.027  14.420 -0.4540  0.0164 -0.0007
 2613W        W18507   7.294  15.910  16.184  0.0520  0.1719 -0.3710
 2614W        W18508  11.287  16.289   0.737  0.0013 -0.2499  0.2985
 2615W        W18509  16.356   7.230  14.881 -0.0043 -0.1004  0.1970
 2616W        W18510   0.081  13.010   4.358 -0.0005 -0.3455  0.0221
 2617W        W18511   3.236   3.089  15.743 -0.0116 -0.0287  0.0585
 2618W        W18512   5.498   3.387   1.421 -0.0077  0.0337  0.0049
 2619W        W18513  15.059   9.467   6.338  0.1418  0.0535 -0.0606
 2620W        W18514  12.114   7.683   1.000  0.1134 -0.0389 -0.2964
 2621W        W18515  11.153   4.063  15.669 -0.1987  0.1556  0.0114
 2622W        W18516   0.189  10.205   0.634 -0.1983 -0.0009 -0.1838
 2623W        W18517  16.536   2.728   2.735  0.2945  0.0289  0.4059
 2624W        W18518  12.533  17.266   4.586  0.0688  0.1960  0.1375
 2625W        W18519   3.363   2.389  14.468 -0.1715  0.1614  0.0826
 2626W        W18520  16.948   1.735  14.982 -0.1131 -0.3981 -0.1589
 2627W        W18521  12.215   5.899  16.889 -0.5968 -0.0490 -0.1549
 2628W        W18522  11.039  16.208  16.837  0.1637 -0.0915 -0.1493
 2629W        W18523  15.192   7.348  13.731 -0.1822 -0.0659 -0.1131
 2630W        W18524   2.095  12.848  13.975  0.0266  0.1482 -0.0637
 2631W        W18525   9.249   9.816   3.119  0.2089 -0.3349  0.0399
 2632W        W18526   8.999   3.868  14.332 -0.0876 -0.1629  0.0703
 2633W        W18527  14.332   6.219   0.611  0.1525  0.1751  0.0633
 2634W        W18528   9.456  10.135  16.130 -0.2331 -0.0811  0.0484
 2635W        W18529   2.515  11.789   5.117 -0.2152  0.0721  0.1111
 2636W        W18530   1.942  16.228   2.655  0.2575  0.1529  0.2209
 2637W        W18531  12.991  12.959  15.546  0.1192  0.0989 -0.2476
 2638W        W18532   5.279   6.471  13.840  0.2694 -0.0461 -0.0152
 2639W        W18533   9.047  15.816   3.496  0.0011 -0.0068 -0.0037
 2640W        W18534   8.959   3.516  15.558  0.2374  0.0681  0.4246
 2641W        W18535   2.181  14.351  16.269  0.3877  0.1670  0.1302
 2642W        W18536   5.006  10.718   3.996 -0.1987  0.0231 -0.1025
 2643W        W18537   7.869  14.614   4.563  0.2238 -0.0956  0.0368
 2644W        W18538   6.918   4.942   0.051  0.0129 -0.0336 -0.2242
 2645W        W18539   9.559  11.143  13.531 -0.1470 -0.2265 -0.0961
 2646W        W18540   1.295  13.924   1.096  0.3865  0.0322 -0.0249
 2647W        W18541   1.895   0.598   6.345 -0.0705  0.2832  0.2611
 2648W        W18542   5.097   1.593   5.060 -0.2125  0.3220  0.3182
 2649W        W18543  12.746   6.078   3.094  0.4577  0.0043  0.2410
 2650W        W18544   5.557  16.009   0.374 -0.0763  0.2437  0.1094
 2651W        W18545  11.220   8.520   0.356  0.3034  0.1399  0.0926
 2652W        W18546   8.706   6.274  11.999 -0.1174  0.1343  0.0121
 2653W        W18547   2.584   1.287   6.405 -0.0791  0.3923 -0.1316
 2654W        W18548   1.559   2.734   3.867  0.2249  0.0156  0.0167
 2655W        W18549  11.787   7.965  12.567  0.0090 -0.0255 -0.0685
 2656W        W18550   5.257   2.123  16.120 -0.0802 -0.0675 -0.1218
 2657W        W18551  10.198   7.596  11.727  0.0663  0.0253  0.2087
 2658W        W18552   5.042   4.518   3.012 -0.1660 -0.0634  0.2139
 2659W        W18553  14.328  10.659   0.616 -0.0161  0.0066  0.1613
 2660W        W18554  10.854   1.430   4.410 -0.2533  0.2197 -0.4758
 2661W        W18555   0.039   9.736  13.428  0.0633  0.1231  0.0207
 2662W        W18556   7.053   2.949   1.900  0.2995  0.0436  0.3688
 2663W        W18557   2.998  12.915   3.687  0.1241  0.4846 -0.1596
 2664W        W18558   8.196   8.156  10.842  0.1354 -0.4971  0.0785
 2665W        W18559   6.578  13.115  13.416 -0.0976 -0.3079 -0.2846
 2666W        W18560  13.356  16.482   5.236 -0.1463  0.2619 -0.0115
 2667W        W18561  16.648   4.235   5.756 -0.1552  0.3321 -0.0777
 2668W        W18562   1.972  15.379   3.123 -0.0097 -0.2856  0.1936
 2669W        W18563  11.997  15.066  13.229  0.0663  0.0646  0.0766
 2670W        W18564  10.370  15.250  13.273 -0.1384 -0.0365  0.1996
 2671W        W18565  14.026  10.760   1.904  0.0275  0.1152  0.4090
 2672W        W18566   5.207  14.788  14.162  0.0922  0.1730 -0.0198
 2673W        W18567  13.352  15.852  15.649  0.1915 -0.1492 -0.0153
 2674W        W18568   8.721   5.346   2.052  0.0189  0.0830  0.0587
 2675W        W18569  15.394  12.687   1.441  0.1547  0.0563 -0.0427
 2676W        W18570   2.986  14.392  13.161 -0.0213  0.2212  0.3077
 2677W        W18571   1.413  10.026  11.446 -0.0214  0.0693 -0.0971
 2678W        W18572  17.109   6.316  13.620 -0.3998 -0.1437  0.0192
 2679W        W18573   0.967   5.409   1.641 -0.0184 -0.0950  0.0236
 2680W        W18574  13.243   6.528   2.085  0.0386  0.0294 -0.0744
 2681W        W18575   2.657  15.845  14.062 -0.0138  0.1658  0.0912
 2682W        W18576   7.680   0.477   5.215  0.0053  0.3184  0.1196
 2683W        W18577   5.029   4.639  13.232 -0.1043 -0.0301 -0.0191
 2684W        W18578   5.871   6.950  16.661 -0.2701  0.2421  0.0274
 2685W        W18579  16.812   3.725   4.930 -0.2193 -0.0355 -0.2240
 2686W        W18580   9.205   9.395   2.881 -0.0802  0.1617  0.2561
 2687W        W18581   6.047  14.090   1.616  0.1394 -0.1912 -0.0337
 2688W        W18582  10.823  15.371  14.062  0.0617  0.2573 -0.0463
 2689W        W18583  13.475  11.421  13.017  0.3727  0.4235  0.0814
 2690W        W18584   0.086  10.440   4.664  0.0861 -0.3708 -0.1826
 2691W        W18585   1.821  17.601   3.186 -0.1102  0.4743  0.3018
 2692W        W18586   9.979   8.483  15.822 -0.0812 -0.0553  0.0745
 2693W        W18587   3.634   0.024  12.174 -0.0397 -0.1652  0.1247
 2694W        W18588   5.795  13.429   5.439 -0.0012  0.2752  0.2299
 2695W        W18589   1.447   4.962  16.841 -0.0387 -0.0994 -0.2063
 2696W        W18590   5.607   2.199   2.090  0.0024 -0.0206 -0.1609
 2697W        W18591   7.152  13.375  14.045  0.1708  0.1733  0.1047
 2698W        W18592  17.449  13.272  10.813  0.0953 -0.0054 -0.2690
 2699W        W18593  16.524   3.755   5.449 -0.0458 -0.1567  0.2263
 2700W        W18594  14.309  13.297  15.786  0.1229 -0.1762 -0.0570
 2701W        W18595  14.632   9.703   4.025 -0.0814 -0.2196 -0.0024
 2702W        W18596  17.108  16.210  16.397 -0.1588  0.1375 -0.0299
 2703W        W18597   7.610  14.866  14.398  0.0583  0.0725  0.1795
 2704W        W18598   5.557   3.938   0.887  0.2057 -0.4411 -0.3480
 2705W        W18599   8.021  11.190   1.790  0.3191 -0.3071  0.2869
 2706W        W18600   4.553  17.803   0.651  0.2233 -0.1250 -0.0274
 2707W        W18601   7.898   2.167  10.452  0.0145  0.3267 -0.1769
 2708W        W18602  16.028  17.161   0.805  0.1786 -0.1110  0.1002
 2709W        W18603   6.420   0.135   0.736 -0.2702  0.1336 -0.1836
 2710W        W18604   1.966  11.782  15.602  0.1271 -0.2307  0.1488
 2711W        W18605   6.475   5.196  13.750 -0.2400 -0.1420  0.0143
 2712W        W18606   3.160   4.949  15.472  0.2499  0.3522  0.0563
 2713W        W18607   4.692   3.507   2.191  0.0395  0.0565  0.2400
 2714W        W18608  15.913   8.302   5.089  0.1566 -0.0305  0.2203
 2715W        W18609   3.295   8.433   1.276  0.1777  0.2000  0.2015
 2716W        W18610   5.942   2.447   3.249  0.4299  0.1529 -0.1071
 2717W        W18611   6.184   6.136   2.168 -0.0955  0.0101  0.2614
 2718W        W18612  12.348   3.120   5.187  0.2617  0.1281  0.0321
 2719W        W18613  17.457  17.489  14.201  0.3834  0.0759 -0.2824
 2720W        W18614   3.302  16.627  14.458 -0.2428 -0.0449  0.0655
 2721W        W18615   8.347   3.929   5.231  0.2134 -0.1536 -0.0423
 2722W        W18616  14.430   8.306   5.818 -0.1915 -0.2394 -0.4650
 2723W        W18617   7.735  13.370   1.882 -0.2697  0.1608  0.2183
 2724W        W18618   3.681  17.779  14.294  0.1161  0.0716 -0.1229
 2725W        W18619  12.754   1.471  15.747  0.1789 -0.0843 -0.1667
 2726W        W18620   0.621   0.992   4.457 -0.2245  0.2135  0.2153
 2727W        W18621  10.367  13.727   2.661 -0.0946  0.0675  0.0388
 2728W        W18622   4.082   6.550   4.541  0.2305 -0.1076  0.3803
 2729W        W18623   4.256  12.465  12.294 -0.2311  0.0160 -0.0313
 2730W        W18624   0.353   3.788  16.132 -0.0981 -0.1202 -0.0598
 2731W        W18625  13.482  15.475   1.480  0.0224 -0.1054 -0.1306
 2732W        W18626   2.017   1.620   3.664 -0.2724 -0.0058  0.1740
 2733W        W18627  15.201  14.781   4.523 -0.0202  0.0358  0.1374
 2734W        W18628   0.472   7.325   1.570 -0.3820  0.2150 -0.0920
 2735W        W18629  11.808  12.185  16.553 -0.0697  0.2656  0.2263
 2736W        W18630  15.702  11.322  14.174  0.2791 -0.3031  0.0114
 2737W        W18631   3.227  11.485   2.169  0.0040  0.2842 -0.0746
 2738W        W18632   9.073   4.808   0.879  0.0338 -0.0193  0.0102
 2739W        W18633  12.697   6.174   1.657  0.1573  0.0357 -0.0491
 2740W        W18634   7.288   3.127  15.228 -0.3727  0.0107  0.2798
 2741W        W18635  17.448  14.856  14.204  0.4582 -0.1390 -0.0938
 2742W        W18636   3.232  11.090  15.177 -0.3235  0.0375 -0.1146
 2743W        W18637   6.263  14.891  13.195  0.1712 -0.0185 -0.0213
 2744W        W18638   5.426  10.936   0.905  0.1906 -0.2068  0.1611
 2745W        W18639  17.178  14.482   4.610 -0.3137 -0.1265  0.0873
 2746W        W18640   1.940   5.610  12.032 -0.0677  0.1089  0.0681
 2747W        W18641   7.923   2.675   5.262  0.4084  0.1401  0.0623
 2748W        W18642  17.248   9.662   0.658  0.1794 -0.2698 -0.2370
 2749W        W18643   2.156   6.967  14.869 -0.1324 -0.2349  0.0041
 2750W        W18644   8.663   4.256  14.319  0.1227 -0.1200 -0.0998
 2751W        W18645   7.088  16.735  16.208 -0.0486  0.0037 -0.0104
 2752W        W18646   2.258   6.380  15.946 -0.0400  0.0239 -0.0400
 2753W        W18647  11.283  10.890  11.706  0.1205  0.1065 -0.0221
 2754W        W18648   6.326  15.035   1.155  0.1144  0.1156  0.4178
 2755W        W18649  15.213   2.120   1.926  0.3289 -0.0609  0.2678
 2756W        W18650   0.912  16.354  12.979 -0.1308  0.1045  0.0410
 2757W        W18651  12.995   7.840   5.262  0.0329  0.2673  0.0986
 2758W        W18652  11.864   2.625  12.009 -0.0576 -0.2342 -0.0010
 2759W        W18653  12.920   3.481  16.421 -0.3217 -0.0152  0.1324
 2760W        W18654   4.838   4.463  15.430 -0.2894 -0.2070 -0.1215
 2761W        W18655   9.051  14.769   2.461  0.0825 -0.4430  0.1511
 2762W        W18656   9.763  10.194   2.287 -0.1359 -0.1117  0.0562
 2763W        W18657   8.534  14.059   6.143 -0.0200  0.0849 -0.0434
 2764W        W18658   0.161  14.490  15.009 -0.1615 -0.1457  0.0894
 2765W        W18659   9.666  11.695   2.182 -0.1194  0.0894  0.2285
 2766W        W18660   6.488  11.859  13.622  0.2059 -0.2486  0.2686
 2767W        W18661   8.371   9.132  12.183  0.0356  0.0211  0.2680
 2768W        W18662   8.814  14.339   0.307 -0.2001 -0.0254 -0.3555
 2769W        W18663   3.500   9.031  16.245  0.1643 -0.1879  0.0046
 2770W        W18664   6.853  10.677  14.110 -0.1918 -0.1201  0.1294
 2771W        W18665   3.221   2.433  12.429  0.1128 -0.0834  0.1236
 2772W        W18666   4.966   9.057   1.354 -0.4441  0.1726  0.1030
 2773W        W18667   5.319   1.210   4.277  0.1309 -0.2471 -0.1049
 2774W        W18668   6.135   1.316  11.656 -0.0179  0.0710  0.0388
 2775W        W18669   4.905   4.234  13.931 -0.0045  0.1669  0.1636
 2776W        W18670   5.636   4.575   5.526 -0.1236  0.0883  0.1213
 2777W        W18671   9.527   2.170   0.878  0.0229 -0.1842  0.1538
 2778W        W18672   3.562   1.173  14.996 -0.1312 -0.1091 -0.0871
 2779W        W18673   9.784   1.806  13.611 -0.0665  0.1918  0.1709
 2780W        W18674  16.653  14.150  13.035 -0.0241 -0.0544  0.0938
 2781W        W18675   1.157  14.314   4.742 -0.1219 -0.0408 -0.2380
 2782W        W18676  12.933  16.386   1.255  0.2142 -0.1090  0.0484
 2783W        W18677  10.433   5.559  16.770 -0.1380 -0.2016  0.1373
 2784W        W18678   5.777   5.003   3.043  0.0055  0.1297  0.4803
 2785W        W18679   9.789  11.821  15.451  0.0257  0.2866 -0.2936
 2786W        W18680  13.616   5.455  15.737 -0.0459  0.1207 -0.0365
 2787W        W18681   7.797   8.835   0.690  0.2637  0.0631  0.2052
 2788W        W18682   4.447  15.617  15.442  0.1276  0.1933 -0.2363
 2789W        W18683  11.401  12.891   4.948  0.2021  0.2916 -0.1398
 2790W        W18684   9.968   6.455  15.520  0.2076  0.2319 -0.1369
 2791W        W18685   2.128   9.082  16.801 -0.0025 -0.1645 -0.2514
 2792W        W18686   8.613  11.355   4.053 -0.0316 -0.0300 -0.0005
 2793W        W18687   2.339   2.486   5.551  0.2239 -0.1930 -0.3045
 2794W        W18688  10.888   7.192   1.230  0.0198 -0.0735  0.1194
 2795W        W18689  14.164   4.613   0.887  0.0739  0.0402 -0.1483
 2796W        W18690  14.344   7.211  16.027  0.2189  0.0126  0.1481
 2797W        W18691   5.546  11.627   2.098 -0.1299  0.0924 -0.4451
 2798W        W18692  12.581   5.577  14.466 -0.2949 -0.2157 -0.2084
 2799W        W18693   6.173   8.480   4.535 -0.0300 -0.0744 -0.0185
 2800W        W18694  17.502   5.768   2.691  0.0287  0.2762  0.1073
 2801W        W18695  16.976  13.681  14.918  0.1286 -0.0757  0.0419
 2802W        W18696  12.526  15.339   5.284 -0.0892  0.0265 -0.0860
 2803W        W18697  15.110  11.080  15.982 -0.0721  0.1088  0.1753
 2804W        W18698  16.156   0.053   1.561 -0.2281 -0.0528  0.1311
 2805W        W18699  12.754   6.511  13.442  0.2061  0.0949  0.2709
 2806W        W18700   4.211   2.668  11.377 -0.0827 -0.3246  0.2401
 2807W        W18701  16.702  12.339  16.740 -0.2005 -0.1690  0.1194
 2808W        W18702   3.215   8.482   5.007 -0.2315 -0.0398  0.1242
 2809W        W18703  14.780  14.985  14.011 -0.0433  0.0105  0.3086
 2810W        W18704   7.871  13.197   5.000  0.2023  0.0164  0.2503
 2811W        W18705   8.690   9.564  13.224 -0.1097 -0.1206 -0.0185
 2812W        W18706   7.815  11.021  10.763 -0.2714 -0.0796 -0.2645
 2813W        W18707  15.917   4.939   1.388  0.1033 -0.0966 -0.1596
 2814W        W18708   1.042   7.017   2.023 -0.0352 -0.0111 -0.0589
 2815W        W18709  12.934  14.327   1.386 -0.2251  0.1545  0.1352
 2816W        W18710   0.267  17.389  14.681  0.0121 -0.0726  0.1593
 2817W        W18711  10.353   0.395   5.625 -0.0661  0.1519 -0.0679
 2818W        W18712   6.917   0.242   3.306 -0.0585 -0.1912  0.2049
 2819W        W18713  11.799  14.135   2.459  0.0354 -0.3043 -0.0872
 2820W        W18714  17.699   6.146  16.162 -0.1607  0.0105 -0.1401
 2821W        W18715   3.197   1.315   1.016  0.2541  0.0217 -0.1331
 2822W        W18716   7.295  12.673  13.277  0.0560  0.1306  0.1533
 2823W        W18717   0.882   1.563  15.390  0.2208 -0.0273 -0.0891
 2824W        W18718   0.744   1.873  13.840  0.1894 -0.1660  0.1825
 2825W        W18719   2.161   3.023   0.100  0.0203 -0.1121  0.1104
 2826W        W18720   1.532  15.182  11.665 -0.0542  0.0118  0.1814
 2827W        W18721  11.980   9.463   0.682 -0.1642  0.0994 -0.0839
 2828W        W18722   2.816  17.213   2.907  0.1139  0.1643 -0.1117
 2829W        W18723   1.859   8.122   4.919  0.2620  0.0727 -0.2052
 2830W        W18724   4.183   0.715   1.436  0.0031 -0.2365 -0.2027
 2831W        W18725  12.669   5.167   1.609 -0.0638  0.1388  0.0336
 2832W        W18726  15.841   9.421   0.167  0.0451 -0.1210 -0.2766
 2833W        W18727   0.574   5.557  16.307  0.0240 -0.0813 -0.1662
 2834W        W18728   1.820   0.764  12.984  0.4407  0.1459  0.1614
 2835W        W18729   9.358   5.638  11.762 -0.1542 -0.1545  0.2091
 2836W        W18730   8.007   6.266   5.001  0.1094  0.1323 -0.0893
 2837W        W18731  12.275   1.712   2.422  0.0769 -0.3475  0.1803
 2838W        W18732  13.068   9.638   3.526 -0.0195 -0.1797 -0.0642
 2839W        W18733   7.366   8.977  14.587  0.2568  0.0248  0.1722
 2840W        W18734  17.610  17.069   6.003  0.0418 -0.0701 -0.2335
 2841W        W18735  14.077  15.732   2.670  0.0480  0.1765  0.0598
 2842W        W18736  10.074  15.686  13.613 -0.0407 -0.1470 -0.1654
 2843W        W18737   9.147   3.200  11.387 -0.1200  0.2157 -0.0293
 2844W        W18738  17.694  12.769   4.718  0.2170 -0.1175 -0.0530
 2845W        W18739  12.593  11.249   4.849 -0.1748  0.0072 -0.0688
 2846W        W18740   8.973  13.097  12.954 -0.0334 -0.2410  0.3571
 2847W        W18741   4.163  17.822  12.375 -0.1131  0.0072 -0.1600
 2848W        W18742   9.046   3.867   3.662  0.0240 -0.0111 -0.1606
 2849W        W18743  10.501  17.762  15.074  0.1900 -0.1657 -0.1664
 2850W        W18744   4.322   8.210   4.029  0.0989  0.2668  0.1797
 2851W        W18745   3.139  10.565   5.209  0.1387  0.0037  0.0202
 2852W        W18746  11.745  13.233  14.239 -0.1033  0.2082  0.0401
 2853W        W18747   0.895  15.143   1.809  0.3942 -0.0043 -0.0833
 2854W        W18748   2.392   9.358  11.785 -0.3057 -0.2744 -0.0936
 2855W        W18749   5.243   2.203   2.899 -0.0463  0.2608 -0.0294
 2856W        W18750   0.740   3.426  12.393 -0.0237  0.0231 -0.0849
 2857W        W18751   7.572   9.509  16.276  0.2043 -0.0876 -0.1959
 2858W        W18752  16.976   4.691   1.215  0.1756  0.0033 -0.0704
 2859W        W18753   6.889   2.590   3.265 -0.0199  0.1052 -0.1721
 2860W        W18754   2.813   6.654   3.877  0.0420  0.1059  0.2594
 2861W        W18755  15.481  17.006  14.526  0.1797  0.1048 -0.3617
 2862W        W18756  16.029   2.157   4.950  0.0244 -0.1605  0.2544
 2863W        W18757  15.191   0.312   0.043 -0.0468 -0.1413 -0.2278
 2864W        W18758   8.987   6.391  15.876  0.1111 -0.1328 -0.0777
 2865W        W18759  12.431  10.183   6.174  0.3230  0.1688  0.2144
 2866W        W18760  12.723   0.771   0.746  0.0255 -0.1299 -0.0788
 2867W        W18761   3.051   7.983   0.998 -0.3228  0.0541  0.0293
 2868W        W18762   8.692  12.385  15.721 -0.2306 -0.1616  0.3540
 2869W        W18763  14.761   9.717   5.405 -0.0238 -0.1764  0.3330
 2870W        W18764   9.296   3.067   1.475  0.0095  0.1365  0.0614
 2871W        W18765   4.014  10.452  14.597 -0.0324  0.1754 -0.0450
 2872W        W18766  14.894   9.686   2.250  0.0914  0.2022  0.2741
 2873W        W18767   1.080   3.863  11.802 -0.1768 -0.2617  0.3278
 2874W        W18768   6.553   4.362   2.837 -0.0035 -0.0028  0.2131
 2875W        W18769   0.015   4.224  15.063 -0.2165 -0.3293 -0.3526
 2876W        W18770   0.634  12.543   0.891  0.0786  0.0641  0.2309
 2877W        W18771   9.765  12.059  11.514 -0.0794  0.0572 -0.2562
 2878W        W18772  16.132   9.489   5.306  0.3146  0.2377 -0.0714
 2879W        W18773   2.010  11.923   5.176  0.0242 -0.0411 -0.1294
 2880W        W18774  14.605  13.074   2.419 -0.1628  0.1135 -0.1064
 2881W        W18775   3.392  14.095   2.019 -0.3192  0.1860  0.0848
 2882W        W18776   9.988   5.968  13.108 -0.2552  0.0425  0.0690
 2883W        W18777   4.258   0.242   4.755 -0.0757 -0.0990  0.0010
 2884W        W18778  15.851   7.319  14.721  0.2139 -0.1765 -0.2030
 2885W        W18779  14.443  16.371  11.747 -0.0644 -0.0211  0.3611
 2886W        W18780  16.590  14.000  14.792  0.1184  0.3637  0.1688
 2887W        W18781   6.598  16.950   0.556 -0.0533 -0.0683 -0.1047
 2888W        W18782   4.718   1.317   2.916  0.1491 -0.3059  0.0950
 2889W        W18783   1.741   2.040   0.967 -0.1502 -0.0298 -0.1418
 2890W        W18784  16.787   7.163  12.289 -0.0470  0.0211 -0.1774
 2891W        W18785  12.424   4.955   3.229  0.3150  0.4010  0.2918
 2892W        W18786  14.275   9.120   5.049 -0.1489 -0.0297  0.2238
 2893W        W18787  10.498   6.955   2.615 -0.2930 -0.0227 -0.0373
 2894W        W18788  13.803  17.530  14.622  0.0912  0.2074 -0.0588
 2895W        W18789   5.056   7.534   4.221  0.0457  0.0232 -0.1698
 2896W        W18790   9.826  17.811  16.871  0.3271 -0.0328  0.2559
 2897W        W18791  17.057  14.182   1.509  0.1703 -0.1297 -0.1016
 2898W        W18792   3.697   0.413  11.899 -0.2046  0.0076  0.3096
 2899W        W18793   9.356   3.034   3.463 -0.2178 -0.1348 -0.2197
 2900W        W18794   3.866   7.260  12.934 -0.3139  0.2693  0.1153
 2901W        W18795   0.828   6.816  15.571  0.1508 -0.0906  0.2167
 2902W        W18796   6.345   5.124   3.017  0.0404 -0.4382  0.2249
 2903W        W18797   4.633   7.625   4.533 -0.1551 -0.2562 -0.1974
 2904W        W18798   8.150  15.164  15.291  0.2221 -0.0612  0.2398
 2905W        W18799   7.222  12.506   5.286  0.2373  0.1082 -0.0372
 2906W        W18800  10.811   2.809   2.181  0.0120  0.0677  0.0631
 2907W        W18801   2.371  13.834  16.419 -0.0607 -0.0248 -0.0974
 2908W        W18802  13.473  10.584   4.576  0.1692  0.2106  0.0270
 2909W        W18803   6.619  16.289  12.323  0.2091 -0.1308 -0.1265
 2910W        W18804   2.934  16.135   4.827  0.1626  0.3337 -0.4291
 2911W        W18805  13.897   6.618  12.853  0.1751 -0.1086  0.2051
 2912W        W18806  14.114  12.207  14.603  0.1680  0.0379 -0.1745
 2913W        W18807   9.096   8.963   5.881 -0.1148 -0.2179 -0.0342
 2914W        W18808   1.543  11.980   0.460 -0.2835 -0.0757 -0.2878
 2915W        W18809   2.903  13.935   2.860 -0.3596  0.0503 -0.0300
 2916W        W18810  11.985  11.300  16.513  0.0451 -0.0397  0.0878
 2917W        W18811   9.380  15.649   4.655  0.0109 -0.3770  0.0078
 2918W        W18812   5.416   0.653  11.581  0.2378  0.1128  0.0835
 2919W        W18813   9.296  10.844   3.913  0.0130 -0.0100  0.2279
 2920W        W18814   7.914   0.090  16.435 -0.1063  0.1191  0.0404
 2921W        W18815  11.078   1.538  11.734  0.1775 -0.0552 -0.1754
 2922W        W18816   9.612   6.773   0.288 -0.0405  0.1555  0.1592
 2923W        W18817  10.904   5.286   4.598 -0.3013  0.1685  0.4572
 2924W        W18818  14.781   8.205   3.100 -0.1899  0.0166 -0.0324
 2925W        W18819  13.052   9.770   4.018 -0.2567 -0.0569  0.1521
 2926W        W18820   1.330   2.327  11.524 -0.4683  0.0897  0.5294
 2927W        W18821  12.588   0.560   3.748 -0.1330 -0.0557 -0.1360
 2928W        W18822  11.011  16.065   1.620  0.0542  0.1059 -0.2457
 2929W        W18823  12.417   3.840  15.831  0.2172 -0.3806 -0.0872
 2930W        W18824  17.389  11.393   5.243  0.1787  0.0892 -0.4575
 2931W        W18825   6.713   4.620   3.674  0.0660 -0.0264  0.3064
 2932W        W18826  15.834   0.354  11.631  0.0076 -0.0399  0.2629
 2933W        W18827  10.866  16.832  15.047 -0.2754  0.2717  0.2366
 2934W        W18828  17.429   3.132   4.231  0.0453  0.0564 -0.2189
 2935W        W18829   3.008   6.355  13.913 -0.3108 -0.0395 -0.1480
 2936W        W18830   2.679  15.194  14.844 -0.1060  0.0630  0.0184
 2937W        W18831  16.388  10.252   5.330  0.1967 -0.1724 -0.1363
 2938W        W18832   7.552  10.890   4.855  0.3906 -0.2968  0.0014
 2939W        W18833  11.681   6.008   1.372  0.0201 -0.1769  0.0310
 2940W        W18834   2.868   8.600   2.778 -0.0064  0.1620 -0.2935
 2941W        W18835  10.359  13.394  14.137 -0.2645 -0.1107 -0.1923
 2942W        W18836   8.287  16.733  13.158  0.0615  0.1837 -0.5717
 2943W        W18837   0.949   4.041  12.583  0.0640  0.1424  0.0676
 2944W        W18838   1.796  13.093  13.581  0.0692  0.2731  0.3465
 2945W        W18839  11.370   4.516  15.570 -0.1628 -0.2475  0.1163
 2946W        W18840   8.095   8.481   4.425 -0.0700  0.0939 -0.0746
 2947W        W18841   4.721   0.173  13.510  0.2370  0.2883  0.1239
 2948W        W18842  13.915   8.316  12.684 -0.1359  0.1698  0.0828
 2949W        W18843   3.074   0.498  14.798  0.0846  0.2133  0.1808
 2950W        W18844   3.201  14.346   5.631  0.0472  0.1106 -0.2318
 2951W        W18845   1.517  14.913   4.120  0.1982  0.1637  0.0423
 2952W        W18846  15.771  14.180  15.140 -0.0684 -0.0302  0.0231
 2953W        W18847   7.458  12.865   4.403 -0.0508  0.1742 -0.0557
 2954W        W18848  14.630  14.730   3.102 -0.0906 -0.1926  0.1077
 2955W        W18849   0.067   0.363   1.742  0.2848 -0.1506  0.1408
 2956W        W18850   3.138  11.938  15.676  0.3488 -0.0247 -0.2140
 2957W        W18851   0.761   9.612   1.096  0.2625 -0.1439  0.0142
 2958W        W18852  15.204   4.011  13.977  0.2703  0.1571 -0.3104
 2959W        W18853   7.799  15.337   2.817  0.1923  0.1570  0.0623
 2960W        W18854  12.973   5.452  16.907  0.0237 -0.3011 -0.2189
 2961W        W18855  12.301  15.535  12.895  0.0157  0.2043 -0.1845
 2962W        W18856  11.164   3.459   4.400  0.1231 -0.1552 -0.0171
 2963W        W18857   6.170  13.398   3.210 -0.0062 -0.0204  0.1597
 2964W        W18858  16.247  15.950   5.548 -0.0505 -0.1161  0.0530
 2965W        W18859   8.009   0.553   5.956  0.2086 -0.3500  0.0196
 2966W        W18860   3.776   6.298   4.151 -0.0224 -0.3093  0.0288
 2967W        W18861  11.060  10.201  13.498 -0.2329 -0.0730 -0.2842
 2968W        W18862   3.286   8.155   2.492  0.1092  0.1755  0.0793
 2969W        W18863  11.395   9.715   0.842  0.1299  0.3429 -0.2152
 2970W        W18864   9.287  16.135  14.122 -0.2663 -0.3386 -0.1007
 2971W        W18865   1.927   3.689  13.131 -0.4926 -0.2859  0.0653
 2972W        W18866  11.642  10.932  13.305 -0.0886 -0.0087 -0.1073
 2973W        W18867   3.594   9.276  13.234  0.0853  0.1559  0.1092
 2974W        W18868   1.931   1.282  14.964  0.0257 -0.0278 -0.1697
 2975W        W18869   8.313   3.164  14.890 -0.0803 -0.1309  0.0227
 2976W        W18870   3.037  16.983  12.881 -0.1441 -0.0309  0.2472
 2977W        W18871   6.131   7.738   3.168  0.1835 -0.0823  0.1085
 2978W        W18872  11.170   5.085  15.112  0.2121  0.0381 -0.0359
 2979W        W18873  16.005   1.630   0.086  0.1744 -0.1459  0.0055
 2980W        W18874   2.092  12.738   2.093  0.4750 -0.3738 -0.0547
 2981W        W18875   1.472  11.721  15.372 -0.2789 -0.1299  0.0494
 2982W        W18876  15.260   9.513   1.329 -0.0184  0.1705  0.1349
 2983W        W18877  15.372   3.641  11.786 -0.1178  0.0367  0.2918
 2984W        W18878   6.162   2.571  15.101 -0.1780  0.1281 -0.3551
 2985W        W18879   5.444  16.992   6.484  0.0531 -0.0120  0.0097
 2986W        W18880  10.450  14.010  12.877 -0.0972 -0.1027  0.2647
 2987W        W18881   1.550   5.085  14.031 -0.0853 -0.0897 -0.1270
 2988W        W18882   0.368   3.878   4.465 -0.0728 -0.4376 -0.1534
 2989W        W18883  10.515  11.563   4.183  0.1369  0.0877  0.0452
 2990W        W18884  14.179   4.118   4.163  0.0328  0.1923  0.0068
 2991W        W18885   0.861  14.395  13.460 -0.0171  0.2770 -0.2003
 2992W        W18886   8.924   8.827  11.887 -0.1043  0.0526 -0.0863
 2993W        W18887  11.652   7.975   4.449  0.1532  0.0635  0.1741
 2994W        W18888   6.429  10.512  16.813 -0.0573 -0.2457 -0.0714
 2995W        W18889  12.651  12.799  13.862 -0.0281 -0.1663 -0.0573
 2996W        W18890   7.256  14.271  14.488  0.0351 -0.2218  0.2398
 2997W        W18891   1.390   4.128  13.863  0.0810 -0.2304  0.0880
 2998W        W18892   0.703  16.849   5.773 -0.1458 -0.2207  0.0058
 2999W        W18893  12.117  17.034   0.821 -0.4214  0.0633 -0.2057
 3000W        W18894   4.592  17.128  14.913 -0.2187 -0.0139  0.3251
 3001W        W18895   5.293  15.150  16.341 -0.1493  0.1209  0.1183
 3002W        W18896  13.465  10.144  14.504  0.0952 -0.1608 -0.2242
 3003W        W18897  15.589  14.376   4.407  0.0906 -0.1660  0.0915
 3004W        W18898   3.420  10.697  16.093  0.0761  0.2079 -0.1025
 3005W        W18899  11.698   3.377   1.833  0.4435  0.0453  0.0822
 3006W        W18900  13.849   6.797  11.890  0.1529 -0.1786 -0.0478
 3007W        W18901  17.775   7.685   2.636  0.2482  0.3163 -0.2554
 3008W        W18902   3.816   6.942   1.500  0.0021  0.0386  0.0513
 3009W        W18903   1.671  13.785   0.617  0.0977  0.0336 -0.3190
 3010W        W18904  16.819   7.739  15.801  0.1952  0.0502 -0.0110
 3011W        W18905   4.376  10.702  16.137 -0.0227 -0.1580 -0.2799
 3012W        W18906  12.945   5.414   0.614  0.1913  0.0122  0.0809
 3013W        W18907   3.840   2.861  16.014  0.0496 -0.1191 -0.1819
 3014W        W18908  13.316   6.129   0.041 -0.3391 -0.0666 -0.3577
 3015W        W18909  15.824  12.745  16.724  0.0654  0.1665 -0.0905
 3016W        W18910  14.708  17.799   1.711 -0.0043 -0.2945 -0.1039
 3017W        W18911   3.334   6.173   1.140  0.0589  0.1406  0.1222
 3018W        W18912  15.844  10.441   3.119  0.0192 -0.1417  0.0300
 3019W        W18913   8.992  13.740  15.973  0.1394  0.2013 -0.0084
 3020W        W18914   9.545  13.578   1.503  0.0894  0.1695 -0.0029
 3021W        W18915  11.958  17.594   3.921 -0.1855 -0.0934  0.1468
 3022W        W18916   1.284  11.991  12.892  0.0242 -0.0535 -0.0976
 3023W        W18917   3.239  16.981   5.188 -0.0397 -0.2217 -0.0728
 3024W        W18918  14.812  10.831   2.643 -0.2063 -0.0890  0.1538
 3025W        W18919   2.722  12.639  13.279  0.0901 -0.0585 -0.1593
 3026W        W18920   6.849  17.169  13.595 -0.1298  0.1607 -0.0783
 3027W        W18921  12.751  16.643  14.678  0.1305 -0.0849 -0.0828
 3028W        W18922  12.297   3.368  12.591  0.2058  0.0173  0.1537
 3029W        W18923  17.631  12.481   5.177 -0.2427 -0.0911  0.0340
 3030W        W18924   1.068   9.241   4.173  0.0298  0.0704 -0.2544
 3031W        W18925  16.862   1.181  15.807  0.1014  0.0028  0.0838
 3032W        W18926  10.108   3.799   0.143 -0.0883 -0.2272  0.2175
 3033W        W18927   9.338  11.904  11.301  0.0896 -0.0264 -0.1473
 3034W        W18928   2.098  10.298   3.643  0.2937  0.2064  0.2631
 3035W        W18929  10.239   6.523   4.628  0.1372 -0.0603 -0.3293
 3036W        W18930   1.822  17.513  15.500 -0.2188  0.2246 -0.2776
 3037W        W18931  12.436  12.952   0.364  0.2110  0.1574  0.0280
 3038W        W18932   3.154   2.178  16.229 -0.0335  0.0983 -0.3429
 3039W        W18933  10.728  14.226  13.267 -0.1485  0.0534  0.2505
 3040W        W18934   0.393   6.891   3.809  0.1294  0.0075 -0.0642
 3041W        W18935  10.562   5.820  11.882 -0.0965  0.0790 -0.0492
 3042W        W18936  13.483  15.350   0.393 -0.0344  0.2728  0.0920
 3043W        W18937  13.976  11.933   2.520 -0.2451 -0.1702 -0.0944
 3044W        W18938   3.504   0.422   5.234 -0.0992 -0.0252 -0.1880
 3045W        W18939   5.969   3.425  13.595 -0.0688 -0.2120 -0.1150
 3046W        W18940  12.068   3.797   5.444 -0.0422 -0.2104 -0.1385
 3047W        W18941   5.834   7.831   0.133 -0.1557 -0.1162  0.1812
 3048W        W18942   3.357   1.310  16.521 -0.0674  0.4800  0.1412
 3049W        W18943  16.391  13.556  14.834  0.0954  0.1569 -0.1283
 3050W        W18944   1.869  14.474  15.206 -0.0636 -0.2547  0.1028
 3051W        W18945   4.601   5.163   2.726  0.0184 -0.0111 -0.0543
 3052W        W18946  15.782  15.604   0.992 -0.0323 -0.1150  0.0325
 3053W        W18947   2.091  11.449   1.187 -0.0445  0.2938  0.1582
 3054W        W18948  17.045  16.018   1.347  0.2247  0.1393  0.0285
 3055W        W18949   7.799   7.083  12.500 -0.2365 -0.0343  0.1907
 3056W        W18950   5.506  13.826  10.532  0.0265 -0.1331 -0.4031
 3057W        W18951   6.652  10.033   2.621 -0.1030 -0.1566 -0.4199
 3058W        W18952   9.181   4.626  15.127  0.2640 -0.0499  0.0877
 3059W        W18953  10.347   4.394  13.900  0.1640  0.1826  0.0774
 3060W        W18954   3.223  13.772  14.520  0.1245 -0.4345 -0.0190
 3061W        W18955  15.003   3.159   3.617 -0.0210 -0.4438 -0.0102
 3062W        W18956   4.538   4.062  14.840 -0.0421 -0.2716 -0.3456
 3063W        W18957   9.506  15.267   3.340  0.0490  0.0736  0.2069
 3064W        W18958  14.501  15.800  14.991  0.2386  0.2128 -0.0959
 3065W        W18959   3.972   8.061   5.120 -0.0406  0.0561  0.2942
 3066W        W18960   5.136  15.682  12.681 -0.0172 -0.4693 -0.1945
 3067W        W18961  11.421  11.407   0.252  0.1946 -0.2475  0.1781
 3068W        W18962   1.051  17.450   3.257 -0.0622  0.2270  0.2415
 3069W        W18963  10.022  15.332  11.901 -0.1368 -0.2571 -0.2248
 3070W        W18964  14.420  14.386  14.951 -0.0065 -0.1101  0.1426
 3071W        W18965  11.560   0.522  16.713  0.3409  0.0007 -0.0710
 3072W        W18966   9.105  16.091   4.622  0.1575  0.0700 -0.1249
 3073W        W18967   7.857  10.845  11.782 -0.3241  0.1616  0.2859
 3074W        W18968  10.962   6.875   2.100  0.0005 -0.2977 -0.1394
 3075W        W18969   1.361   3.691  16.864  0.0219 -0.0794 -0.2351
 3076W        W18970   9.328   7.976   1.125  0.3639 -0.2242  0.0405
 3077W        W18971  11.490  14.115  16.597  0.1216 -0.1791 -0.0461
 3078W        W18972   3.976   6.100   1.218  0.1403 -0.0629 -0.0416
 3079W        W18973  11.215   1.235   3.472  0.1414  0.1031  0.3232
 3080W        W18974   3.698  10.830  13.713  0.0130 -0.1732  0.2194
 3081W        W18975   5.840  13.365   2.852 -0.1357  0.1625  0.0199
 3082W        W18976  14.727   6.059   1.315  0.0958  0.1699 -0.2656
 3083W        W18977   7.997  10.338   5.613 -0.0303 -0.0638 -0.0985
 3084W        W18978  10.281   3.123  15.424 -0.0205 -0.0725  0.3045
 3085W        W18979   5.990   2.677   1.591  0.4028  0.1195 -0.0398
 3086W        W18980   3.184  12.131   0.015 -0.1824  0.1507  0.2230
 3087W        W18981   2.214   1.025  12.816  0.0039  0.0820  0.1748
 3088W        W18982  13.813  13.506  14.244 -0.1102 -0.2494  0.1109
 3089W        W18983   1.806   4.517   4.116  0.1335 -0.1364 -0.3535
 3090W        W18984   5.643   0.378   1.484  0.0914 -0.1382  0.0569
 3091W        W18985  17.518   7.797  14.642 -0.0039 -0.1931  0.1089
 3092W        W18986  13.362  13.290  15.346  0.1695 -0.2179 -0.0473
 3093W        W18987   6.565   3.799   4.276  0.4855  0.0482 -0.1681
 3094W        W18988   8.775  14.761   3.990 -0.1927  0.1302 -0.1534
 3095W        W18989  14.247   9.485  16.424 -0.2260  0.1725 -0.0888
 3096W        W18990  11.070   9.295   0.661 -0.0499 -0.5262  0.1901
 3097W        W18991  15.947   7.558  12.733  0.0669  0.0860 -0.0202
 3098W        W18992  13.171  12.396   5.282  0.0782 -0.0623 -0.3045
 3099W        W18993  16.058  15.630  11.753  0.0400  0.0447  0.0840
 3100W        W18994  10.758  12.871  15.169 -0.0427  0.2535  0.0358
 3101W        W18995  16.582   9.671   1.430  0.3111  0.1491 -0.1076
 3102W        W18996   0.522  15.854   3.763  0.3267  0.0307  0.1842
 3103W        W18997   0.583   3.432  12.912 -0.1001 -0.0719 -0.0258
 3104W        W18998  15.510  13.640   3.431  0.0842  0.0831  0.2004
 3105W        W18999   9.733   1.375   5.208 -0.1702 -0.3311  0.2031
 3106W        W19000   3.850  13.621  10.645  0.0111 -0.2790  0.3202
 3107W        W19001   6.755   5.748  14.386 -0.2185 -0.1453  0.0084
 3108W        W19002  17.540  14.307  11.044 -0.3204 -0.1157 -0.0714
 3109W        W19003   9.475  12.892  12.836 -0.3260 -0.1315  0.0526
 3110W        W19004  13.972   7.168   4.569  0.0242  0.0487 -0.0090
 3111W        W19005  12.687  17.584  14.831 -0.1059  0.0580 -0.0451
 3112W        W19006   8.652  16.290   4.991 -0.4040 -0.1913 -0.0252
 3113W        W19007   2.572  11.977   4.374 -0.0545  0.3297 -0.0021
 3114W        W19008   1.400  17.682   5.782  0.2347  0.0303 -0.1104
 3115W        W19009  11.399   7.067   1.310 -0.0147 -0.2539 -0.1268
 3116W        W19010  11.688  11.717  16.334 -0.1145  0.3453  0.4090
 3117W        W19011  17.030   4.621  12.300 -0.0803 -0.0879  0.3006
 3118W        W19012   6.762   2.162  13.156  0.0080  0.1646  0.2005
 3119W        W19013   2.387   3.201   3.923 -0.1640  0.2025  0.2846
 3120W        W19014   0.692  14.227   4.107 -0.1913  0.0817  0.1949
 3121W        W19015  10.511   0.930   1.364  0.3605  0.1370 -0.1268
 3122W        W19016   2.525  12.950   0.002  0.0286 -0.3236 -0.1439
 3123W        W19017   4.645  13.308   4.834  0.3057 -0.3263  0.0046
 3124W        W19018  14.311  15.800   5.753  0.2756  0.1104 -0.2381
 3125W        W19019  15.105  17.516  16.384  0.0614  0.0940 -0.3521
 3126W        W19020  11.807  13.345  15.693 -0.0029 -0.0221  0.3236
 3127W        W19021   8.358   1.929  16.504 -0.0431  0.0865 -0.1036
 3128W        W19022  10.173  15.060  12.814  0.0051 -0.0607  0.1014
 3129W        W19023   7.978  17.773   3.738 -0.3830  0.0701  0.0924
 3130W        W19024   0.820  15.760  16.695  0.1499 -0.4406  0.0858
 3131W        W19025   2.059   3.539   4.033  0.1017 -0.1770 -0.0377
 3132W        W19026   7.035  14.512   0.840  0.4796 -0.1055 -0.1066
 3133W        W19027   6.506   2.913  16.622 -0.1394  0.1496 -0.2108
 3134W        W19028  15.058  16.400  12.281  0.1467 -0.2289 -0.1552
 3135W        W19029   1.013  16.285   5.789  0.0468  0.2520 -0.0479
 3136W        W19030  14.684   6.455  12.332  0.1200  0.2557  0.1722
 3137W        W19031   5.213  13.330  16.233  0.1786  0.1653 -0.2188
 3138W        W19032  14.021   4.808  15.197 -0.1340 -0.0587 -0.0405
 3139W        W19033  11.057  10.502   2.615  0.0807 -0.0915  0.0445
 3140W        W19034  14.959   5.764   3.347  0.2430  0.1789  0.1254
 3141W        W19035  15.809   9.544   1.505  0.0727  0.2701 -0.4646
 3142W        W19036   2.579   3.603  15.308  0.2085  0.1235 -0.2071
 3143W        W19037  13.710   4.278  14.462  0.0270  0.1106  0.2613
 3144W        W19038   0.000   1.098  15.602 -0.1041  0.4078 -0.1031
 3145W        W19039   7.939   6.717   4.833 -0.1874 -0.0392 -0.0760
 3146W        W19040   0.833   0.326  10.811 -0.0846  0.0704 -0.0297
 3147W        W19041   6.193   9.961   2.915  0.0111 -0.2427  0.2975
 3148W        W19042   2.257   5.932   0.945 -0.0364  0.1205  0.0196
 3149W        W19043   4.085  16.136  12.396 -0.0401 -0.2765  0.4713
 3150W        W19044   8.264  10.773   2.397  0.1274 -0.2476  0.1351
 3151W        W19045  17.141   4.489   0.434  0.2054 -0.0611 -0.1633
 3152W        W19046  10.934   3.150  13.960  0.0399  0.0688 -0.0313
 3153W        W19047  13.428   0.783  16.584  0.3643  0.0626  0.1165
 3154W        W19048  15.578   4.132   1.313 -0.2930  0.1222  0.4788
 3155W        W19049   9.358   1.624  14.902  0.2782 -0.0100  0.3225
 3156W        W19050   1.546  11.001  11.294  0.1413  0.0814  0.0614
 3157W        W19051   8.750  13.266   5.275 -0.0013  0.0952  0.3112
 3158W        W19052   3.564   6.758   5.280  0.1347  0.3153 -0.0510
 3159W        W19053  13.274   8.235  12.497  0.0261  0.0314  0.1868
 3160W        W19054   1.260  10.937   2.880  0.0278  0.1025  0.0147
 3161W        W19055   6.477  16.634   5.079  0.1131 -0.0445  0.0200
 3162W        W19056  10.550  14.085  15.822 -0.1245 -0.0660 -0.0826
 3163W        W19057  16.162   1.223  14.784  0.0550 -0.3067  0.3848
 3164W        W19058   1.116   0.503   3.212 -0.0585  0.0268 -0.2502
 3165W        W19059  15.571  15.960  12.240  0.0269  0.3125  0.1604
 3166W        W19060   9.786   7.321   3.690  0.5429 -0.1677  0.0418
 3167W        W19061  13.419   4.678   0.427 -0.0109  0.2233  0.0513
 3168W        W19062  17.431   6.764   2.552 -0.2500 -0.2215  0.2341
 3169W        W19063  13.700   8.928   3.417 -0.1941 -0.1686  0.2029
 3170W        W19064   5.932   3.447  11.837 -0.1117 -0.3274  0.1942
 3171W        W19065  10.854   9.406  15.189  0.0235 -0.0814  0.1485
 3172W        W19066   1.451  17.253  10.469 -0.1175 -0.0562  0.0428
 3173W        W19067   9.389  11.601  13.790  0.2160  0.0449  0.4061
 3174W        W19068   0.579  12.035  15.430  0.0347  0.1363 -0.1635
 3175W        W19069  12.958  10.521  14.371 -0.2965  0.1642  0.3418
 3176W        W19070  15.245   5.257  12.017 -0.2063 -0.2560 -0.0386
 3177W        W19071   2.839   9.702   2.736  0.1521  0.1010 -0.2168
 3178W        W19072  13.454   3.616   1.752 -0.0102  0.3234  0.0557
 3179W        W19073  16.439   6.512   3.567  0.2501  0.2570 -0.1430
 3180W        W19074  10.711   1.208   5.063 -0.1087  0.0084 -0.1623
 3181W        W19075   9.249   6.406  12.249 -0.1523  0.2501  0.1033
 3182W        W19076  16.122  15.395   5.676 -0.0065  0.2686  0.1377
 3183W        W19077   9.654   2.891  13.146 -0.0909  0.1150 -0.0457
 3184W        W19078   5.659  11.972   4.334  0.2784  0.0886  0.1530
 3185W        W19079   0.276   9.106  15.543  0.3106 -0.0014  0.1389
 3186W        W19080  14.476  14.598  16.609  0.1635 -0.2598  0.3213
 3187W        W19081   1.352  13.258  15.710 -0.0450  0.1152  0.0390
 3188W        W19082  11.234  11.014   4.590 -0.3813  0.1497 -0.1749
 3189W        W19083  10.010  11.970   1.908  0.0851 -0.1254  0.1064
 3190W        W19084  16.541  14.795  16.204 -0.1200  0.1759 -0.1415
 3191W        W19085  11.683  13.234   1.065  0.1093 -0.1155 -0.3271
 3192W        W19086   3.246  10.444  15.369  0.1780  0.0826 -0.3702
 3193W        W19087   1.269   5.525  15.601 -0.1199  0.0406  0.1081
 3194W        W19088  13.173  10.769  15.211 -0.2044 -0.0558  0.1266
 3195W        W19089   7.728   2.332   3.187 -0.1268  0.2111 -0.0705
 3196W        W19090  15.083   3.762  15.953  0.1582 -0.3708 -0.0975
 3197W        W19091  11.751   1.601   5.295  0.0041  0.0576  0.0187
 3198W        W19092   9.992   2.038   0.776  0.0730  0.0454 -0.0438
 3199W        W19093   8.654   5.068  13.670  0.0750 -0.0316 -0.0102
 3200W        W19094   2.615  17.135   5.582 -0.0907  0.1393 -0.0510
 3201W        W19095  10.892   8.772   0.744 -0.1108  0.1634  0.2271
 3202W        W19096   2.769   2.949  11.424  0.0881 -0.1696  0.1708
 3203W        W19097   2.977   2.728  14.299  0.1108  0.1074 -0.0220
 3204W        W19098  10.968   1.841   0.860  0.1998  0.0913 -0.0047
 3205W        W19099   6.622   2.976   3.784  0.2502  0.1197 -0.1025
 3206W        W19100  13.040   4.087   3.579 -0.2709 -0.1867 -0.1216
 3207W        W19101   9.379   5.470  12.650  0.0049 -0.1067  0.1389
 3208W        W19102   1.884  12.321   0.184 -0.0269  0.3000 -0.0160
 3209W        W19103   2.932   5.381  11.040  0.3590 -0.1442 -0.1303
 3210W        W19104   1.177   0.101  16.554  0.3203  0.2892 -0.1746
 3211W        W19105   2.095  13.424  14.668  0.1462 -0.0833  0.2711
 3212W        W19106  12.325  12.311   3.008  0.1894  0.1409  0.3197
 3213W        W19107   8.907  12.869   2.565  0.2816  0.1708 -0.5247
 3214W        W19108   8.293   4.109   5.715  0.1954  0.0904  0.0611
 3215W        W19109   5.851   2.941  16.073  0.0256  0.0673 -0.0830
 3216W        W19110   7.649  14.682   1.723 -0.1855  0.1275 -0.1536
 3217W        W19111   5.945   6.768  12.012 -0.1264  0.1413  0.1390
 3218W        W19112  16.645  13.688  13.182 -0.0623  0.1321 -0.1833
 3219W        W19113  16.234   5.029   0.180  0.2031  0.1077 -0.0252
 3220W        W19114   9.123   1.883   4.606  0.3850  0.1820 -0.1560
 3221W        W19115   3.606  12.741   3.848 -0.0482  0.2014 -0.1330
 3222W        W19116   9.247   6.872   0.738  0.0822 -0.0680  0.1894
 3223W        W19117   6.457   6.901  14.536  0.1429 -0.1802  0.1246
 3224W        W19118  14.293  15.816  12.098  0.0200  0.1058  0.0775
 3225W        W19119   8.881  12.830  12.485  0.1111  0.0655 -0.0589
 3226W        W19120   6.038  16.319  12.579 -0.1177 -0.0731 -0.0216
 3227W        W19121  17.015   3.200  12.700 -0.2608  0.1267  0.2717
 3228W        W19122   5.602   2.568  16.311  0.4485 -0.1135 -0.0418
 3229W        W19123   3.979   6.061  15.417 -0.0431  0.1861  0.1001
 3230W        W19124  12.071   0.512   0.941 -0.2218 -0.0155 -0.1289
 3231W        W19125   1.487   0.748   1.520  0.0036 -0.0559  0.1559
 3232W        W19126  15.342   1.033   4.592  0.2130  0.0882 -0.1860
 3233W        W19127   4.124  12.128   5.098 -0.0072  0.0546 -0.1989
 3234W        W19128   1.606  12.601  13.342 -0.2117  0.1195  0.1037
 3235W        W19129  10.542   2.828   0.435 -0.1123  0.2464  0.1961
 3236W        W19130   1.259  11.237   0.647  0.2415 -0.4204 -0.0485
 3237W        W19131  15.724  15.839  11.387  0.1457 -0.5159  0.0343
 3238W        W19132  16.503   6.050  16.548 -0.2201  0.1249 -0.1246
 3239W        W19133  10.803  14.866  13.125 -0.0658 -0.1782  0.1314
 3240W        W19134  10.969  17.758  14.837 -0.0373 -0.0768 -0.0487
 3241W        W19135   0.687   5.927   4.876 -0.0878 -0.0629 -0.0968
 3242W        W19136  12.955   0.284   2.171 -0.1548  0.2056  0.1454
 3243W        W19137  13.263  16.362   1.685 -0.1187  0.2582  0.0412
 3244W        W19138  14.957   8.376  14.902  0.2173 -0.0013  0.2085
 3245W        W19139   6.006  10.276  13.782 -0.1457  0.0618  0.3020
 3246W        W19140  11.113   9.938   1.215 -0.2530 -0.2020 -0.2611
 3247W        W19141  16.417   5.903  12.664 -0.0840  0.0373  0.0126
 3248W        W19142  17.560  13.712   5.944  0.1557  0.1586 -0.1835
 3249W        W19143   5.903   3.686  13.159 -0.0159  0.1933 -0.0020
 3250W        W19144   3.877   7.631   4.911 -0.2008  0.3501 -0.2984
 3251W        W19145   4.954  16.207  15.494 -0.0694  0.0870  0.1101
 3252W        W19146   1.107   2.593   3.676  0.0975  0.1262  0.4981
 3253W        W19147   0.597   9.710   4.408  0.5265 -0.0597 -0.0550
 3254W        W19148  17.430  14.035  11.918  0.2870  0.3153 -0.1847
 3255W        W19149  16.610   0.662  16.194 -0.0460  0.1701 -0.1325
 3256W        W19150   9.955   0.220  12.584 -0.0128 -0.4953  0.1213
 3257W        W19151  17.747  10.398   1.560  0.0630 -0.1651 -0.1007
 3258W        W19152  13.064  12.601  14.185 -0.0724 -0.3718  0.0669
 3259W        W19153   0.311  15.008  13.001  0.3120 -0.0434 -0.2532
 3260W        W19154   9.717   1.142  14.793  0.1108  0.1911 -0.0490
 3261W        W19155  16.721   7.411  11.742  0.2102  0.1797 -0.0746
 3262W        W19156   9.848   6.815   3.948  0.2150 -0.1684 -0.1335
 3263W        W19157  10.382   7.310   5.205 -0.0626 -0.2831 -0.0235
 3264W        W19158  15.690  13.052   4.206  0.0403  0.0247 -0.1881
 3265W        W19159   9.185   5.640  11.309 -0.1117 -0.0636 -0.2341
 3266W        W19160   9.098  15.867  15.718 -0.0599  0.3052 -0.2620
 3267W        W19161  13.200   5.253  11.275 -0.0891 -0.1545  0.0347
 3268W        W19162  13.796   8.636   2.169 -0.1541  0.0548  0.0289
 3269W        W19163  12.623   5.100   0.279  0.1523  0.2395  0.0431
 3270W        W19164   4.533  12.544   3.709  0.3198 -0.1901  0.2150
 3271W        W19165   2.420   1.345   2.495 -0.2199  0.0846 -0.5394
 3272W        W19166   8.483   1.096  16.504 -0.1589  0.0759  0.0106
 3273W        W19167  11.668   3.516  12.443  0.2995 -0.0893  0.2848
 3274W        W19168   1.370   0.632   4.586 -0.1279  0.1040 -0.0723
 3275W        W19169   6.526  14.933  11.817  0.2343  0.0775  0.0310
 3276W        W19170   8.175   9.070  15.152 -0.1983 -0.1108  0.0879
 3277W        W19171  13.741   7.828   1.151 -0.2854 -0.0393 -0.0987
 3278W        W19172  10.581   8.106   3.934 -0.2490 -0.2342 -0.2163
 3279W        W19173  14.638  14.349   4.249  0.0639  0.0669 -0.2218
 3280W        W19174  10.087   6.387   0.912  0.0871 -0.1228 -0.1057
 3281W        W19175   9.576   5.704  15.920  0.0972 -0.2116  0.3275
 3282W        W19176  15.054  11.640   0.481 -0.0349 -0.0166  0.1692
 3283W        W19177   0.829   7.617   3.048  0.1590 -0.0036  0.2364
 3284W        W19178  17.055  12.945   6.244  0.0151  0.0872  0.1843
 3285W        W19179   2.264  16.917  11.703  0.0258 -0.0517 -0.1320
 3286W        W19180   0.243  13.275  12.112 -0.0607 -0.1768  0.0907
 3287W        W19181  13.623  13.947   6.068 -0.0230  0.0207 -0.1748
 3288W        W19182  12.752   2.212  16.873  0.0088  0.1720  0.0525
 3289W        W19183   9.849  12.848   5.296  0.3443  0.1038  0.0746
 3290W        W19184   4.495  13.869   1.385 -0.1121  0.0561  0.1197
 3291W        W19185   6.694  14.399  13.931 -0.1366 -0.2642 -0.0439
 3292W        W19186   6.288  12.425   5.004 -0.1599 -0.0571  0.3978
 3293W        W19187  14.029   5.313   2.194  0.0481  0.0803 -0.0650
 3294W        W19188  16.011  13.172   0.279 -0.1153 -0.2038  0.0784
 3295W        W19189  17.197   5.899   5.993  0.1888 -0.0515  0.0776
 3296W        W19190  14.274   7.548  14.412  0.2096 -0.1522 -0.1051
 3297W        W19191   2.136  12.360  12.634 -0.3788  0.2172  0.1476
 3298W        W19192   8.143   5.490  14.916 -0.2442  0.1764 -0.0659
 3299W        W19193  14.089   0.256   2.641  0.0169 -0.0572 -0.0269
 3300W        W19194   9.384   4.127   5.037 -0.1573 -0.0907  0.1848
 3301W        W19195   0.089  13.991  13.803 -0.0441  0.4699 -0.0147
 3302W        W19196   8.536   7.599  15.539  0.0723  0.0925 -0.0413
 3303W        W19197  14.906   6.699   2.622 -0.2618 -0.1489  0.1481
 3304W        W19198   0.510  16.822  14.949  0.2198  0.2821 -0.2535
 3305W        W19199   3.390  15.843  15.391 -0.1034 -0.0196  0.0448
 3306W        W19200  14.787   3.355  11.223  0.0214  0.0296 -0.2800
 3307W        W19201  14.055  17.101  14.964  0.3759  0.1261  0.2001
 3308W        W19202   0.814   8.569   2.021 -0.0713  0.1204  0.0316
 3309W        W19203  15.112  10.269  13.095  0.2292  0.1478 -0.0969
 3310W        W19204   6.642   1.195  16.534  0.0926  0.1002 -0.2503
 3311W        W19205  12.954  16.285  13.842  0.2031 -0.5260 -0.2076
 3312W        W19206   0.541   4.698  11.670  0.0104  0.2016  0.0913
 3313W        W19207   7.580   8.299   5.130 -0.1019  0.0112 -0.2754
 3314W        W19208   3.557  14.231  11.842  0.0394 -0.3544 -0.1110
 3315W        W19209   6.363  14.639  12.206  0.0339 -0.0305  0.1221
 3316W        W19210   0.109  15.506  14.325 -0.0746  0.1397 -0.4005
 3317W        W19211  16.809   1.433   0.555 -0.0992 -0.0703 -0.0668
 3318W        W19212  13.030   4.675   1.636 -0.1665  0.0465 -0.1894
 3319W        W19213  12.877   3.419  15.097 -0.2892 -0.1436 -0.0230
 3320W        W19214   0.351   1.692   2.330 -0.0812 -0.0880 -0.1389
 3321W        W19215   9.324   7.770   0.426  0.0094  0.0094  0.1594
 3322W        W19216  15.302  16.594  14.299 -0.1055 -0.0960  0.0966
 3323W        W19217   8.219   1.306   5.692  0.5178  0.2423 -0.1478
 3324W        W19218   5.962  10.950   0.742  0.1007  0.0253  0.7152
 3325W        W19219   2.933   2.738   1.691  0.1416  0.0380  0.0778
 3326W        W19220   0.351  16.955  13.295  0.1527  0.1340  0.0375
 3327W        W19221  11.983  17.114  12.110 -0.0847 -0.0095 -0.3330
 3328W        W19222   3.727   2.486  15.552 -0.0425  0.0640 -0.3078
 3329W        W19223  16.887   4.690  12.799 -0.2184 -0.1545 -0.0787
 3330W        W19224  10.931   2.062  16.394  0.0400 -0.0496 -0.0011
 3331W        W19225   5.595   4.756   6.035 -0.2506 -0.2063 -0.1205
 3332W        W19226  13.494  17.115  14.719  0.3474 -0.2810 -0.0020
 3333W        W19227   1.553   6.120   2.075  0.2915  0.0859 -0.1642
 3334W        W19228   9.411  12.035  13.279  0.0994 -0.1659 -0.1638
 3335W        W19229   4.527   4.110  13.376  0.1140 -0.3086  0.0941
 3336W        W19230  15.116  12.741   2.822 -0.0418 -0.0306 -0.3861
 3337W        W19231   7.881  10.089   0.196  0.5111  0.1442 -0.0366
 3338W        W19232   6.352  17.184  14.928 -0.1925 -0.0211  0.0396
 3339W        W19233   9.686   3.482   5.359 -0.1221 -0.2007 -0.2147
 3340W        W19234  14.549   1.357   2.312  0.0478  0.0312  0.3167
 3341W        W19235  13.101   5.032   4.078  0.0684  0.0737  0.3536
 3342W        W19236  11.339   3.282   1.365  0.1284  0.0826 -0.4453
 3343W        W19237  13.432  17.852  14.782 -0.0229 -0.0960  0.0216
 3344W        W19238   4.918  16.547   0.025  0.0285  0.2755 -0.2776
 3345W        W19239  15.783  16.170  14.595  0.0041 -0.0156  0.0635
 3346W        W19240   8.242   0.341  15.448  0.4420 -0.1164 -0.1209
 3347W        W19241  13.360   2.436  12.486 -0.2299  0.2136 -0.2564
 3348W        W19242   6.990  16.231   3.869  0.0887 -0.0311  0.2312
 3349W        W19243  10.420  10.426   4.126  0.0239 -0.1870  0.0257
 3350W        W19244  13.525   0.926   5.706  0.2022 -0.0669  0.2051
 3351W        W19245   9.292  17.847   0.020  0.0752 -0.1414 -0.2397
 3352W        W19246   4.597   0.395   3.691  0.2036  0.0052 -0.0568
 3353W        W19247  10.668  14.760  16.762 -0.0539 -0.3935 -0.4552
 3354W        W19248  11.064  15.285  12.706 -0.0851 -0.3064  0.0909
 3355W        W19249   3.886   7.977   5.703  0.1529 -0.1126  0.3415
 3356W        W19250   2.368   0.762  11.919 -0.0381 -0.3955  0.0142
 3357W        W19251   4.596  12.413   4.400 -0.0078 -0.2251 -0.2228
 3358W        W19252  15.831   3.388  16.817 -0.0921  0.1925  0.1873
 3359W        W19253   2.506  13.405   4.977 -0.1042 -0.2003 -0.1316
 3360W        W19254  14.043   2.735  11.992 -0.0733 -0.0580 -0.0261
 3361W        W19255  14.742  11.920  15.984  0.2828  0.0141 -0.3325
 3362W        W19256   6.647  10.762  15.501 -0.1688 -0.0562 -0.0979
 3363W        W19257  15.656   3.889  16.749  0.2883  0.0377  0.2088
 3364W        W19258  15.762  16.487  13.364 -0.0916  0.2270 -0.0893
 3365W        W19259   2.059   9.935   0.842  0.1424 -0.3562  0.2403
 3366W        W19260   5.470  12.748   3.505 -0.0102  0.2023  0.0892
 3367W        W19261  15.846  15.336  12.855  0.2815 -0.1736  0.2530
 3368W        W19262  10.069  16.074   4.378 -0.1497  0.1873  0.2966
 3369W        W19263   2.426  10.778  15.053  0.0293 -0.1456  0.3862
 3370W        W19264   1.074   6.837   1.442  0.3491 -0.0830  0.1401
 3371W        W19265   1.251  16.528  16.742  0.0796 -0.0977  0.3069
 3372W        W19266   8.888  14.677   1.585  0.2115  0.1503  0.3249
 3373W        W19267  17.599  11.318  16.688  0.0408 -0.1249 -0.0243
 3374W        W19268  14.105   2.368  11.629 -0.2681  0.2285  0.1852
 3375W        W19269   4.113   9.700   5.137 -0.1331  0.0369  0.0008
 3376W        W19270   2.267   9.501   1.311 -0.1403 -0.1430  0.0691
 3377W        W19271   7.728   2.160   1.675  0.2704  0.0071 -0.1110
 3378W        W19272   9.883   3.750  16.620  0.3622 -0.3202  0.0200
 3379W        W19273   2.451   7.656  12.697  0.1270 -0.0141  0.0535
 3380W        W19274   7.590   5.452  16.573 -0.0370 -0.4317 -0.2113
 3381W        W19275  15.666  13.072   5.694 -0.0080 -0.0714 -0.2537
 3382W        W19276   3.550  11.789   1.435  0.0269 -0.0030  0.0568
 3383W        W19277  10.711  10.798  14.323 -0.0570 -0.5694 -0.4030
 3384W        W19278   2.559   9.572  12.225 -0.0105 -0.1094  0.2562
 3385W        W19279   6.009  11.655   3.409 -0.0942 -0.1872 -0.0413
 3386W        W19280  12.663   8.727  12.735  0.1526  0.1377  0.0275
 3387W        W19281  12.455   0.762  13.332  0.3378 -0.1100  0.1638
 3388W        W19282  14.528   5.743   4.318 -0.2476  0.2217  0.2403
 3389W        W19283  14.616   9.831   4.908  0.0512  0.0120 -0.0768
 3390W        W19284  15.454  11.923  14.800  0.0647 -0.3221  0.1007
 3391W        W19285   0.251   5.046  14.278  0.2538  0.2394 -0.0249
 3392W        W19286   7.884  14.853   6.466 -0.1363 -0.1483  0.3788
 3393W        W19287   7.886  12.983   1.011 -0.1062 -0.2049 -0.0484
 3394W        W19288  12.628   3.194  15.604  0.0200  0.0208 -0.0689
 3395W        W19289  13.599  15.426   0.973  0.4495 -0.1224 -0.0111
 3396W        W19290   7.681  11.726   5.556  0.2811 -0.0338  0.1075
 3397W        W19291  17.176   6.932   3.498  0.2549  0.5580  0.2430
 3398W        W19292  10.683   5.834  15.415  0.0854 -0.1944 -0.1345
 3399W        W19293   1.835   7.323   1.308  0.2303 -0.1253  0.2537
 3400W        W19294  12.843   0.701   2.542 -0.0420 -0.1023  0.0977
 3401W        W19295   5.313  12.669   1.443  0.1912 -0.0961 -0.1533
 3402W        W19296   6.406   9.170   5.148 -0.1938  0.0114  0.1233
 3403W        W19297   0.365   9.490  13.794 -0.2342 -0.3652  0.0724
 3404W        W19298   4.937   0.264   4.543  0.0187 -0.3203 -0.0366
 3405W        W19299   3.555  15.982   0.349  0.0342 -0.1059 -0.0601
 3406W        W19300   1.347  15.409   3.464 -0.0764  0.2565  0.0902
 3407W        W19301   3.474  12.332  12.890 -0.1901  0.0173  0.2144
 3408W        W19302   5.572   1.165  13.029 -0.1333 -0.1967  0.0939
 3409W        W19303   0.014  17.470  16.204 -0.1791  0.1767 -0.0642
 3410W        W19304   3.947   7.626  15.140 -0.0885 -0.1556 -0.3968
 3411W        W19305   5.214  10.842   3.057 -0.0289  0.0402  0.1402
 3412W        W19306   4.466  17.082  15.785 -0.1474  0.0398 -0.0461
 3413W        W19307  17.437  14.886  13.191  0.1118  0.3376 -0.1544
 3414W        W19308   7.739   8.226  15.374  0.1407 -0.0823 -0.0145
 3415W        W19309   8.358   3.057  11.450 -0.0104 -0.1439  0.0689
 3416W        W19310  14.922  17.478  13.346  0.0548  0.2353  0.0742
 3417W        W19311  16.638   5.089  13.670  0.2395  0.0027  0.0057
 3418W        W19312  16.697  12.856   4.767  0.1791 -0.1986  0.0641
 3419W        W19313  16.511  11.536   5.153 -0.0682 -0.0946  0.2043
 3420W        W19314   2.260   2.845  12.614 -0.0239 -0.2907 -0.1630
 3421W        W19315   5.869   4.953  16.751  0.0053  0.0029  0.4760
 3422W        W19316  15.684   7.801   3.188  0.0495  0.0409  0.0397
 3423W        W19317   8.910  16.858   1.643  0.1498  0.3232 -0.4745
 3424W        W19318   1.824   9.982  14.748 -0.1107 -0.2404  0.1810
 3425W        W19319   1.204   6.925   5.212  0.1420 -0.0049  0.1935
 3426W        W19320  14.370  16.747  13.904  0.2671 -0.1818 -0.1400
 3427W        W19321  11.352   6.319  14.925 -0.2781  0.1206  0.2659
 3428W        W19322  13.038  12.632   4.784  0.1200  0.2302 -0.4332
 3429W        W19323   0.406   1.720   4.883  0.0581 -0.0999 -0.2173
 3430W        W19324  16.131   5.611  15.247 -0.0156 -0.0699 -0.1140
 3431W        W19325   3.725   8.610  14.753 -0.1280 -0.0502  0.0502
 3432W        W19326  17.791   5.465  11.363 -0.1629 -0.0903  0.0784
 3433W        W19327  14.566   1.732   1.887 -0.1135 -0.1613 -0.1528
 3434W        W19328   4.501   3.492  12.229 -0.1292  0.3499  0.1455
 3435W        W19329   0.952   8.393   4.380  0.2367 -0.0416 -0.0998
 3436W        W19330  13.064  17.410  15.887  0.2871  0.1267 -0.1905
 3437W        W19331   7.368   8.528  14.893 -0.0040  0.2761 -0.2150
 3438W        W19332  10.304  15.254  13.888  0.1290 -0.3077  0.3577
 3439W        W19333  13.397   3.707  13.686  0.2425 -0.0012  0.0742
 3440W        W19334  15.246   6.759   0.692  0.3622  0.2628 -0.1170
 3441W        W19335  13.698  17.042   5.279  0.2970 -0.2751 -0.1107
 3442W        W19336   4.912   7.387  10.518  0.2446  0.3361  0.0669
 3443W        W19337  16.517   9.385   4.966 -0.3538  0.0173  0.0271
 3444W        W19338   8.241   2.069   4.903  0.0152  0.1793  0.0517
 3445W        W19339  11.682   1.281   3.309  0.2060  0.0488  0.2763
 3446W        W19340  14.632   5.556   3.728  0.1885  0.2792 -0.2763
 3447W        W19341   5.728  11.758  15.591  0.1437  0.0764  0.2293
 3448W        W19342  15.802   4.559   2.597 -0.2833  0.0563 -0.0421
 3449W        W19343   7.164   8.816  16.545  0.0297 -0.0906  0.0722
 3450W        W19344   2.736   2.611  11.011 -0.0299 -0.1147  0.2692
 3451W        W19345  14.083  12.250   0.286 -0.1416 -0.0628 -0.0349
 3452W        W19346  12.138  16.709  15.677 -0.1039 -0.0103  0.0423
 3453W        W19347   7.287  12.301   3.363 -0.0259 -0.0152  0.2427
 3454W        W19348   2.955   2.128  14.167  0.0910 -0.1727  0.2747
 3455W        W19349   9.854  12.429   4.978  0.0171  0.2046 -0.0288
 3456W        W19350   6.954  11.247  11.108 -0.0252  0.0101  0.0811
 3457W        W19351   6.742  15.845   2.981  0.1216 -0.0431  0.0972
 3458W        W19352   7.152  14.872  15.237  0.0817 -0.2670  0.2734
 3459W        W19353   9.069   5.254   4.256 -0.2950 -0.1514 -0.1001
 3460W        W19354   5.786  14.905   2.587  0.1303  0.0755 -0.3350
 3461W        W19355  10.936   8.792  13.272  0.0050  0.1147  0.2792
 3462W        W19356   2.898  15.975  13.098 -0.0084 -0.0345 -0.3451
 3463W        W19357   3.369  16.025   1.238  0.0089 -0.0076  0.1435
 3464W        W19358   8.176   7.968  15.634 -0.0331  0.4174 -0.1693
 3465W        W19359   4.917  12.184   2.782  0.0638  0.0167  0.1092
 3466W        W19360  17.835  17.154  12.307  0.0464  0.1310 -0.0597
 3467W        W19361   1.890   7.314  13.769  0.0905  0.0526  0.1387
 3468W        W19362  17.137   1.413   0.964 -0.2396 -0.1151 -0.2087
 3469W        W19363   6.549  15.892   5.823  0.0590 -0.2154 -0.0821
 3470W        W19364   3.129   2.760   0.787 -0.1957 -0.0041 -0.0217
 3471W        W19365   9.004   8.409   5.846  0.0614 -0.4134  0.3052
 3472W        W19366  14.112  17.109   2.118 -0.1826 -0.1783  0.0368
 3473W        W19367  16.662  17.522   5.193 -0.1100 -0.0385 -0.0924
 3474W        W19368   7.974  13.447  16.111 -0.0408 -0.4803  0.0880
 3475W        W19369  13.680   4.561   1.767 -0.1898 -0.0156 -0.1386
 3476W        W19370   9.161   5.613   1.978  0.1180 -0.1771 -0.0597
 3477W        W19371  15.489   6.148   5.690  0.1528 -0.1005 -0.0428
 3478W        W19372  15.643  15.208   0.658 -0.3281  0.0622  0.0930
 3479W        W19373  12.118   8.695   4.843 -0.1473 -0.3234  0.4888
 3480W        W19374   8.318   2.297  12.826 -0.0802 -0.1889 -0.0475
 3481W        W19375   4.413   9.748   3.845 -0.2882 -0.4625 -0.3116
 3482W        W19376  16.013   4.328  11.958  0.1064 -0.4266 -0.0047
 3483W        W19377  17.453  14.808   3.121  0.1110  0.0897  0.0127
 3484W        W19378   9.598   1.312   3.331 -0.0809 -0.0929 -0.1899
 3485W        W19379   5.327  12.431   2.666 -0.0177  0.3949  0.2257
 3486W        W19380  11.080  15.787  16.392  0.4030 -0.0021  0.0446
 3487W        W19381  14.892  15.809   2.202 -0.1473 -0.0260  0.0689
 3488W        W19382   7.250   4.009  16.209  0.0169  0.0496 -0.0557
 3489W        W19383   0.932   7.441   5.442 -0.3284 -0.0137  0.0005
 3490W        W19384   1.771  15.343  13.119  0.1819  0.0942  0.1344
 3491W        W19385   0.596  14.285  12.975  0.0845 -0.0832 -0.1272
 3492W        W19386  10.831   0.167  12.527  0.1919  0.4228  0.1353
 3493W        W19387   2.528   9.695   4.179 -0.2672 -0.0302  0.0040
 3494W        W19388  14.784  15.954   1.668 -0.1061  0.0596  0.0302
 3495W        W19389   5.762   9.776   0.141 -0.0265 -0.1147  0.0421
 3496W        W19390  11.390   5.345  12.203 -0.2317 -0.0893 -0.2669
 3497W        W19391  16.885   7.755  12.499  0.2158  0.0812  0.3198
 3498W        W19392   7.946   2.220  14.938 -0.2015  0.1161 -0.1860
 3499W        W19393   4.608   8.914   5.955 -0.4297 -0.3112  0.2164
 3500W        W19394  14.279   8.475   2.910  0.1198  0.1922  0.2989
 3501W        W19395  12.780   3.193   5.515 -0.0071 -0.2907  0.2443
 3502W        W19396  12.684  15.526  12.563  0.0532 -0.0304  0.1384
 3503W        W19397  16.609   3.032  14.796 -0.0523  0.0133 -0.0626
 3504W        W19398   6.261   7.468  15.496  0.1140 -0.0397 -0.0262
 3505W        W19399   8.231   0.442   4.932  0.1621 -0.0740  0.0498
 3506W        W19400  14.193   8.745   5.496 -0.2595 -0.4396 -0.0507
 3507W        W19401  14.312  15.650   1.843  0.2307 -0.0509 -0.0047
 3508W        W19402   6.104  15.100   5.690  0.0793  0.1426 -0.0859
 3509W        W19403  16.745   9.442   3.093 -0.0606  0.1602 -0.2474
 3510W        W19404  12.785   6.839  15.146 -0.1335  0.0120  0.0544
 3511W        W19405  14.236   3.466   2.211 -0.0238  0.1432  0.1170
 3512W        W19406   0.152  11.544   1.023 -0.0505 -0.1691  0.1889
 3513W        W19407  17.621   1.867   1.531 -0.2623 -0.0964  0.0193
 3514W        W19408   2.628   6.720   5.252 -0.4742 -0.3303 -0.0714
 3515W        W19409   4.079  11.196   4.100 -0.4109 -0.1454 -0.3867
 3516W        W19410   5.636  14.525   1.323 -0.1292  0.1107  0.1512
 3517W        W19411   4.667  13.436   5.444 -0.0023  0.0416  0.0280
 3518W        W19412  14.652   2.328  14.343  0.1920  0.0538  0.0468
 3519W        W19413  15.927   6.639   1.926  0.0582 -0.0472  0.2667
 3520W        W19414   6.797  13.309  11.986  0.1103 -0.2024 -0.0038
 3521W        W19415   4.621   0.435   5.023  0.3967 -0.0217  0.0974
 3522W        W19416   6.951   2.174  14.440  0.3118  0.0728  0.2604
 3523W        W19417  14.073  17.594  15.060 -0.1476  0.1465 -0.2398
 3524W        W19418  14.192  13.011   1.003 -0.1356  0.1380  0.1486
 3525W        W19419  15.411  13.197  15.779  0.1433  0.2047 -0.0562
 3526W        W19420  16.850   1.675  11.779 -0.0133 -0.1626  0.1129
 3527W        W19421  12.145   8.154   0.294 -0.2723 -0.2256 -0.3420
 3528W        W19422   4.555  16.106   1.822  0.1525  0.0160 -0.0273
 3529W        W19423  10.762   6.969   1.658 -0.0480 -0.0086  0.1474
 3530W        W19424   1.959   3.297  13.906  0.0238 -0.0613  0.0916
 3531W        W19425  16.009   5.563   3.178  0.0161  0.0496 -0.0322
 3532W        W19426  16.422   2.067   1.787 -0.0913  0.0848 -0.0451
 3533W        W19427   4.576   0.519  14.328 -0.0893 -0.0802 -0.0619
 3534W        W19428  17.744   0.069   4.477 -0.0420 -0.0188 -0.2485
 3535W        W19429   1.357   5.653  12.742  0.0120  0.2807 -0.0845
 3536W        W19430   4.253   0.521  12.570 -0.5320  0.0702  0.0480
 3537W        W19431  15.043   4.504  12.762  0.2097  0.1135  0.2154
 3538W        W19432   1.364   1.678   0.892  0.0324  0.3239 -0.0307
 3539W        W19433   8.705   0.648   0.910 -0.2430  0.0188  0.3480
 3540W        W19434  14.324  16.217  15.241 -0.1687 -0.1518 -0.1006
 3541W        W19435   0.351   6.507   2.012  0.1746  0.1691  0.0566
 3542W        W19436  12.369   9.089  16.834  0.1638 -0.0787 -0.1754
 3543W        W19437   4.473   9.814  11.249  0.4291 -0.0230  0.0801
 3544W        W19438   6.833  13.787   5.803  0.0837 -0.0969 -0.1210
 3545W        W19439   5.944   2.659   4.397  0.0506  0.0692 -0.2664
 3546W        W19440   3.429  16.048  14.554 -0.0906 -0.0579  0.0900
 3547W        W19441  12.549   2.954  14.623 -0.0474 -0.1730 -0.0887
 3548W        W19442   0.984  14.752   3.212  0.1594 -0.0315  0.1986
 3549W        W19443  13.108   7.533  12.802  0.0933  0.0339  0.1193
 3550W        W19444   0.067   7.756  14.271 -0.1792 -0.1332 -0.1263
 3551W        W19445  14.671  10.342   0.415  0.1129 -0.1211 -0.0384
 3552W        W19446  14.770   7.099  16.437 -0.0734 -0.2142  0.2637
 3553W        W19447  10.756   3.085   2.681 -0.2478  0.0772  0.1389
 3554W        W19448   5.035   5.911   0.160 -0.0031  0.4344 -0.5084
 3555W        W19449  14.697  15.976  11.636 -0.2331 -0.2374 -0.0445
 3556W        W19450   8.366   2.902   0.785  0.1395 -0.0654 -0.1561
 3557W        W19451  10.481  15.170   0.531  0.0655  0.2580 -0.1663
 3558W        W19452   5.016   7.325  15.821 -0.2251  0.0203  0.0809
 3559W        W19453  12.940   0.744  16.852 -0.1010 -0.1681 -0.1157
 3560W        W19454   4.077   2.743   1.956 -0.1962  0.1907  0.4466
 3561W        W19455   5.114   5.649  14.561  0.1149  0.0157 -0.0451
 3562W        W19456   3.525   3.134   5.822 -0.0338 -0.0004 -0.2517
 3563W        W19457  13.476  12.865  15.655 -0.0312  0.1130 -0.2534
 3564W        W19458  16.231  10.778  16.303 -0.0137 -0.0196 -0.0972
 3565W        W19459   4.848  11.893  14.230 -0.1382 -0.1523 -0.0227
 3566W        W19460  11.435   4.909   3.406 -0.0023  0.1112 -0.3602
 3567W        W19461  10.862   8.175   2.592 -0.2087 -0.2125 -0.1958
 3568W        W19462   2.489  16.961  13.932  0.0665 -0.0132  0.0970
 3569W        W19463   2.807  14.075   4.304 -0.0513 -0.0629  0.1942
 3570W        W19464  15.042   8.634   0.759 -0.0252  0.0404 -0.3227
 3571W        W19465   3.810  13.257  11.877 -0.1222  0.1307 -0.1260
 3572W        W19466   0.077   4.415   4.364 -0.2330 -0.0417 -0.0282
 3573W        W19467  10.644   9.227  11.815 -0.1033  0.0904  0.0097
 3574W        W19468   1.649   7.279  16.563  0.0293 -0.0840 -0.1717
 3575W        W19469  17.271   6.486  16.255 -0.0962  0.0841  0.0965
 3576W        W19470   0.382  16.362   4.100  0.2813 -0.1292 -0.2597
 3577W        W19471  16.314  15.516   1.999 -0.2546 -0.0715 -0.3792
 3578W        W19472   4.879  17.222   0.916 -0.1217  0.4593  0.1520
 3579W        W19473   7.593  14.884  16.132 -0.2517  0.0360 -0.1881
 3580W        W19474  11.175  11.251   1.830  0.0341 -0.1465  0.1295
 3581W        W19475   4.061  13.794   3.263  0.1408 -0.0302  0.0637
 3582W        W19476   5.257   1.416  12.669  0.0459 -0.0553 -0.2278
 3583W        W19477   4.545  10.842   0.972 -0.2319 -0.0561  0.1836
 3584W        W19478  15.163  14.966  14.946  0.1380  0.0528 -0.0491
 3585W        W19479   4.648  12.535   3.067  0.0567  0.0513 -0.1298
 3586W        W19480  16.212   1.596   0.950  0.0976  0.5443  0.3291
 3587W        W19481  15.071   6.794   3.894 -0.0595  0.3861 -0.2743
 3588W        W19482   6.393   7.114  11.834 -0.1334 -0.1395  0.3065
 3589W        W19483   8.315  10.344  15.289  0.0240  0.0759  0.0643
 3590W        W19484  17.669   8.582  16.703 -0.1332  0.1907  0.0761
 3591W        W19485   3.309  11.421   1.715 -0.2812 -0.0191  0.2178
 3592W        W19486   2.568  16.927  11.329  0.4754 -0.0475  0.0379
 3593W        W19487   4.593  13.477   3.298  0.0968 -0.2796  0.1030
 3594W        W19488  15.887   0.187  16.330  0.1007 -0.0095 -0.2037
 3595W        W19489  16.711   6.365   1.284  0.0731 -0.0783 -0.0530
 3596W        W19490   2.594  13.250  15.639  0.1309  0.2211 -0.0891
 3597W        W19491  13.869   5.207   1.426 -0.0533 -0.0958 -0.0530
 3598W        W19492   3.469  11.630   3.374  0.0662 -0.0389 -0.2050
 3599W        W19493   0.989  17.224   5.801 -0.1130  0.2142 -0.0458
 3600W        W19494  13.478  17.003  11.208  0.1480 -0.0325  0.2288
 3601W        W19495  15.316   5.449  13.889 -0.2888 -0.1265 -0.0571
 3602W        W19496   7.177   9.405  12.011 -0.2025  0.1984  0.2641
 3603W        W19497   2.609   5.486  11.974 -0.0206 -0.0072 -0.0917
 3604W        W19498   9.442   2.284  15.582 -0.2040  0.1246 -0.1407
 3605W        W19499  16.436  14.803   3.125 -0.0427  0.0648 -0.2261
 3606W        W19500   5.046   2.270   0.171 -0.1083  0.2523  0.0456
 3607W        W19501   4.864   6.079   4.665  0.0755 -0.0377 -0.3348
 3608W        W19502   7.698  16.422  15.610 -0.3048 -0.0298  0.2730
 3609W        W19503   8.654   8.850  14.935 -0.3382  0.2440 -0.1541
 3610W        W19504   9.852   5.740   3.213  0.0213  0.1847 -0.1494
 3611W        W19505  12.951  15.967  15.984 -0.4158  0.2083 -0.0086
 3612W        W19506   0.137   0.381   2.291  0.0336 -0.0143  0.2543
 3613W        W19507   1.645  10.031   3.419 -0.0652  0.1117 -0.0148
 3614W        W19508   6.881  11.418   5.645  0.0718  0.0312 -0.1124
 3615W        W19509  10.384  15.379   3.438 -0.3326  0.1115 -0.3060
 3616W        W19510  16.498  17.640  13.374 -0.0784 -0.0512 -0.0405
 3617W        W19511  17.654   5.259   1.287 -0.0278 -0.1473 -0.1735
 3618W        W19512   5.930  12.349   5.445 -0.2239  0.0333 -0.2075
 3619W        W19513   6.309   9.263  13.030 -0.2378 -0.1134  0.4233
 3620W        W19514   6.304   2.905   0.767 -0.0586 -0.0152 -0.1410
 3621W        W19515  15.627   8.862  12.436  0.0048  0.1488 -0.0717
 3622W        W19516  13.601  13.535  13.016  0.2151  0.2633  0.2266
 3623W        W19517   4.643  16.703  14.639  0.0654  0.2407 -0.0929
 3624W        W19518   5.359  14.507  12.925  0.1729 -0.1635 -0.2487
 3625W        W19519  12.137   9.631  13.045 -0.1101  0.0081 -0.1714
 3626W        W19520   3.731   0.846   0.451 -0.1408  0.0348 -0.3293
 3627W        W19521   0.187   0.427   2.797  0.0017 -0.0797 -0.0893
 3628W        W19522  10.019   1.351   1.966  0.0830  0.3034 -0.0776
 3629W        W19523  11.383   1.205   4.360 -0.1112 -0.1999  0.1573
 3630W        W19524  14.547   7.967   0.562  0.0920  0.0062  0.0203
 3631W        W19525  14.423  11.269  12.436  0.4694 -0.0326 -0.0137
 3632W        W19526   4.924  15.683   5.176  0.1493 -0.1877  0.1987
 3633W        W19527  10.009  10.289  15.405  0.1098  0.0168  0.0746
 3634W        W19528   9.097  15.568   2.518 -0.0115  0.2801  0.0419
 3635W        W19529   7.842  12.353   1.762  0.3521 -0.1990  0.2985
 3636W        W19530  17.501  12.985  15.307  0.1584 -0.2575  0.0667
 3637W        W19531   0.121  16.456   5.754  0.1547  0.0388 -0.2999
 3638W        W19532  16.282   0.185  13.811 -0.0519 -0.0559  0.2689
 3639W        W19533   2.235   9.862   1.648 -0.0111 -0.0512 -0.0537
 3640W        W19534   5.933  10.896   3.852  0.0931  0.1407  0.0373
 3641W        W19535   7.870   2.094   5.341  0.0962 -0.1000 -0.0540
 3642W        W19536  14.068   0.862  13.570 -0.0434  0.4654  0.2866
 3643W        W19537  10.716  13.824   0.306  0.2627  0.1158 -0.1446
 3644W        W19538  13.303   4.564  11.713  0.3236  0.1210 -0.1262
 3645W        W19539   0.726  15.979  15.130  0.4368 -0.0632  0.2089
 3646W        W19540   2.962  15.294   2.590 -0.0456 -0.1769  0.1106
 3647W        W19541   6.350   4.078  11.914 -0.1427 -0.2526  0.0956
 3648W        W19542   8.805   4.105  12.512 -0.1907 -0.1962  0.0670
 3649W        W19543   2.091   7.057  16.348 -0.2869 -0.1583  0.2086
 3650W        W19544  11.278   3.079   3.711  0.2737  0.0836 -0.3147
 3651W        W19545  12.629  14.331  15.277 -0.0657  0.0120 -0.0167
 3652W        W19546  10.027  17.496  15.059 -0.4293 -0.0471  0.0895
 3653W        W19547  12.156   4.733   2.810 -0.0561 -0.0115  0.0750
 3654W        W19548  15.549   8.335  14.712 -0.2360 -0.0826 -0.1286
 3655W        W19549   4.213  17.218   1.459  0.1352  0.2034 -0.3384
 3656W        W19550  14.819   1.611   5.592 -0.0096  0.1050 -0.1847
 3657W        W19551   6.204   3.442   0.583  0.2122  0.0086  0.0806
 3658W        W19552   5.241   7.336   2.249 -0.1408  0.4608 -0.0066
 3659W        W19553  14.532   7.640   3.999 -0.2378 -0.2982  0.1430
 3660W        W19554  10.445   5.271  13.866 -0.2092 -0.0688  0.4422
 3661W        W19555   7.112  15.614  15.857  0.1909 -0.1563  0.3751
 3662W        W19556  13.990   1.477  14.045 -0.2639  0.2201  0.3140
 3663W        W19557  17.102   3.310  11.271  0.1089 -0.1798 -0.0231
 3664W        W19558   0.329   9.587   5.357 -0.0979 -0.2199  0.2713
 3665W        W19559  15.029  16.654  14.797 -0.1264  0.0515  0.2274
 3666W        W19560   6.494   9.850  13.966  0.2810  0.2890  0.2528
 3667W        W19561   3.658   1.661   2.058 -0.2690 -0.0264  0.3381
 3668W        W19562   5.909   0.464  14.146 -0.0338  0.3073  0.1597
 3669W        W19563   9.071  10.450  16.399 -0.1201 -0.1884 -0.1377
 3670W        W19564  16.210  13.021  15.261  0.3563  0.1525 -0.2212
 3671W        W19565   7.953   6.339  13.658  0.1474  0.3640 -0.0060
 3672W        W19566   7.768   3.689  11.878 -0.0947  0.2510  0.4918
 3673W        W19567   6.690   9.102  11.936 -0.4556 -0.1478  0.2143
 3674W        W19568   0.068   6.834  12.263  0.0081  0.0009  0.1350
 3675W        W19569  10.669   4.882  15.153  0.0406  0.0740  0.2269
 3676W        W19570  17.614  11.146  13.354  0.0857  0.2159 -0.0420
 3677W        W19571  16.585   1.744  14.688  0.2635  0.2490 -0.0292
 3678W        W19572   0.296  15.352  12.056  0.0210 -0.0100 -0.0780
 3679W        W19573  16.240  12.786   3.560 -0.2130 -0.3189 -0.0101
 3680W        W19574  13.831   5.504  16.736 -0.3090 -0.0150  0.1205
 3681W        W19575   7.804   0.147  15.097  0.1103 -0.2322 -0.0566
 3682W        W19576   6.224   4.558  14.597 -0.0031  0.0254  0.0313
 3683W        W19577  16.018   3.233   2.981  0.0902 -0.3773 -0.0715
 3684W        W19578   5.198   9.568  15.844 -0.1561  0.1592 -0.1081
 3685W        W19579  12.650  16.631  13.265 -0.2626  0.1594  0.1755
 3686W        W19580   8.046   0.086  16.907  0.2271 -0.1353  0.0505
 3687W        W19581   7.460   2.838   4.953  0.3367 -0.1618 -0.1893
 3688W        W19582   0.361   3.004  11.627  0.1658  0.0833 -0.0453
 3689W        W19583   0.435  12.085   4.606 -0.2142  0.1097  0.2543
 3690W        W19584   9.777  16.137   5.288 -0.2585 -0.0049  0.3613
 3691W        W19585  10.165   3.627  15.990  0.0643 -0.2869 -0.2377
 3692W        W19586   7.713  11.520   0.448  0.2392 -0.1073  0.0784
 3693W        W19587  11.009  13.346  14.885  0.0419  0.0734 -0.2178
 3694W        W19588   8.199  14.135   4.443  0.1837  0.4534 -0.0490
 3695W        W19589  17.767   9.801   0.740 -0.0654 -0.0282  0.1763
 3696W        W19590   8.812   3.978  15.877  0.1151  0.1792  0.2827
 3697W        W19591   2.381   8.660   1.583 -0.0030  0.0217  0.1754
 3698W        W19592  15.506   5.537   4.927 -0.0531  0.1141 -0.3824
 3699W        W19593  13.778   1.319  16.037 -0.2068  0.2278 -0.0520
 3700W        W19594   3.354   3.877  12.261  0.0964 -0.2424 -0.2221
 3701W        W19595   7.722   6.773   1.720 -0.0838 -0.0458  0.0805
 3702W        W19596  11.485   9.197   0.375  0.1402  0.0163 -0.4269
 3703W        W19597  10.964   3.686  11.489  0.2014  0.1771 -0.1698
 3704W        W19598  16.174   5.922   3.521 -0.0345 -0.0350  0.0073
 3705W        W19599   2.173   9.646   2.735 -0.3098 -0.0651 -0.0500
 3706W        W19600   2.728   6.073  13.631  0.1821  0.0091 -0.2184
 3707W        W19601   4.736  11.776  12.879 -0.1681  0.1585  0.4634
 3708W        W19602   7.995   9.317   3.074  0.0168 -0.0399  0.0610
 3709W        W19603   7.171   5.344   1.558  0.2906 -0.0228  0.1035
 3710W        W19604   2.070   1.250  16.052 -0.2309  0.2699  0.1768
 3711W        W19605   3.111   7.089   4.070 -0.2372  0.2389 -0.1022
 3712W        W19606   1.211   1.805  14.094  0.0905 -0.0075  0.0040
 3713W        W19607   9.132   6.648   3.491  0.2369  0.1414  0.0884
 3714W        W19608   1.963   0.505   3.754 -0.2608 -0.1000  0.0859
 3715W        W19609   7.940   0.188  11.578 -0.1727 -0.3123  0.1007
 3716W        W19610   2.094  13.108  12.164  0.4050 -0.0384 -0.1612
 3717W        W19611   6.317   7.990   4.478  0.0682  0.1623 -0.1957
 3718W        W19612   3.832   4.106  16.371 -0.1310  0.3421 -0.3261
 3719W        W19613   9.369  17.269  12.079  0.1206 -0.2173 -0.2298
 3720W        W19614   1.604   9.796   0.285  0.3641 -0.2080  0.2583
 3721W        W19615  15.883   3.799  16.303 -0.2543  0.2577 -0.1072
 3722W        W19616   3.072  12.881  12.307 -0.2694 -0.0931  0.0696
 3723W        W19617   0.948   9.974   1.968  0.2477 -0.1918 -0.2417
 3724W        W19618  17.246   5.385  13.329  0.0712 -0.0593 -0.1857
 3725W        W19619  12.507   6.527  11.993  0.2048 -0.1603 -0.1576
 3726W        W19620  16.064   5.210  13.033  0.1800  0.0047 -0.0801
 3727W        W19621   6.742   1.773  16.199  0.0475  0.0483 -0.3782
 3728W        W19622  13.296  17.825   1.943  0.1196  0.0559  0.1509
 3729W        W19623   4.872  12.326   1.060 -0.1782 -0.0001  0.2215
 3730W        W19624  16.101  13.573   2.778  0.2669 -0.0199  0.1674
 3731W        W19625   0.289  12.307  12.658  0.1543  0.4304  0.3735
 3732W        W19626  17.375  16.419   5.072 -0.3085 -0.1584 -0.2752
 3733W        W19627   1.354  17.006   4.620  0.2202  0.0964 -0.1143
 3734W        W19628   1.696   6.411  14.583  0.3172 -0.0945 -0.1346
 3735W        W19629   0.387   7.862   1.916  0.3924 -0.1503  0.0457
 3736W        W19630   8.622  11.545   0.525  0.0640  0.0665  0.2915
 3737W        W19631   1.293   9.014  14.572  0.2090  0.2781 -0.2438
 3738W        W19632   5.021   8.253  15.130  0.0630  0.0517 -0.0630
 3739W        W19633   1.194  14.035  14.519  0.2785  0.1646  0.1125
 3740W        W19634   4.713  15.282   5.460 -0.2765  0.3181 -0.2690
 3741W        W19635   4.437  12.953   5.200  0.0621  0.2658  0.3554
 3742W        W19636   0.404   0.104  13.995  0.0098  0.2788  0.1774
 3743W        W19637  15.534  17.100  16.417  0.2823 -0.1480  0.0195
 3744W        W19638  17.565  12.455   1.349 -0.4931  0.0191 -0.0220
 3745W        W19639  10.558   0.778  16.120 -0.1199 -0.0239  0.3059
 3746W        W19640  11.985   7.485  14.648  0.0253 -0.0701 -0.1197
 3747W        W19641   7.974   3.471  15.891 -0.2691 -0.3904 -0.1145
 3748W        W19642  15.718   3.679   3.150 -0.0909  0.3495 -0.1534
 3749W        W19643   6.474  10.581   3.443 -0.0665 -0.1113  0.1683
 3750W        W19644  10.142   8.825  12.555 -0.0663  0.1969 -0.2374
 3751W        W19645   9.120  17.354  15.997  0.3107 -0.0497 -0.1597
 3752W        W19646   7.991   2.624   3.518  0.2011 -0.0636 -0.2140
 3753W        W19647  13.265   6.708  15.324  0.1632 -0.3288 -0.0324
 3754W        W19648   5.965   7.141  11.598  0.0195  0.1633  0.0009
 3755W        W19649   9.593   8.755  13.402 -0.4857  0.1206 -0.0425
 3756W        W19650  14.767   1.594   1.391 -0.0140 -0.0509 -0.0299
 3757W        W19651   1.544  12.273  16.344  0.0236  0.0519  0.0434
 3758W        W19652   9.551  13.287   3.140 -0.2693  0.1945 -0.5314
 3759W        W19653  15.426   5.051   0.777  0.0574  0.1496 -0.1119
 3760W        W19654  13.679  16.186   4.393  0.3050 -0.0918  0.2647
 3761W        W19655   9.769   6.623  16.588  0.1100  0.1225  0.3395
 3762W        W19656  12.992  16.829   1.593 -0.0881 -0.1356 -0.0896
 3763W        W19657  13.969  11.460   5.553  0.0289 -0.0372 -0.0412
 3764W        W19658  13.882   4.594  11.577 -0.1144 -0.1737  0.1527
 3765W        W19659  16.226  13.714   0.874  0.1353  0.1860 -0.1898
 3766W        W19660   9.475  16.637   2.529 -0.1213 -0.0413  0.1910
 3767W        W19661   9.139   9.410   2.342  0.0536 -0.1660 -0.4169
 3768W        W19662   2.070   1.606  13.092 -0.1608  0.1697 -0.0504
 3769W        W19663   8.269   7.187  14.007  0.1804  0.0366  0.0538
 3770W        W19664   7.311  12.192  16.865 -0.3562 -0.0784  0.0273
 3771W        W19665   6.707  17.555   4.106  0.1240  0.0950 -0.0875
 3772W        W19666   1.347   6.081   0.765 -0.0826  0.0033  0.1996
 3773W        W19667   2.498   5.604   2.924 -0.1668 -0.0214  0.1548
 3774W        W19668   6.115   0.220   3.783  0.0675  0.3452 -0.0378
 3775W        W19669  13.490   1.351  13.355 -0.0824 -0.1151  0.2077
 3776W        W19670  10.833  10.481   5.091 -0.1726  0.2251 -0.1525
 3777W        W19671  16.965   3.953  14.211  0.1495  0.0496  0.2450
 3778W        W19672  10.961   7.545   5.050 -0.2050 -0.0020  0.0039
 3779W        W19673   4.696   4.691  16.354 -0.3185  0.0913 -0.4613
 3780W        W19674   7.444  17.725   2.524 -0.0615 -0.1794  0.1360
 3781W        W19675   0.147  15.824   2.812  0.0565  0.0953  0.1132
 3782W        W19676  13.178   6.754  14.792  0.1537  0.1275 -0.0085
 3783W        W19677   2.752   4.469  13.407  0.2431  0.4368  0.0613
 3784W        W19678   9.961   2.884   0.181  0.1665 -0.0918  0.1570
 3785W        W19679  14.947  11.038  15.077  0.3447  0.2821 -0.1274
 3786W        W19680   2.392   3.743   1.979  0.3621  0.0127 -0.4179
 3787W        W19681   7.681  16.799   1.001  0.0398  0.0629  0.3505
 3788W        W19682   8.285   7.332  13.373 -0.1083 -0.0355  0.3489
 3789W        W19683  15.405  13.479   6.563  0.1452 -0.3614  0.4106
 3790W        W19684  13.334   1.248   3.051 -0.0034  0.2228  0.0036
 3791W        W19685   8.004  10.773  13.086  0.0769  0.1162 -0.0428
 3792W        W19686   8.959   1.724   3.580 -0.3019 -0.1283  0.1849
 3793W        W19687  14.376  17.305   5.594 -0.1235  0.1194  0.2484
 3794W        W19688   8.493   3.862  16.600  0.1434  0.0393  0.2860
 3795W        W19689  16.804   3.457  10.903  0.0843  0.0195  0.0745
 3796W        W19690  14.776   3.121  15.558  0.2624  0.0394  0.0202
 3797W        W19691  14.217   9.960   2.776  0.0348 -0.1579 -0.1579
 3798W        W19692   0.926  15.516  12.685  0.1724  0.2307  0.0004
 3799W        W19693  17.529  15.247  13.554 -0.3223  0.0663 -0.1857
 3800W        W19694   4.331   1.498  13.229  0.0487  0.0812  0.6258
 3801W        W19695  10.034   8.886  13.128 -0.2034  0.0691 -0.0792
 3802W        W19696   0.507  14.589  16.124 -0.1511  0.0502 -0.1270
 3803W        W19697   6.220   3.308  15.331 -0.0576  0.0674 -0.1000
 3804W        W19698   4.973  12.727   0.095  0.3221 -0.3153  0.2947
 3805W        W19699   5.074   9.411  11.979 -0.1465  0.0115  0.0659
 3806W        W19700   1.313  14.547  12.285 -0.2098  0.3348 -0.1259
 3807W        W19701  17.293   2.447  13.127 -0.1201 -0.1338  0.1708
 3808W        W19702   6.884   3.721   3.909  0.1681  0.3826 -0.1330
 3809W        W19703   2.918  10.374   2.327 -0.1942  0.1127  0.0387
 3810W        W19704   3.499  17.613   4.556 -0.2169  0.0550 -0.4047
 3811W        W19705  13.390   0.913  15.105 -0.2148 -0.0129  0.0834
 3812W        W19706  16.109  14.491   5.472 -0.1321 -0.0601 -0.3638
 3813W        W19707   0.116  15.330  14.809  0.1103 -0.0393  0.2176
 3814W        W19708   9.771  11.208   3.171  0.2275  0.0797  0.1960
 3815W        W19709   5.167   1.779  14.814  0.0570 -0.2847  0.3203
 3816W        W19710  17.200  13.448  11.707  0.2069 -0.0613 -0.0622
 3817W        W19711  16.787   6.228  15.709 -0.0216 -0.1978 -0.0361
 3818W        W19712  15.598   4.306   5.775 -0.0401  0.1416  0.0215
 3819W        W19713   1.285   4.100  16.538  0.0689 -0.0675 -0.2138
 3820W        W19714   1.590   3.320   2.505  0.3055  0.1657 -0.3309
 3821W        W19715  11.130  15.742  14.117  0.0992  0.1731 -0.2056
 3822W        W19716   5.867  11.212   1.178  0.1975 -0.0548  0.0944
 3823W        W19717  16.830  16.621  16.040 -0.1250  0.3079 -0.3218
 3824W        W19718  11.517  12.575   2.501  0.1276  0.1926 -0.2047
 3825W        W19719  10.031  14.585   5.555  0.2740 -0.1527  0.0010
 3826W        W19720  14.107  16.936   0.798  0.0538 -0.0469  0.2584
 3827W        W19721  10.856  14.074   5.554 -0.2319 -0.0730  0.2065
 3828W        W19722   8.457  11.621  15.229  0.0300  0.0768 -0.0129
 3829W        W19723   6.749   8.884  13.440 -0.1407  0.2261  0.0810
 3830W        W19724  16.335   9.753   3.087 -0.3935  0.0806  0.5628
 3831W        W19725   1.040   3.956  15.250 -0.0380 -0.0645  0.0939
 3832W        W19726  11.033   5.368   1.325  0.3129 -0.2078  0.1753
 3833W        W19727  12.466   3.522  14.820  0.1013 -0.0536 -0.0534
 3834W        W19728   3.077   8.663  13.837 -0.1715 -0.0853 -0.0785
 3835W        W19729  11.726  15.566   4.307 -0.4680 -0.1758 -0.0594
 3836W        W19730  16.348   1.859   3.267 -0.1589 -0.0534  0.2871
 3837W        W19731  14.985  16.607   3.196 -0.1225 -0.1015 -0.3744
 3838W        W19732  15.545   8.748   0.727  0.1272 -0.2031  0.0736
 3839W        W19733  10.736   5.024  13.359 -0.0969 -0.0318 -0.0121
 3840W        W19734   5.334   8.755  14.277  0.3836  0.0086 -0.0724
 3841W        W19735   3.403   8.260  15.060 -0.1100 -0.2003 -0.0052
 3842W        W19736   7.213   3.279  16.458 -0.0662  0.0731 -0.1013
 3843W        W19737   6.126   7.578  11.840 -0.3582 -0.1374  0.0054
 3844W        W19738   3.042   9.293  13.349  0.1739  0.2500 -0.2512
 3845W        W19739   4.546   1.328   0.731 -0.1082 -0.1049  0.0766
 3846W        W19740  13.493   2.209   4.006  0.2047 -0.2244  0.1703
 3847W        W19741   3.628  10.087   2.883  0.0689  0.1677 -0.1901
 3848W        W19742  12.766   4.557   2.470 -0.1280 -0.3220  0.1440
 3849W        W19743   6.351  15.246   1.965  0.0482  0.1578 -0.1925
 3850W        W19744   6.920  10.467   0.120 -0.1515 -0.1535 -0.1448
 3851W        W19745  10.633   0.212   5.197  0.0352 -0.2727 -0.1361
 3852W        W19746  16.476  16.870   3.623  0.1152  0.1996  0.0381
 3853W        W19747   5.991   7.229   3.382 -0.3027 -0.0215 -0.0983
 3854W        W19748   8.969   4.291   1.658  0.0245  0.2798  0.2265
 3855W        W19749  11.146   1.108  10.333 -0.0978  0.1883 -0.1771
 3856W        W19750   7.127   4.447  12.385  0.0218  0.0678  0.1468
 3857W        W19751   4.382  11.478   3.841 -0.0301 -0.0033  0.0453
 3858W        W19752  14.710   0.797  13.473  0.3071  0.0113  0.0700
 3859W        W19753   9.734   9.065   5.684 -0.3138  0.0230 -0.2201
 3860W        W19754   4.404   0.738   2.355  0.2349  0.3121 -0.2270
 3861W        W19755  12.940   4.992   1.185 -0.3209 -0.2400 -0.1979
 3862W        W19756  14.296   0.806  13.104  0.0033 -0.0684  0.4728
 3863W        W19757  15.975  11.647   2.960  0.0093  0.0680 -0.2091
 3864W        W19758  10.740  12.831  12.473  0.0842 -0.0120  0.0848
 3865W        W19759  12.274  15.043   1.582 -0.0240  0.1991 -0.0832
 3866W        W19760   4.838   9.784   2.968  0.1244  0.1543  0.0655
 3867W        W19761   7.506   3.069  11.863 -0.0248  0.2664 -0.3949
 3868W        W19762   0.224  12.973  14.472  0.1757  0.2388  0.0977
 3869W        W19763   2.019   2.499  16.339 -0.1484  0.2105  0.4215
 3870W        W19764   9.213   3.780  14.752  0.0005  0.1993  0.1683
 3871W        W19765   2.586  10.993  15.896 -0.0611 -0.0183  0.0722
 3872W        W19766  12.941  17.138  11.003 -0.4040  0.0017  0.3195
 3873W        W19767   5.315  15.684   6.031 -0.0552  0.2911  0.2058
 3874W        W19768  13.366   2.287   3.389  0.0425 -0.0367  0.0307
 3875W        W19769   8.841   4.627  12.577  0.1042 -0.1160  0.2640
 3876W        W19770  17.510  14.197   3.868 -0.0040 -0.2341  0.3728
 3877W        W19771   5.100   4.672   1.379  0.0909 -0.2983  0.0974
 3878W        W19772   8.873   5.463  15.667  0.0384 -0.0906 -0.2334
 3879W        W19773  15.057   2.094  12.726 -0.0488  0.0627 -0.0818
 3880W        W19774   3.501  17.183  12.935 -0.2625 -0.2780  0.2047
 3881W        W19775   5.475  14.868  13.414 -0.0737 -0.1097  0.0457
 3882W        W19776   7.202   8.219   5.456  0.0287  0.0548 -0.4739
 3883W        W19777  16.255   3.398  13.275  0.1019  0.3879 -0.0093
 3884W        W19778   9.056   2.332  11.654  0.1129 -0.0700  0.2093
 3885W        W19779  17.242   4.014   0.229  0.1445  0.1102  0.1013
 3886W        W19780   7.254   6.917   3.701 -0.0613 -0.2102 -0.4470
 3887W        W19781   8.842   2.673   2.374  0.3877  0.2159  0.0421
 3888W        W19782  13.581   6.965   5.814  0.1171 -0.3392  0.4729
 3889W        W19783   9.803   3.248   4.881 -0.1741 -0.2790 -0.1723
 3890W        W19784  13.868   6.290  16.271  0.3895 -0.1534 -0.1621
 3891W        W19785  17.372  16.568   4.587  0.0003  0.2089  0.0365
 3892W        W19786  15.580  12.162  13.135 -0.1436 -0.0688 -0.0488
 3893W        W19787  13.404   5.765  14.977 -0.1541  0.3517 -0.0376
 3894W        W19788  14.415  15.222  15.555 -0.2989  0.1351  0.1438
 3895W        W19789  17.305   6.906  12.834 -0.0162 -0.1528 -0.1311
 3896W        W19790   7.545  13.440   6.489 -0.1125  0.0837 -0.1773
 3897W        W19791   0.409   8.629   0.204  0.0489  0.1104 -0.2455
 3898W        W19792  15.051   1.847  13.329 -0.1276 -0.1129  0.0451
 3899W        W19793   9.005   6.118   1.798  0.1883  0.1191 -0.2785
 3900W        W19794   4.260   4.041  12.343 -0.2387  0.0306  0.0577
 3901W        W19795   4.243  12.245  13.868 -0.1430  0.1759  0.0114
 3902W        W19796  12.835   9.026  14.085 -0.0526 -0.2372 -0.4738
 3903W        W19797  12.630   7.419   0.095  0.1805 -0.0161  0.2425
 3904W        W19798   8.137  14.133  12.408  0.4344 -0.1793 -0.4111
 3905W        W19799   1.706   9.643  15.528  0.1917 -0.2667  0.3805
 3906W        W19800   7.681  16.611   0.245  0.0870 -0.0928  0.1543
 3907W        W19801  16.571   4.419  14.231  0.0860 -0.3041 -0.0515
 3908W        W19802  15.191   3.277  15.883 -0.2503 -0.1162 -0.2025
 3909W        W19803  16.720   6.013   2.576  0.1991 -0.3609  0.1424
 3910W        W19804  11.832  12.304   2.805 -0.1176  0.1043 -0.0532
 3911W        W19805  11.691   6.856   3.081 -0.1191 -0.1167 -0.1989
 3912W        W19806   6.368   6.585  11.865 -0.0876  0.4025  0.2999
 3913W        W19807   0.227   0.764   0.219 -0.2777 -0.0244  0.0752
 3914W        W19808   9.694   8.047  16.883 -0.0204 -0.0380 -0.2566
 3915W        W19809   4.478  11.933   4.585  0.0173  0.0020 -0.1269
 3916W        W19810   5.041  11.826   3.241 -0.1277  0.1347  0.0833
 3917W        W19811  10.311  16.296   2.533  0.2748 -0.1634  0.1294
 3918W        W19812  15.905  14.703  15.076  0.1233  0.3369 -0.0011
 3919W        W19813   3.371  13.623   3.724 -0.2407 -0.1510 -0.2810
 3920W        W19814   1.492  11.361  14.557  0.0514  0.2398  0.1454
 3921W        W19815   4.950   5.238  14.309 -0.0203  0.3373 -0.2551
 3922W        W19816   4.597   4.687   2.836 -0.2844  0.2068 -0.3282
 3923W        W19817   0.688   2.497  16.891  0.1987  0.1460  0.3792
 3924W        W19818  13.043   4.982  14.009 -0.0926  0.0810  0.1774
 3925W        W19819  17.744   7.667   4.687 -0.2274 -0.1206 -0.0252
 3926W        W19820  15.595   8.988  15.359  0.2713  0.2928 -0.1966
 3927W        W19821  14.796   0.971   5.418 -0.0737  0.2810  0.0385
 3928W        W19822   6.649   2.908  13.933  0.2441  0.1691 -0.3607
 3929W        W19823   3.663  12.770   1.971  0.0952 -0.0333  0.2974
 3930W        W19824   7.432  11.218   2.934 -0.2133 -0.1452 -0.0722
 3931W        W19825   4.947  11.936  16.631 -0.0098  0.2965  0.0972
 3932W        W19826   0.902   1.787   4.515  0.0485 -0.0489  0.1521
 3933W        W19827   5.274   9.465   2.335 -0.2885 -0.2103 -0.0079
 3934W        W19828   2.204   0.592   1.983  0.0556  0.0240  0.0605
 3935W        W19829   6.160  13.678  13.263  0.3888 -0.1796  0.3105
 3936W        W19830   1.055  15.247  11.651  0.3526 -0.0827  0.1000
 3937W        W19831  12.894  10.417  12.448  0.3196 -0.0707 -0.1941
 3938W        W19832   4.309   8.605   5.007 -0.1003 -0.1072 -0.2683
 3939W        W19833  12.721   0.184  13.584  0.0530  0.1745  0.0859
 3940W        W19834   5.651  12.636  15.084  0.1277  0.1642 -0.3185
 3941W        W19835   3.079   6.913   3.501 -0.1227 -0.0501  0.1548
 3942W        W19836   5.689   3.697  16.121 -0.2503  0.3845 -0.1065
 3943W        W19837  13.680  13.544   5.785 -0.0666  0.0982 -0.1239
 3944W        W19838  11.627   8.211   0.205 -0.0499 -0.0246  0.1550
 3945W        W19839  17.319  14.715  11.805  0.1021 -0.1266  0.0130
 3946W        W19840   0.287  13.429   0.545  0.0040  0.2540 -0.0960
 3947W        W19841   5.587   7.183   0.804 -0.1957 -0.0568 -0.2856
 3948W        W19842  14.598   0.004  13.479 -0.0875  0.0831  0.2247
 3949W        W19843   7.637  16.572  11.814  0.1456  0.2328 -0.1911
 3950W        W19844   4.577   2.196  15.056  0.0944 -0.0963  0.1835
 3951W        W19845   4.968   5.201  12.452 -0.0195 -0.2278 -0.0289
 3952W        W19846  10.318  17.285   5.860 -0.0933  0.0182 -0.2747
 3953W        W19847   3.237   8.045  12.010  0.0032 -0.1142  0.1597
 3954W        W19848   5.292   2.308  13.042  0.0002 -0.1412  0.3893
 3955W        W19849  17.675   7.592   5.242 -0.1135 -0.0492  0.4733
 3956W        W19850  15.271  13.194   2.646  0.0715  0.0784  0.1366
 3957W        W19851   9.273  16.136   0.599 -0.1290  0.0420 -0.1256
 3958W        W19852  10.961  11.841   2.373  0.1868  0.2606 -0.0410
 3959W        W19853   9.214   8.428   1.965  0.0633 -0.2115  0.4054
 3960W        W19854  11.484  15.961  12.638 -0.1849 -0.1837  0.0609
 3961W        W19855  11.809  15.040   4.235 -0.1371 -0.0132  0.0641
 3962W        W19856   2.227   0.818  11.452  0.2673 -0.0751  0.1009
 3963W        W19857  11.460  12.518  15.274  0.0347  0.1773  0.1384
 3964W        W19858   2.383  17.363  11.485  0.1783  0.0323  0.0752
 3965W        W19859   7.799   1.853   4.845 -0.0657  0.3232 -0.1696
 3966W        W19860  14.192  10.201   0.393 -0.0659 -0.3591 -0.3033
 3967W        W19861   0.581   5.225   2.199  0.3177  0.0166  0.2632
 3968W        W19862   1.857   7.823  13.854  0.1181 -0.0235  0.1273
 3969W        W19863   4.762   3.734  16.143 -0.0435  0.2619  0.1301
 3970W        W19864   9.645   9.734  13.347 -0.2767  0.0807  0.2241
 3971W        W19865  10.850   2.160   3.894  0.1093 -0.2135 -0.1620
 3972W        W19866   2.560  10.755   1.211  0.1369  0.1383  0.1399
 3973W        W19867  11.371   3.174  13.180 -0.1317  0.0072  0.1546
 3974W        W19868   2.523   4.915   0.544 -0.2826  0.0196  0.0357
 3975W        W19869   9.440  13.757   2.704 -0.0125 -0.1358  0.0311
 3976W        W19870  14.198   6.324   3.323  0.5415  0.2166  0.4061
 3977W        W19871  16.580   1.267   0.995 -0.1027 -0.0568 -0.2187
 3978W        W19872   5.479   2.435   0.338 -0.3096  0.1268 -0.0734
 3979W        W19873  16.737   0.151  16.065 -0.0992 -0.1772 -0.2312
 3980W        W19874   9.832   6.361   1.554 -0.2966 -0.1876  0.3907
 3981W        W19875   8.519   4.213   0.088 -0.0166 -0.0663  0.0445
 3982W        W19876   1.923  17.507   0.348 -0.0637 -0.1957  0.3032
 3983W        W19877  14.584   8.898  16.384 -0.1877 -0.1565  0.1787
 3984W        W19878   2.884  11.103   1.443 -0.0873  0.0458 -0.2008
 3985W        W19879  12.117   2.449   4.679 -0.0788  0.3094 -0.2363
 3986W        W19880  16.457  11.218   4.272 -0.0200 -0.1125  0.4756
 3987W        W19881   8.003   0.320   5.521  0.0514  0.0165  0.0878
 3988W        W19882  14.345   4.691  10.425 -0.0392 -0.1909  0.1276
 3989W        W19883   7.818   0.134   1.765 -0.0672 -0.2084 -0.0367
 3990W        W19884   7.636   3.205  14.147  0.1004  0.1745  0.1569
 3991W        W19885  14.534  15.240   3.351 -0.1359 -0.0847 -0.3235
 3992W        W19886   2.188  10.218   4.931  0.0639 -0.0211  0.0416
 3993W        W19887   4.537   1.389   1.620 -0.1293 -0.2004 -0.1782
 3994W        W19888  17.547  13.244   6.046 -0.2338  0.1009  0.0644
 3995W        W19889  14.012   5.982   4.555 -0.2712 -0.0265 -0.2392
 3996W        W19890  17.017   5.841   2.078  0.1390 -0.2914 -0.2587
 3997W        W19891   4.331  16.290  15.901 -0.0568  0.0767 -0.0317
 3998W        W19892  17.735   7.709  15.185  0.2444 -0.2398 -0.0565
 3999W        W19893  10.328   5.599   0.389 -0.0993 -0.2139 -0.0933
 4000W        W19894  11.717  15.589   1.104  0.1322  0.0161 -0.0194
 4001W        W19895  10.420   1.051   3.175 -0.0348  0.1999 -0.1274
 4002W        W19896  14.870   7.755  13.527 -0.1071 -0.2748  0.4614
 4003W        W19897  13.123  12.486  15.573  0.1827  0.0376  0.1044
 4004W        W19898   0.699  12.279  13.476  0.1266  0.0921 -0.1071
 4005W        W19899   3.099   4.253   4.611  0.0234 -0.0232  0.1604
 4006W        W19900   9.567  17.786   2.214 -0.4246  0.1723 -0.0024
 4007W        W19901  10.295  15.013   0.099  0.0244  0.2388 -0.2429
 4008W        W19902   8.826  13.823   2.828  0.0039  0.2323  0.0007
 4009W        W19903   1.422   8.574  15.878  0.1417  0.1350 -0.1285
 4010W        W19904  10.614   5.014   2.539 -0.0628  0.1211  0.0662
 4011W        W19905  12.417   0.239  14.637  0.0628  0.1232 -0.0893
 4012W        W19906  13.608   4.161  11.784 -0.2257  0.2286 -0.1244
 4013W        W19907  17.560  14.992   1.584  0.0378 -0.2050 -0.0760
 4014W        W19908   1.838   0.326  13.281 -0.0194 -0.2641  0.2324
 4015W        W19909  13.608  13.070  16.737 -0.0739  0.0923  0.1288
 4016W        W19910  15.359   1.094  16.698 -0.1060 -0.0490  0.0067
 4017W        W19911   8.648   1.658   4.503  0.0315  0.0694  0.0499
 4018W        W19912   0.917  17.660   3.688  0.0915  0.2015 -0.0317
 4019W        W19913  11.569   0.811  10.194  0.1428  0.0843 -0.1234
 4020W        W19914  16.346  11.764  12.710  0.1166 -0.2727 -0.0401
 4021W        W19915  15.697   6.257   4.336 -0.1404 -0.1433 -0.0788
 4022W        W19916   4.376   8.037   5.473 -0.0770 -0.0154 -0.1274
 4023W        W19917   4.626   2.416   3.809 -0.0187 -0.2474  0.3263
 4024W        W19918   5.890  17.385  13.702 -0.1524  0.0342 -0.0362
 4025W        W19919   1.598   9.578   2.597 -0.1248  0.1913 -0.0987
 4026W        W19920   3.437  12.356  15.432  0.1426  0.1351  0.0409
 4027W        W19921  13.190  17.160  15.395 -0.2819 -0.1638 -0.2691
 4028W        W19922   8.789   9.833   3.770 -0.1704 -0.2198 -0.0760
 4029W        W19923  16.369  15.169  15.860 -0.2234  0.0095  0.1436
 4030W        W19924  16.915   1.734  16.306  0.5744 -0.0914 -0.0761
 4031W        W19925  17.079   8.732  14.692  0.0758 -0.2822  0.1087
 4032W        W19926   5.910   9.525  15.235  0.3417 -0.0412  0.1305
 4033W        W19927  13.179   7.307  15.518 -0.1220 -0.0086 -0.2006
 4034W        W19928   3.181  12.097   3.341 -0.2171  0.1544  0.1416
 4035W        W19929   8.360   2.852  16.246  0.0420  0.3257  0.0459
 4036W        W19930   5.251   8.165  14.666 -0.1214 -0.1324  0.1888
 4037W        W19931   7.877   7.339   2.000 -0.3194  0.1914 -0.1039
 4038W        W19932  15.743   5.295   3.994  0.0791 -0.0158  0.1634
 4039W        W19933  14.456   7.252   2.076 -0.0014  0.0387 -0.0645
 4040W        W19934  16.135  11.595   4.423 -0.1413  0.0602  0.0803
 4041W        W19935   4.492   2.624  13.957 -0.3722 -0.0034  0.0966
 4042W        W19936  15.338   0.396   0.931  0.0399  0.0831  0.3215
 4043W        W19937   0.431  14.610  13.302  0.2670 -0.2124  0.0293
 4044W        W19938   0.140  16.197   3.693  0.0141 -0.0521  0.0261
 4045W        W19939  12.669   3.458   3.512 -0.2350  0.1653 -0.1472
 4046W        W19940   0.265   6.195   0.548 -0.0281  0.1649  0.0319
 4047W        W19941   6.690   6.504  14.880  0.0458  0.0992 -0.1899
 4048W        W19942   7.228   5.602  12.336 -0.1957  0.1956  0.1471
 4049W        W19943  10.613   6.432   3.662 -0.1531  0.0967  0.0056
 4050W        W19944  10.525   6.313   4.982  0.0240  0.0223 -0.0467
 4051W        W19945   2.282  16.368   0.912  0.1981  0.1254 -0.0301
 4052W        W19946  14.526  10.537   6.415  0.0502  0.2256 -0.1408
 4053W        W19947  10.449  11.678  12.505 -0.2055 -0.1606 -0.2491
 4054W        W19948   8.338   1.323   3.579 -0.1197 -0.0984 -0.0306
 4055W        W19949   4.170  14.248   3.380 -0.0591  0.0544 -0.0062
 4056W        W19950   7.401   7.241   4.103  0.1115  0.1254  0.0609
 4057W        W19951   8.287   5.664   4.804 -0.4209 -0.1564 -0.0180
 4058W        W19952   7.679   6.784  13.785  0.1153  0.0584  0.0111
 4059W        W19953   5.031  13.586  13.516 -0.2910 -0.0647  0.0720
 4060W        W19954  12.704   3.178  12.217  0.2990  0.0567 -0.3495
 4061W        W19955   2.887   6.159   0.175  0.2754  0.2160  0.2070
 4062W        W19956   4.781   3.059  12.121  0.3223 -0.0889  0.1041
 4063W        W19957   3.300   9.103   4.407  0.0527  0.0293  0.2988
 4064W        W19958  13.700  10.861   6.217 -0.0358 -0.0141  0.0006
 4065W        W19959   1.572   8.479  11.265  0.1370  0.3678 -0.0937
 4066W        W19960   4.632   2.849  12.556  0.3331 -0.2615  0.0218
 4067W        W19961  12.805   4.500   1.212 -0.0480  0.1108 -0.2791
 4068W        W19962  14.012   3.476   5.250 -0.0368 -0.0228  0.1542
 4069W        W19963  11.229  15.202   1.962  0.2106 -0.2778 -0.2896
 4070W        W19964   6.379  16.701   0.136  0.2453  0.3129 -0.0205
 4071W        W19965   0.498   2.581  14.526 -0.0164 -0.1680 -0.1013
 4072W        W19966  10.219  13.109   0.001  0.2220 -0.2834 -0.2661
 4073W        W19967   7.339   9.971  14.247 -0.0948 -0.0513 -0.1775
 4074W        W19968  10.376  10.183   3.604 -0.0214 -0.1069  0.3007
 4075W        W19969   1.007  16.486  14.434 -0.5006 -0.0913 -0.2848
 4076W        W19970   0.364   6.041   3.741 -0.1310  0.1546  0.1379
 4077W        W19971  15.162  13.990  12.991 -0.1799  0.0031  0.1978
 4078W        W19972   0.424   9.271   2.465 -0.1788  0.2823  0.0377
 4079W        W19973  10.337   0.054   4.827 -0.2486 -0.1389 -0.0150
 4080W        W19974  14.699  14.461  14.036  0.0994 -0.0475 -0.1736
 4081W        W19975  10.801   6.132  16.664 -0.0595  0.1652 -0.2526
 4082W        W19976   6.841  10.166   2.170 -0.0114 -0.1434  0.1796
 4083W        W19977  13.517  13.521  13.772 -0.3426 -0.3103 -0.0934
 4084W        W19978  17.044   6.775  15.338 -0.1134 -0.1257  0.1735
 4085W        W19979  15.431   6.162  15.664  0.1840 -0.1567  0.4641
 4086W        W19980  15.669  12.011   3.198  0.2325  0.3979 -0.0442
 4087W        W19981  10.555   0.378  15.242 -0.0283 -0.3237  0.0802
 4088W        W19982   3.054   0.817   5.854  0.1787  0.3130 -0.0454
 4089W        W19983   7.881   3.511   4.968  0.0106 -0.0802  0.1817
 4090W        W19984   5.000   3.345  13.395 -0.0505 -0.1402  0.1677
 4091W        W19985   1.314  13.563   6.441 -0.4257 -0.1358  0.0479
 4092W        W19986   8.182  16.866   2.661 -0.0911  0.0666  0.2159
 4093W        W19987  10.462   6.035   4.010 -0.2686  0.0434 -0.1964
 4094W        W19988  15.965  14.968   5.297  0.0519 -0.1534  0.0838
 4095W        W19989   8.653  16.803  15.712  0.0736 -0.2985  0.2577
 4096W        W19990  15.205   4.250  11.668 -0.0629 -0.0045  0.0200
 4097W        W19991   0.837   2.906   2.860 -0.1738 -0.0104  0.2564
 4098W        W19992  15.732  10.513   1.522  0.0171  0.2096  0.0677
 4099W        W19993  15.514  15.225   0.168 -0.2163  0.0830  0.2588
 4100W        W19994   5.137  12.878   2.978  0.0597 -0.3209  0.2053
 4101W        W19995   5.818   7.269   6.260  0.0532 -0.0414 -0.1871
 4102W        W19996   9.888  11.639   3.474  0.0375  0.1063  0.3405
 4103W        W19997  16.904   6.943   4.264 -0.1701 -0.1401 -0.0718
 4104W        W19998   3.407   6.620  11.760 -0.0031 -0.1195 -0.3988
 4105W        W19999   0.508   3.619  14.275 -0.0897 -0.0487  0.0158
 4106W        W20000   4.390  10.979   1.470 -0.0061 -0.1727 -0.1919
 4107W        W20001  12.707  12.944   1.874 -0.0734 -0.0610 -0.1133
 4108W        W20002  10.501  15.105  12.005 -0.1400 -0.0387 -0.1391
 4109W        W20003   5.534   8.409  15.062  0.1068  0.0779 -0.0696
 4110W        W20004  10.117   2.272   1.913  0.1457 -0.1511  0.1199
 4111W        W20005  11.451  11.349   0.831  0.0967 -0.1700 -0.1010
 4112W        W20006  14.583   3.519   5.964 -0.1321 -0.4021 -0.2638
 4113W        W20007   4.086   4.092   3.339  0.0476 -0.1687  0.2658
 4114W        W20008   6.719   0.172  12.137 -0.0319 -0.4195 -0.1291
 4115W        W20009   3.852   9.699   1.103  0.2543 -0.1393 -0.1522
 4116W        W20010   2.720  16.514   2.983  0.1200  0.0560  0.1173
 4117W        W20011  10.724  12.871   4.013  0.0262 -0.2806 -0.0182
 4118W        W20012   2.384   9.020   2.993 -0.0443  0.0833  0.0186
 4119W        W20013   2.702   7.201   2.796  0.2407 -0.0173  0.1452
 4120W        W20014  14.953   5.127   1.003  0.0979  0.1491  0.0297
 4121W        W20015   7.528   9.174  13.611 -0.1465  0.1601  0.0684
 4122W        W20016  15.109  12.659   3.569  0.0471 -0.2824 -0.0228
 4123W        W20017   3.056   1.055   3.236 -0.0804  0.1770 -0.0578
 4124W        W20018   6.072   0.247   1.137  0.0304 -0.1493  0.1818
 4125W        W20019   2.744   0.179  14.547  0.3219  0.0731 -0.2765
 4126W        W20020  13.595  14.625  15.093 -0.0494  0.0195  0.2100
 4127W        W20021   7.316   8.084  11.782 -0.0738 -0.2733 -0.1352
 4128W        W20022  12.219   1.519   5.005  0.1151 -0.0078 -0.0041
 4129W        W20023   8.251  11.694  13.848  0.1665 -0.3961 -0.1246
 4130W        W20024  10.020   0.708   3.194 -0.3490 -0.0190 -0.0401
 4131W        W20025  14.498   4.147  15.593  0.2813 -0.0490  0.2735
 4132W        W20026  16.539  15.047  14.460 -0.2031 -0.0732 -0.0249
 4133W        W20027  17.445  15.003   4.623 -0.1168  0.0972 -0.1448
 4134W        W20028  11.077  15.018  12.207 -0.2773  0.1442  0.0367
 4135W        W20029   9.332   5.884   3.430  0.1478  0.1249  0.0657
 4136W        W20030  17.263  12.243  14.389 -0.1513 -0.1771  0.0544
 4137W        W20031   4.325  13.161  14.173 -0.2716 -0.0078  0.0301
 4138W        W20032  14.622   2.296  15.274 -0.1527  0.2104 -0.2815
 4139W        W20033   6.705   0.140  13.018 -0.1229  0.1712  0.0580
 4140W        W20034   7.301   2.509   2.973  0.2230 -0.1037 -0.1437
 4141W        W20035   9.829  14.508  16.050  0.2315  0.0435 -0.1540
 4142W        W20036  17.710  12.046   2.640 -0.0861 -0.2046  0.0185
 4143W        W20037  14.935   5.590   2.807 -0.1647  0.0269 -0.3146
 4144W        W20038  16.964  12.518   3.313  0.3322  0.1708  0.2691
 4145W        W20039  13.188   7.009  14.046  0.1732  0.0941 -0.0560
 4146W        W20040  12.911   4.671  15.446  0.0482 -0.3914 -0.1788
 4147W        W20041   0.155  12.425   3.473  0.0093  0.4883  0.2671
 4148W        W20042  11.131  16.177  13.873  0.4538 -0.2713  0.4116
 4149W        W20043  12.639  11.708  14.857  0.1595 -0.0234 -0.1123
 4150W        W20044  10.760   3.297   0.362  0.1656  0.0093  0.0820
 4151W        W20045   8.951   5.833   0.566  0.2899  0.0579 -0.0531
 4152W        W20046   8.633  11.641   4.538  0.1058 -0.1169  0.1477
 4153W        W20047   3.278  11.513  14.415  0.0243 -0.0371  0.1727
 4154W        W20048   7.852   2.759  12.070 -0.0071  0.0062  0.0963
 4155W        W20049  16.144  15.069  13.226 -0.1444 -0.0896  0.1334
 4156W        W20050   9.698  11.981   1.296 -0.0134  0.4481 -0.0983
 4157W        W20051   0.803   0.697  15.417 -0.1088  0.5572  0.0222
 4158W        W20052  11.559   9.154  14.390 -0.2227  0.0980 -0.0988
 4159W        W20053   9.524  10.730   5.122 -0.2269 -0.1538  0.1671
 4160W        W20054  15.746   5.383   4.544 -0.0654 -0.1070 -0.0705
 4161W        W20055   1.508  17.419   2.316 -0.2253 -0.0809  0.2228
 4162W        W20056  13.241   3.435  13.072  0.3836  0.1372 -0.1090
 4163W        W20057   6.613  12.709   3.002  0.0756 -0.0557  0.1309
 4164W        W20058  16.258  16.313  12.883 -0.0714  0.1732  0.3387
 4165W        W20059   2.601  11.546  12.250 -0.2826 -0.2432  0.0739
 4166W        W20060   7.368   5.053   2.860  0.1064  0.3002  0.2811
 4167W        W20061   9.472   5.424   5.834 -0.0616 -0.3587  0.2437
 4168W        W20062  13.568  17.826  13.137 -0.0908  0.1356  0.0809
 4169W        W20063  10.445   4.460   2.647  0.2274 -0.1208  0.1373
 4170W        W20064  14.426   5.356   1.868 -0.2700 -0.0019  0.3052
 4171W        W20065   8.140  13.562   0.203 -0.1546 -0.1299 -0.1030
 4172W        W20066  17.220  16.990   1.688  0.5547 -0.0652 -0.1551
 4173W        W20067   8.143   4.855  14.939 -0.2861  0.1296 -0.0253
 4174W        W20068  12.814   5.150  13.060  0.2793 -0.1472  0.0073
 4175W        W20069  15.827  12.082  15.840  0.1747  0.2566 -0.0110
 4176W        W20070   8.965   6.039  14.948  0.3394 -0.0239 -0.0650
 4177W        W20071  13.078  15.097  16.259  0.0450  0.0170 -0.0134
 4178W        W20072   1.817  10.062   1.794 -0.0799 -0.2178  0.1173
 4179W        W20073  10.827  10.090  16.494  0.0458 -0.0131  0.1076
 4180W        W20074   1.930   1.760   4.181 -0.0122  0.1211 -0.1531
 4181W        W20075  10.667   4.041  14.186  0.0873  0.1936 -0.0290
 4182W        W20076   2.278  14.312  14.474  0.0231 -0.2520 -0.2389
 4183W        W20077   3.721   1.184  15.527  0.2731  0.0991 -0.2522
 4184W        W20078   7.232   9.883   1.953  0.0939 -0.0007  0.1670
 4185W        W20079  13.423   7.589   5.221  0.0720 -0.1241  0.2599
 4186W        W20080  16.347  11.935   4.104 -0.1538  0.0395  0.3132
 4187W        W20081  17.848  12.592   1.963 -0.2273  0.3874  0.1409
 4188W        W20082   8.919  14.073  13.287 -0.3603 -0.0318 -0.3217
 4189W        W20083   2.704  13.142   3.331  0.0208 -0.0459 -0.0668
 4190W        W20084   9.728  16.829  16.805 -0.1432 -0.0599  0.2931
 4191W        W20085   6.307  11.627   6.187  0.0917 -0.3155  0.4517
 4192W        W20086  11.360   3.484  14.159 -0.1135 -0.0179  0.0256
 4193W        W20087  14.885   3.603   4.397 -0.0124  0.1721 -0.4924
 4194W        W20088   6.469   6.713   5.085 -0.2250  0.2007  0.3541
 4195W        W20089   6.193  11.967  15.756  0.1005  0.1012 -0.4202
 4196W        W20090  12.196   1.454   6.032 -0.1581  0.0647 -0.0635
 4197W        W20091   8.707  14.041   3.771  0.1518 -0.1055  0.1249
 4198W        W20092  16.667  10.489   0.310 -0.0545  0.1153  0.2614
 4199W        W20093  13.362   0.841  12.371  0.1851 -0.3362  0.2453
 4200W        W20094  15.835  10.180  12.924  0.0250 -0.1850  0.0216
 4201W        W20095  13.124   3.248  13.988  0.0382 -0.1795 -0.2303
 4202W        W20096   6.085   0.263  15.258  0.0521  0.3931  0.2775
 4203W        W20097   1.451   3.464  15.479 -0.1769 -0.1052 -0.1160
 4204W        W20098  10.067  13.592  12.522  0.0969 -0.0220 -0.2586
 4205W        W20099  12.879   3.595   3.069  0.1838  0.1264 -0.3235
 4206W        W20100   4.851  15.648  14.262  0.0392 -0.2211  0.2122
 4207W        W20101   6.770   8.003   0.263  0.0121 -0.0425 -0.0048
 4208W        W20102   1.207   4.994  12.744 -0.1632  0.2764  0.1497
 4209W        W20103  15.066   1.154  12.593  0.1120 -0.2624  0.1156
 4210W        W20104   8.078   9.775   5.400  0.3074  0.0550  0.0471
 4211W        W20105   8.724  11.555  15.736  0.0456 -0.1580 -0.0207
 4212W        W20106  10.347  17.178   4.066 -0.0421 -0.1295 -0.0579
 4213W        W20107   0.215   3.463   2.640  0.0131 -0.1239 -0.0137
 4214W        W20108   2.192   8.155   1.359 -0.2548  0.0128 -0.1529
 4215W        W20109  12.233  15.685   4.548  0.0059  0.0853 -0.0061
 4216W        W20110  14.089  10.424  14.156 -0.0837 -0.1454  0.0651
 4217W        W20111  12.473  16.892   3.305  0.0896  0.0342  0.1056
 4218W        W20112  16.524   4.529   6.438 -0.2316  0.0048  0.2333
 4219W        W20113   8.089  17.569  15.000 -0.2167 -0.0962 -0.2386
 4220W        W20114   4.565  12.524  15.349 -0.2135 -0.0955 -0.1409
 4221W        W20115   7.378   0.160   0.399 -0.1897 -0.0798  0.1204
 4222W        W20116  13.867  11.921  15.640 -0.0473 -0.5669  0.1471
 4223W        W20117   9.014  15.218   1.022  0.2144  0.0425 -0.1547
 4224W        W20118  13.297  11.266  15.063  0.0579 -0.3430 -0.1815
 4225W        W20119   7.489  10.472  14.283 -0.3786 -0.1535 -0.0233
 4226W        W20120  13.970   5.817  14.374 -0.1386 -0.0518 -0.2767
 4227W        W20121   2.805  11.080  12.124  0.1470 -0.1689 -0.0818
 4228W        W20122   2.653  13.587   3.152 -0.1824 -0.1525 -0.0559
 4229W        W20123  14.513   8.988  12.067  0.5253 -0.1447 -0.1716
 4230W        W20124   3.591   6.563   4.780 -0.0682 -0.1696  0.0805
 4231W        W20125   2.540  14.921   3.861 -0.0748 -0.2051  0.1793
 4232W        W20126  10.520  13.203  14.830 -0.0522  0.2920 -0.2996
 4233W        W20127   4.482   5.250   4.676  0.3395  0.0513 -0.0048
 4234W        W20128  12.538  11.292  12.217 -0.3118  0.0316 -0.0502
 4235W        W20129  16.303   1.209  15.399  0.0112 -0.0104  0.1203
 4236W        W20130  12.513   6.891   3.250  0.3270 -0.3706  0.1722
 4237W        W20131  13.329   7.312   2.254 -0.1500 -0.0934 -0.1128
 4238W        W20132   0.357  15.437   4.607 -0.1131  0.0750  0.0526
 4239W        W20133   4.196  12.129   3.582 -0.0706 -0.3128 -0.1307
 4240W        W20134   6.193   9.163  14.026 -0.0465  0.2570  0.3770
 4241W        W20135   7.779   8.459  13.131  0.0064 -0.0096  0.4033
 4242W        W20136   1.145  10.708   1.935 -0.0650  0.0222  0.1202
 4243W        W20137   0.378  10.346   1.411 -0.0238 -0.1821  0.1560
 4244W        W20138   1.730  10.336  13.934  0.3362 -0.0641  0.1683
 4245W        W20139  15.922  13.498  12.176 -0.0561  0.1095 -0.2318
 4246W        W20140  10.951   5.458   2.788 -0.1568  0.1003 -0.0539
 4247W        W20141   8.054  17.448   4.141  0.3146 -0.0121 -0.0306
 4248W        W20142   9.318  14.127  15.876  0.0085 -0.0783  0.1128
 4249W        W20143   7.413  16.679   3.298  0.0400 -0.1363 -0.2247
 4250W        W20144   7.646   1.043   1.192 -0.0357 -0.0251 -0.1365
 4251W        W20145  17.264  12.745   2.624  0.0694  0.0103  0.1855
 4252W        W20146   3.691  15.757  15.846  0.1571  0.3724  0.0721
 4253W        W20147   6.899   0.121  14.889 -0.5257 -0.0274 -0.0341
 4254W        W20148   9.773  10.941   4.499  0.0676 -0.1616 -0.1327
 4255W        W20149   9.342  14.262   4.406 -0.0406 -0.2455  0.3270
 4256W        W20150   8.362   9.992   1.050 -0.4008  0.1753 -0.2418
 4257W        W20151   6.001   5.225  13.357 -0.0686 -0.0534  0.1071
 4258W        W20152  11.589  17.590   2.346  0.1900  0.0150 -0.1421
 4259W        W20153   1.443   2.098   4.095  0.1960  0.1796 -0.2469
 4260W        W20154   6.795  10.316  14.843  0.1880  0.1562  0.1246
 4261W        W20155   4.398   7.769  15.450 -0.1680  0.2448  0.1190
 4262W        W20156   8.514  17.255   3.411  0.1835  0.2376  0.1515
 4263W        W20157  10.513  12.073  12.858 -0.1022  0.2037  0.2850
 4264W        W20158   3.739   8.912   1.669 -0.0883  0.0327  0.0929
 4265W        W20159  13.756   8.000  16.429 -0.2423  0.3873 -0.1724
 4266W        W20160  14.713  15.304   5.259 -0.1926 -0.0641  0.1192
 4267W        W20161  12.618  17.071   1.293 -0.1144  0.0954 -0.0423
 4268W        W20162  11.020   8.475  16.843  0.2155  0.2855  0.3459
 4269W        W20163   7.532  13.329   4.041 -0.0863  0.0681 -0.0562
 4270W        W20164  12.204  17.217   1.681 -0.1918 -0.1877  0.0538
 4271W        W20165  14.102   2.975  16.248 -0.0655 -0.2145 -0.1286
 4272W        W20166  14.736   8.599  15.330 -0.1589  0.1293 -0.1894
 4273W        W20167   6.611   2.659  13.041 -0.1071  0.1508  0.1912
 4274W        W20168  17.826   4.750  15.041 -0.0846 -0.1349 -0.0445
 4275W        W20169   0.336   6.147   1.581 -0.1378 -0.2055 -0.1241
 4276W        W20170   7.073  10.421   2.621  0.0008  0.1760 -0.1378
 4277W        W20171  16.718   6.904   2.114  0.3962 -0.0453  0.0486
 4278W        W20172   6.330   1.227  15.070 -0.2066 -0.0388  0.1841
 4279W        W20173   7.044   0.982  13.957 -0.1051  0.1281  0.1972
 4280W        W20174   8.221   6.035  12.068 -0.0677  0.0544  0.1362
 4281W        W20175  12.215   7.006   0.515 -0.0856  0.0120 -0.0681
 4282W        W20176   1.633   8.562   3.162  0.0194 -0.1645  0.2003
 4283W        W20177  15.649  13.239  16.645  0.1366  0.2805 -0.1180
 4284W        W20178   5.548  11.227  11.589  0.0215 -0.0839  0.0585
 4285W        W20179   0.720   1.725  14.942  0.1407  0.0269  0.1741
 4286W        W20180   3.342   7.326  15.639  0.1447 -0.1216  0.1581
 4287W        W20181  15.159  14.523   2.105 -0.3414 -0.1775 -0.0548
 4288W        W20182   3.416   7.524   4.084 -0.1586  0.0457  0.0111
 4289W        W20183   9.832  11.649   0.079  0.2694 -0.2407  0.0196
 4290W        W20184  16.172   0.537   3.552 -0.0585 -0.1177 -0.0401
 4291W        W20185   8.191  13.831   2.545 -0.3367  0.2514  0.1875
 4292W        W20186   9.791  11.025  11.732  0.0567  0.0098  0.0744
 4293W        W20187   4.745   3.674   0.964  0.0233  0.0356  0.1753
 4294W        W20188  10.531  17.778  13.578 -0.0985 -0.0236  0.2428
 4295W        W20189   3.657  17.064  12.387  0.0580  0.2439 -0.0723
 4296W        W20190  10.367   5.188  11.524 -0.2255  0.3211  0.1255
 4297W        W20191  17.403   8.616   3.401 -0.0133  0.0771 -0.1228
 4298W        W20192   8.039  12.047   5.783  0.1173 -0.0248 -0.1307
 4299W        W20193   7.182  14.761  14.669  0.0328  0.0222 -0.0124
 4300W        W20194   7.767  11.204   3.991 -0.3421 -0.0316 -0.2945
 4301W        W20195   7.908   0.060  15.919 -0.0028  0.2178  0.0249
 4302W        W20196   0.010   3.962   5.303 -0.0105  0.2486 -0.1207
 4303W        W20197  12.420  16.256   1.236  0.2477 -0.0105 -0.1250
 4304W        W20198  10.497   3.394  11.730  0.0756 -0.0022  0.1597
 4305W        W20199  14.201   9.966   4.337  0.1656 -0.0632 -0.0789
 4306W        W20200  17.047  12.712  16.508  0.0408  0.2198 -0.3945
 4307W        W20201   1.895   9.696  16.648  0.1190  0.0011  0.0033
 4308W        W20202  13.214   9.481   3.068 -0.3291  0.1873  0.1368
 4309W        W20203  14.429  13.993  15.303 -0.0158 -0.3219 -0.0987
 4310W        W20204   6.052   2.175  15.685  0.1094  0.0838 -0.4400
 4311W        W20205  15.403   8.679   1.178  0.1621 -0.2539  0.0381
 4312W        W20206   2.807   5.395  13.991  0.1915 -0.1066  0.1229
 4313W        W20207   3.612   5.715  13.163 -0.0016 -0.5071 -0.1542
 4314W        W20208   4.002   4.029  13.702  0.2375 -0.0218  0.1378
 4315W        W20209  14.001  11.250   4.831 -0.2374  0.1272 -0.0180
 4316W        W20210   0.116  16.566   2.888  0.0235 -0.1748 -0.2863
 4317W        W20211   6.665   8.629  12.238 -0.2433 -0.0124 -0.0500
 4318W        W20212  14.774  16.137  13.389  0.1622  0.1701 -0.1906
 4319W        W20213  17.617   6.759  13.258  0.3010  0.1646  0.1968
 4320W        W20214  13.592  13.030  12.951  0.2340  0.1112 -0.0712
 4321W        W20215   2.848  11.222   2.395 -0.0671  0.2766 -0.2122
 4322W        W20216   6.922  12.389  15.591  0.0489 -0.3401  0.2959
 4323W        W20217  11.415   2.756  16.855 -0.3483 -0.0866  0.1996
 4324W        W20218   7.533  11.842   2.401  0.3748 -0.3506  0.1696
 4325W        W20219  13.530   4.180   4.105  0.0493  0.1174  0.1419
 4326W        W20220  16.426   6.737   0.128  0.0549  0.1748 -0.1080
 4327W        W20221   4.859   8.404  11.882 -0.1942  0.2595 -0.0053
 4328W        W20222   8.053   3.153  11.787 -0.0248  0.0789  0.5021
 4329W        W20223  16.116  16.760   4.108  0.0050  0.0661  0.1704
 4330W        W20224  17.680  16.354  14.409  0.0156 -0.0358  0.2162
 4331W        W20225   7.851  11.192  16.031  0.1240  0.0384 -0.1748
 4332W        W20226  11.807   3.292   1.157 -0.2025  0.2142  0.0041
 4333W        W20227   8.459  14.502   1.469 -0.0330 -0.1596 -0.1060
 4334W        W20228  14.781   6.664   4.514  0.1559  0.1340  0.0790
 4335W        W20229   7.775   4.483  14.818  0.1496 -0.0771 -0.0009
 4336W        W20230  13.750   5.316   2.721  0.1675  0.0577  0.1838
 4337W        W20231  11.746  10.395  15.536 -0.0389  0.0115  0.0358
 4338W        W20232   6.948   2.597   3.780  0.4510 -0.2842 -0.1321
 4339W        W20233  15.154   4.930  16.680 -0.0703  0.1487  0.3877
 4340W        W20234  15.746   7.974   4.227  0.1680  0.2177  0.3879
 4341W        W20235  15.744   7.311  14.236  0.0117 -0.0144  0.0232
 4342W        W20236  12.965  11.553  12.239 -0.0551  0.0578  0.2164
 4343W        W20237  17.201  15.539   3.271 -0.2409  0.3113  0.0761
 4344W        W20238   6.364  16.710  12.524 -0.0010  0.1127  0.1558
 4345W        W20239   9.466  13.087   5.059  0.0024 -0.1675  0.2454
 4346W        W20240  14.912   5.965  15.666 -0.0371  0.0802 -0.0874
 4347W        W20241   1.608  12.903   0.249 -0.1100 -0.1943  0.1122
 4348W        W20242   6.696  15.937   3.497  0.3040  0.3387 -0.1168
 4349W        W20243  11.378   6.231  16.567 -0.0647  0.0719  0.0243
 4350W        W20244   5.539  14.140   2.689  0.3123 -0.0055  0.0298
 4351W        W20245  15.164  15.811  13.392  0.2862 -0.1141 -0.0887
 4352W        W20246  10.809   9.683   0.827  0.0326  0.2077  0.2172
 4353W        W20247   8.796  14.625  16.111 -0.2563  0.2708  0.0916
 4354W        W20248  12.287   9.146  13.433  0.0437  0.0604 -0.0623
 4355W        W20249   4.994  10.769   2.270 -0.3149  0.1793 -0.2762
 4356W        W20250   8.675   5.492  12.514  0.1174 -0.3432 -0.1514
 4357W        W20251   4.092  15.385   0.276 -0.0779  0.1065 -0.0496
 4358W        W20252  16.700   0.550  13.820 -0.2272  0.0309  0.2315
 4359W        W20253   5.168   3.590   4.748  0.1809 -0.1310  0.1967
 4360W        W20254   3.361   6.666   3.960  0.0104  0.1103  0.1260
 4361W        W20255   2.952   5.823  16.524  0.1830 -0.1251  0.2982
 4362W        W20256  12.787   5.444  16.401 -0.3864  0.0888  0.2087
 4363W        W20257   8.075   9.055  13.739 -0.0458  0.2374 -0.3349
 4364W        W20258   4.230   8.561  14.040 -0.2922 -0.0907  0.1468
 4365W        W20259   8.724   6.712   0.734 -0.1150 -0.5575 -0.2425
 4366W        W20260   9.254   3.540   4.914 -0.3373 -0.1143 -0.1319
 4367W        W20261  12.911  13.970   1.029  0.0324  0.2522 -0.0555
 4368W        W20262  10.238  10.372   1.344 -0.1366 -0.1596  0.1347
 4369W        W20263  13.688   3.676  15.990  0.1521  0.0057  0.0204
 4370W        W20264   4.617  17.729   2.654 -0.0311 -0.2079 -0.1715
 4371W        W20265  15.723   1.246   1.409 -0.2836  0.2028 -0.0397
 4372W        W20266   8.568   8.752  13.000 -0.1098 -0.0653  0.1950
 4373W        W20267   4.284   7.002  13.115  0.0245  0.0491 -0.0137
 4374W        W20268  14.418  12.150  15.512  0.1771  0.1427 -0.1042
 4375W        W20269   0.428   8.487  14.179  0.2143  0.1734 -0.2364
 4376W        W20270   3.770  14.217  12.383  0.3869  0.1034 -0.1100
 4377W        W20271   8.513   1.737  13.225 -0.0064  0.0714 -0.2069
 4378W        W20272  14.834  15.452   1.767  0.0505 -0.1027 -0.0043
 4379W        W20273   0.552   1.520   5.320 -0.0051 -0.0075 -0.2407
 4380W        W20274   6.079   3.782   5.178 -0.2536 -0.4687 -0.0217
 4381W        W20275   6.391   9.680   1.469 -0.0719 -0.0022  0.2800
 4382W        W20276   5.151  12.534   0.648 -0.0919 -0.1359  0.1223
 4383W        W20277   2.519   1.934  13.333 -0.4384  0.1693 -0.4292
 4384W        W20278   6.298  13.083   2.804  0.0386 -0.2030  0.0189
 4385W        W20279   4.324  11.122  16.875  0.2057 -0.3048  0.0125
 4386W        W20280  17.478  16.743   2.399 -0.1792 -0.2674 -0.1151
 4387W        W20281   9.374   5.991   3.966 -0.1156  0.2186  0.1250
 4388W        W20282   2.852  16.228   1.959  0.0559  0.1593  0.0677
 4389W        W20283  12.103  17.251  13.024 -0.0574 -0.1339  0.1428
 4390W        W20284   8.040   1.854   3.933  0.2037  0.1710 -0.2289
 4391W        W20285  12.885   5.162  14.453  0.0349 -0.1026  0.0871
 4392W        W20286   3.614  16.168  15.051 -0.2597 -0.2032 -0.7213
 4393W        W20287   8.801  15.640   1.241 -0.0539  0.4065 -0.0881
 4394W        W20288   3.229   8.100  12.987 -0.1008  0.0768  0.0133
 4395W        W20289   0.415   2.709  14.048  0.0073 -0.0632  0.2566
 4396W        W20290  16.590   7.967   0.287 -0.2368 -0.1415 -0.1301
 4397W        W20291  12.455   7.142   4.332  0.0919  0.2490  0.0144
 4398W        W20292  13.113   5.768   0.948 -0.1791  0.1696 -0.0373
 4399W        W20293   4.694   1.484  11.547  0.1628  0.1128  0.1515
 4400W        W20294   2.352  12.499  16.733  0.2186  0.1590 -0.2201
 4401W        W20295  14.776  10.594   5.978 -0.1104 -0.1084 -0.1415
 4402W        W20296   1.485  13.493  13.882  0.1385  0.2525  0.0585
 4403W        W20297  13.984   8.419   4.367 -0.0072 -0.0466  0.0740
 4404W        W20298   1.534  16.647   0.712 -0.0854  0.1173  0.1741
 4405W        W20299   4.601  14.016  15.371  0.0415 -0.2594 -0.0788
 4406W        W20300  10.252   7.884  13.529  0.3756  0.2492 -0.1973
 4407W        W20301   9.326  10.245  15.556  0.1348 -0.1361 -0.1523
 4408W        W20302   7.209   3.608  13.427  0.3254  0.1624 -0.1265
 4409W        W20303   6.363  12.875  16.643  0.1983 -0.0989  0.0942
 4410W        W20304   6.890  10.973  15.175  0.0360 -0.0432 -0.2453
 4411W        W20305   9.789  11.170   1.285 -0.1263  0.1129  0.1412
 4412W        W20306  10.419   7.517  13.250 -0.0941 -0.0039  0.0518
 4413W        W20307   4.592   4.065   1.944  0.1499 -0.0958 -0.0505
 4414W        W20308   6.554   9.069  16.519  0.0881  0.1862  0.1122
 4415W        W20309  16.868  14.917  11.772 -0.1592  0.4153  0.0499
 4416W        W20310   2.768  13.391   0.474 -0.3824 -0.1222  0.0366
 4417W        W20311   3.566  11.011   1.911  0.1957 -0.0029 -0.0316
 4418W        W20312  12.345   6.824   3.767  0.0104  0.1799  0.1632
 4419W        W20313   1.942   3.868   2.247  0.2897  0.2666  0.2247
 4420W        W20314   2.324   0.218  16.665  0.3547 -0.1703  0.0604
 4421W        W20315  14.974   0.309  13.344 -0.0829  0.2294 -0.1367
 4422W        W20316   7.356   5.965  16.043  0.2994 -0.0082  0.0842
 4423W        W20317   8.737  10.514  12.487 -0.0776 -0.0982  0.0142
 4424W        W20318   8.317   9.374  15.968 -0.0265 -0.0906  0.1407
 4425W        W20319  10.833   7.154  14.977 -0.0584 -0.1818  0.0433
 4426W        W20320  17.724   8.936   3.156  0.2726 -0.0478 -0.2103
 4427W        W20321   0.419  11.342  13.402  0.2142  0.1198 -0.0094
 4428W        W20322   9.775   9.996   3.144 -0.0597  0.2356  0.2672
 4429W        W20323   8.753   1.375   3.321  0.0278 -0.1374  0.0446
 4430W        W20324  14.495  12.806  12.459 -0.0850 -0.0859  0.0153
 4431W        W20325   3.940  15.310   4.992  0.2915 -0.2785 -0.3464
 4432W        W20326  14.656   4.407   0.806  0.0524  0.1793  0.0788
 4433W        W20327  10.360  17.233   3.483  0.2470 -0.1648  0.1094
 4434W        W20328   1.366   1.299   2.797  0.0478 -0.1288  0.0188
 4435W        W20329   4.885  15.059  14.364 -0.3977 -0.1113  0.1937
 4436W        W20330  17.687  16.105   4.882  0.2019 -0.0252  0.0518
 4437W        W20331  10.546   4.314   3.125 -0.0980  0.2931 -0.0596
 4438W        W20332   4.602   0.406   0.451 -0.4265  0.0252 -0.1823
 4439W        W20333  11.804   2.768  15.056  0.0134  0.2786  0.1144
 4440W        W20334  10.768   5.393   0.676 -0.0240  0.0975  0.3359
 4441W        W20335   4.598   3.716   3.904 -0.0216 -0.1817  0.1602
 4442W        W20336   8.932   0.654  13.643 -0.2543 -0.0780  0.1560
 4443W        W20337   2.899   4.588   2.014 -0.2000  0.0185 -0.0880
 4444W        W20338   6.792   2.381  13.992 -0.2460  0.2954 -0.3337
 4445W        W20339   0.793   8.176   4.791  0.4417  0.0251  0.0424
 4446W        W20340   2.865   5.943   2.878  0.6806  0.0598 -0.1748
 4447W        W20341  11.319  11.736   6.300  0.2226 -0.1859 -0.1744
 4448W        W20342   3.699  14.543   2.420 -0.2523 -0.2078 -0.0963
 4449W        W20343   6.688  15.689   5.333  0.4652 -0.0350  0.0730
 4450W        W20344  11.690  10.708  15.960  0.0570  0.1280 -0.1866
 4451W        W20345   6.861  10.671  12.113 -0.0500  0.0003 -0.2462
 4452W        W20346   2.537   5.778   5.562 -0.1197 -0.0991 -0.0964
 4453W        W20347  13.453   1.814   5.651  0.0885 -0.4037  0.4726
 4454W        W20348   9.757  14.819   5.121  0.2901 -0.1334 -0.2659
 4455W        W20349   8.738   1.257   6.684  0.1595 -0.0771  0.0251
 4456W        W20350   2.268  17.809   0.594  0.3433  0.1051  0.1551
 4457W        W20351  13.794   0.695  12.138 -0.0597 -0.3172 -0.1135
 4458W        W20352   7.932   2.658   6.199 -0.2366 -0.1613  0.2484
 4459W        W20353  13.704  15.605  13.149  0.1276 -0.1056 -0.1875
 4460W        W20354  15.242   9.370   5.765 -0.0208 -0.2375 -0.2992
 4461W        W20355   8.327  10.964  16.905 -0.1351  0.0087  0.2944
 4462W        W20356   4.692  13.262  13.746 -0.2831 -0.0358  0.2583
 4463W        W20357   4.965   7.921  14.281  0.2226 -0.1727  0.1064
 4464W        W20358  16.891   1.033   0.188  0.2985 -0.0260 -0.0608
 4465W        W20359  15.247  14.014  16.120 -0.1817  0.0692 -0.0674
 4466W        W20360  13.490   6.794  15.751 -0.3445  0.0846 -0.0844
 4467W        W20361  14.732   3.482  13.140  0.4104  0.1200  0.0167
 4468W        W20362   1.246  16.756   1.153 -0.2999 -0.1318  0.1339
 4469W        W20363   2.757   5.300   2.123  0.2112  0.4809  0.1219
 4470W        W20364   5.370  14.574  12.051 -0.1966 -0.0942 -0.0842
 4471W        W20365   9.551   1.830   5.283 -0.0397  0.1618  0.0064
 4472W        W20366  11.914   5.646  16.013 -0.1667  0.0699 -0.1481
 4473W        W20367  13.838   2.594  15.036  0.4014  0.4537  0.0802
 4474W        W20368   3.427  16.197  13.105 -0.3998 -0.0104  0.3127
 4475W        W20369  12.001  11.156   5.651  0.3595  0.1091  0.2007
 4476W        W20370   2.631   7.702   4.622 -0.2213 -0.0913 -0.1413
 4477W        W20371  15.355  16.204  15.739  0.1305 -0.1355  0.2145
 4478W        W20372   4.252  16.880  12.270  0.1126  0.1723  0.1688
 4479W        W20373  14.337   0.792  14.051 -0.0847 -0.2800 -0.0557
 4480W        W20374  11.238   0.294   1.096 -0.1150  0.2249 -0.3607
 4481W        W20375   3.062  17.016  16.507  0.0827  0.0443  0.0908
 4482W        W20376  17.022   1.069   3.668  0.2082 -0.1063  0.1535
 4483W        W20377   8.953   6.326   4.307  0.2172  0.2369  0.0167
 4484W        W20378   5.904  14.133  13.152  0.1566  0.2038  0.0401
 4485W        W20379   2.772   1.687  15.399 -0.0133 -0.2142  0.0942
 4486W        W20380   8.121  12.388  12.090  0.2419  0.1325  0.3151
 4487W        W20381   2.167  15.286  14.858  0.1401  0.0784 -0.2223
 4488W        W20382   4.768  11.198   2.656  0.2100 -0.1123 -0.3242
 4489W        W20383   5.166   8.634   0.581 -0.0312 -0.1497 -0.2646
 4490W        W20384   5.425   4.318  15.092 -0.0458  0.0061  0.0213
 4491W        W20385   0.046   1.215   4.163  0.0355 -0.2973  0.1636
 4492W        W20386  12.190   5.183  13.751 -0.1019  0.0995  0.4978
 4493W        W20387   2.674   0.964  16.389 -0.3045 -0.2549 -0.2218
 4494W        W20388  17.804  13.868  16.546 -0.1006 -0.4237 -0.2559
 4495W        W20389   6.333  14.404  14.795 -0.1732 -0.1357 -0.0277
 4496W        W20390  13.929   3.901  13.023  0.2120 -0.1270 -0.0559
 4497W        W20391   6.066  10.260   6.578 -0.2403  0.0132  0.1584
 4498W        W20392  16.150  13.749   2.301  0.1791 -0.1397 -0.1913
 4499W        W20393  11.488   6.892   4.011  0.1001  0.0587 -0.2123
 4500W        W20394  10.528   1.317   1.729 -0.0907  0.2147 -0.1516
 4501W        W20395  16.064  11.972  13.063  0.0445 -0.0075  0.1599
 4502W        W20396   3.665   0.715   4.854 -0.1786  0.0819  0.0306
 4503W        W20397  12.035   6.577  11.651  0.2175  0.2580  0.1014
 4504W        W20398   6.100  12.172   4.120  0.0281 -0.1530 -0.1538
 4505W        W20399   1.481   7.176   0.487  0.1514  0.0224 -0.0976
 4506W        W20400  12.072   7.215  16.206 -0.1633  0.2078 -0.0432
 4507W        W20401   6.396  13.529   5.874 -0.0387  0.0119 -0.0014
 4508W        W20402  12.082  15.000   3.147  0.0784  0.0965 -0.0023
 4509W        W20403   7.227  17.478   1.207 -0.1837  0.1023 -0.0725
 4510W        W20404   8.770  15.094  12.309  0.0236  0.1747 -0.2741
 4511W        W20405  14.121  15.997  15.924 -0.0038 -0.5351 -0.0724
 4512W        W20406  13.840   4.069   5.926  0.0610 -0.0293  0.2638
 4513W        W20407  13.945  10.880  13.663 -0.2150 -0.0886 -0.0407
 4514W        W20408   9.904   0.886   2.152 -0.0424 -0.0557  0.2717
 4515W        W20409   4.141  10.555   0.777  0.0418 -0.1241  0.0259
 4516W        W20410  15.612   2.482   3.078  0.0299 -0.0378  0.0486
 4517W        W20411  12.009  10.469   0.991  0.2058  0.1523  0.0197
 4518W        W20412   4.755  15.885  16.371  0.2242  0.2233 -0.0954
 4519W        W20413  13.246   1.313  14.770 -0.1391  0.1429 -0.1836
 4520W        W20414  17.292  15.698   4.786 -0.1896  0.0349 -0.0852
 4521W        W20415   1.012  10.329  14.226 -0.1562  0.0621 -0.0003
 4522W        W20416  13.915   8.572  13.365  0.0479 -0.0735  0.1910
 4523W        W20417   7.257  15.709  13.321 -0.1452  0.0499  0.1950
 4524W        W20418  16.478  15.853   1.515 -0.2100 -0.0024 -0.0792
 4525W        W20419   8.426   1.355  15.683  0.0309 -0.2265 -0.3736
 4526W        W20420   3.378  12.546  11.955  0.2700  0.1344  0.1007
 4527W        W20421   7.843  14.184   5.822  0.0043 -0.2076  0.0758
 4528W        W20422  13.290  16.141  12.360 -0.1880 -0.3229  0.1045
 4529W        W20423   6.212  12.378   3.162 -0.0827  0.0983 -0.1300
 4530W        W20424  11.395  17.119   4.006 -0.0740 -0.2318 -0.0138
 4531W        W20425   4.911   9.865   3.734  0.0769  0.3234 -0.1330
 4532W        W20426   1.309   3.253   0.169  0.0754  0.2112  0.0479
 4533W        W20427  10.147  11.834  16.429  0.0600 -0.0129 -0.1438
 4534W        W20428  12.379   9.466   3.389 -0.0221  0.1395 -0.2454
 4535W        W20429   5.604  14.592   0.276  0.1717  0.1098  0.0730
 4536W        W20430   6.669   0.929   4.000 -0.1417  0.0365 -0.0669
 4537W        W20431  14.896  13.453   3.498 -0.1445  0.1421  0.1695
 4538W        W20432   9.923  11.092  10.719  0.0854  0.1749 -0.2136
 4539W        W20433   0.745  16.550  16.901 -0.0660 -0.0698  0.1695
 4540W        W20434   1.545   5.196  15.266  0.0728  0.1437  0.3476
 4541W        W20435   3.477   0.238   4.113  0.2368 -0.1280  0.0562
 4542W        W20436  11.864   8.175   2.295  0.1409  0.0630 -0.1028
 4543W        W20437  13.264   9.933  13.772  0.0523  0.1768 -0.0517
 4544W        W20438   1.983   4.796   2.191 -0.1395 -0.0820  0.0830
 4545W        W20439  16.383   6.962  12.657 -0.0085  0.1684 -0.2832
 4546W        W20440  13.377  11.013   3.855 -0.1730  0.0037  0.1564
 4547W        W20441   9.129  16.605  14.474  0.0277  0.0029  0.0533
 4548W        W20442   8.745   3.484  14.709 -0.2372  0.1339 -0.1382
 4549W        W20443  15.354   7.751   1.744  0.1678 -0.0168  0.0165
 4550W        W20444   3.462   4.021   1.051  0.2938  0.3597 -0.2915
 4551W        W20445  14.203   5.442   2.987  0.0142  0.0266 -0.2839
 4552W        W20446  13.881  17.261   3.792  0.1517  0.2390  0.1571
 4553W        W20447   6.336   6.638  13.584  0.0586 -0.2152 -0.1084
 4554W        W20448   7.853   7.559  13.231  0.0080 -0.3109  0.0275
 4555W        W20449  17.413  10.449   3.710  0.1374 -0.3359 -0.1645
 4556W        W20450  11.825   4.656  14.482 -0.0746  0.2141 -0.1661
 4557W        W20451  12.421  11.800  15.913 -0.1002  0.0176  0.0743
 4558W        W20452   8.400   2.917   6.138 -0.0186  0.2769  0.1011
 4559W        W20453   6.490  10.441  10.731  0.0470  0.0166 -0.2451
 4560W        W20454   9.609  13.956   3.975  0.0425 -0.0087  0.3416
 4561W        W20455   3.179  14.369   4.119  0.1508 -0.0658 -0.0073
 4562W        W20456   3.083   1.847   1.163  0.0280 -0.0212  0.0463
 4563W        W20457  16.960  12.312  13.018 -0.2057 -0.0194 -0.2669
 4564W        W20458   9.368   9.307   5.458  0.1982 -0.1858  0.1402
 4565W        W20459   2.650   3.563  14.697 -0.1636 -0.0532 -0.3789
 4566W        W20460  10.703   3.848  15.611 -0.0139  0.2990 -0.2498
 4567W        W20461   0.410   8.318   2.127 -0.3468  0.2667 -0.0047
 4568W        W20462  12.675   1.721  13.228  0.0645  0.1766 -0.1598
 4569W        W20463   6.352   8.750   0.916 -0.2116 -0.0417 -0.2178
 4570W        W20464   5.474   0.490   0.987 -0.0057  0.1288  0.0899
 4571W        W20465  11.594  12.378   4.132  0.0579  0.1575  0.1034
 4572W        W20466  13.619  17.102  13.747  0.1145 -0.3164 -0.2267
 4573W        W20467   9.064   9.969  16.432  0.2588 -0.1418  0.1028
 4574W        W20468   5.953  11.880   0.353 -0.2274  0.0317  0.1610
 4575W        W20469   9.049  16.733   3.951 -0.0035 -0.0311 -0.3668
 4576W        W20470  11.927  14.296   2.892 -0.0152  0.0108  0.1251
 4577W        W20471   6.986  14.017   0.702  0.1700 -0.2349  0.0971
 4578W        W20472   5.634  12.373   0.419 -0.2797 -0.0257  0.0359
 4579W        W20473  17.255   4.869   2.199 -0.0807  0.0975 -0.0009
 4580W        W20474  17.505  10.882   5.547 -0.2177  0.1067  0.0278
 4581W        W20475   7.824   8.773   4.053 -0.3161 -0.0344  0.3964
 4582W        W20476  11.659   6.329   2.907  0.1103 -0.0826 -0.1839
 4583W        W20477   7.790   6.315   2.329  0.0285 -0.0394  0.1691
 4584W        W20478   1.150   5.293   0.206  0.1629 -0.2394 -0.1341
 4585W        W20479   8.902   9.093  16.464  0.1821  0.2640  0.0297
 4586W        W20480   4.326   4.822  16.049 -0.3082  0.2485  0.0713
 4587W        W20481  17.169  16.333   0.009 -0.0697 -0.3796 -0.0166
 4588W        W20482   2.821  13.622  13.383  0.0966  0.2226 -0.2605
 4589W        W20483   8.246  15.055  12.558  0.0319  0.0442 -0.0298
 4590W        W20484   2.928  14.027   4.942 -0.2279 -0.0467 -0.1051
 4591W        W20485   4.382   4.269   6.154 -0.1782  0.1698 -0.0613
 4592W        W20486  14.431  15.778   1.381 -0.2228 -0.0558  0.1778
 4593W        W20487  14.090  14.723   6.471  0.0901 -0.0233  0.0784
 4594W        W20488  16.260   7.256   3.270 -0.0824 -0.0793  0.1430
 4595W        W20489   4.242  11.509  14.599 -0.1067  0.2761  0.1351
 4596W        W20490  15.905   2.126   3.333 -0.2136 -0.1271  0.1878
 4597W        W20491   9.375   5.709   0.439  0.1274 -0.1440 -0.0619
 4598W        W20492   0.009   7.706  12.854  0.1267  0.1100  0.2876
 4599W        W20493  10.916   3.991   0.678 -0.0351  0.1659  0.2141
 4600W        W20494  10.647   4.416  13.357  0.0652  0.2358  0.0971
 4601W        W20495   7.137   0.547  15.379 -0.0449 -0.1603  0.0438
 4602W        W20496  10.875   8.338  13.010 -0.1679 -0.0301 -0.0849
 4603W        W20497  15.753   0.618   1.184  0.0591 -0.0740 -0.3128
 4604W        W20498   9.404   1.217   0.665  0.1087 -0.0483 -0.0111
 4605W        W20499  13.303   1.328   0.519 -0.0420 -0.2790  0.2268
 4606W        W20500   8.994   0.433  12.780  0.0495  0.1887  0.1467
 4607W        W20501   0.504  13.674   2.668  0.0216 -0.0088  0.0140
 4608W        W20502   5.646   1.900  13.515 -0.1081  0.0358  0.0718
 4609W        W20503   6.170   0.700   3.386  0.0476  0.1289  0.0310
 4610W        W20504  11.137   4.746  16.518  0.0189 -0.3582 -0.0823
 4611W        W20505  17.340   4.516   3.426 -0.0361  0.0312  0.0232
 4612W        W20506  14.454  16.231   2.728 -0.1798 -0.1272  0.2554
 4613W        W20507  12.633  15.905  14.492 -0.2230 -0.0497 -0.1432
 4614W        W20508   9.738   5.960  11.768  0.2680  0.0288  0.1065
 4615W        W20509  14.962   4.894  11.124 -0.0631  0.1105 -0.0494
 4616W        W20510   2.963  11.740   1.368 -0.0779  0.2336  0.0482
 4617W        W20511   2.976   6.601  14.436  0.1715 -0.0356  0.1272
 4618W        W20512  14.309  11.544   5.154  0.1974  0.0641 -0.1426
 4619W        W20513  12.421   6.362   2.324 -0.1068  0.3502 -0.1333
 4620W        W20514   6.372   6.790  15.419 -0.1971 -0.2833  0.3012
 4621W        W20515   8.425   9.252  14.008 -0.1959  0.2313  0.0615
 4622W        W20516   2.791  13.121   4.192 -0.1138 -0.1456 -0.2552
 4623W        W20517  12.796   0.826  12.363  0.0592  0.1537 -0.0079
 4624W        W20518   3.189   2.328   1.366  0.1037  0.3942  0.2283
 4625W        W20519   2.843   3.470  14.214  0.2818 -0.0205  0.0355
 4626W        W20520   8.058  14.761   2.061  0.1477  0.2266 -0.2139
 4627W        W20521   5.893   6.668  16.150 -0.0276 -0.2990  0.0075
 4628W        W20522  10.237   1.584   0.621 -0.1667  0.0990  0.1815
 4629W        W20523  11.447  14.726  14.357 -0.1761  0.0498 -0.0002
 4630W        W20524   3.155  14.973  14.864 -0.2061  0.1116 -0.1153
 4631W        W20525  13.136  12.551   3.821  0.0064  0.0211 -0.3702
 4632W        W20526  13.522  16.306   2.610 -0.0003  0.0526  0.0377
 4633W        W20527  14.598   6.738  16.029  0.0952  0.2365  0.2008
 4634W        W20528  14.600   7.044   3.913  0.1035 -0.0150 -0.3152
 4635W        W20529  13.032   2.230   0.462 -0.1982 -0.2537  0.0271
 4636W        W20530   8.475   1.640  16.918 -0.1453 -0.1647 -0.1314
 4637W        W20531  11.056   0.999  13.586  0.1129 -0.0842  0.2828
 4638W        W20532  12.444   9.426  16.408 -0.0509  0.4330  0.0747
 4639W        W20533   3.889   0.959  11.746  0.1199  0.1413  0.2916
 4640W        W20534   1.726  11.841   1.203  0.0730 -0.1028 -0.0939
 4641W        W20535   4.441   3.149  15.187  0.1777  0.3358  0.0948
 4642W        W20536  13.468   8.069  13.963 -0.1383  0.0283  0.0161
 4643W        W20537   2.194  16.798  12.607  0.1356 -0.0315  0.0730
 4644W        W20538  17.219   1.370  16.303 -0.1119  0.0836 -0.0874
 4645W        W20539  12.780   1.485   0.727  0.0744  0.0273 -0.1826
 4646W        W20540   8.726  11.693  13.046 -0.0618 -0.0386  0.4204
 4647W        W20541  14.556   9.723   6.367  0.3691  0.5276  0.0744
 4648W        W20542   5.407   0.270   4.803  0.2600 -0.0417 -0.2835
 4649W        W20543   2.426  13.173   0.799 -0.0595 -0.2747 -0.1014
 4650W        W20544   9.584  17.367   3.151  0.1003 -0.1806 -0.1288
 4651W        W20545   4.092   1.547   3.550 -0.0729  0.0673 -0.0712
 4652W        W20546   0.703  15.805   4.569  0.1198 -0.3157 -0.0350
 4653W        W20547  12.443   6.216  13.651  0.0899 -0.0393 -0.0980
 4654W        W20548  17.051  17.415   4.302  0.0741 -0.0908 -0.0512
 4655W        W20549  13.581   7.806  12.658  0.0642  0.0665 -0.0417
 4656W        W20550  14.070   1.219  14.444 -0.1452  0.1461  0.0872
 4657W        W20551  16.390  11.889   2.796  0.2101 -0.0092 -0.2101
 4658W        W20552  12.133  14.773  13.711  0.1210 -0.0970 -0.0838
 4659W        W20553  13.893   0.117  14.240  0.1109  0.1165  0.1946
 4660W        W20554   5.197   2.919  15.572  0.0322 -0.0362 -0.1461
 4661W        W20555   5.135   3.757   1.284  0.1769 -0.1125  0.0525
 4662W        W20556   6.478  17.794   3.369  0.2710 -0.2441 -0.1443
 4663W        W20557   5.959  17.099   3.642  0.1345 -0.1616 -0.0446
 4664W        W20558   9.389   8.308   5.460  0.0183 -0.1546  0.2425
 4665W        W20559   4.847   8.424  16.604  0.1974  0.0381 -0.0267
 4666W        W20560   9.753   8.871   5.232 -0.0754  0.3708  0.0216
 4667W        W20561  15.390   5.646  14.853 -0.0135 -0.0380  0.2199
 4668W        W20562   5.626  15.590   4.641 -0.0817  0.1778  0.0469
 4669W        W20563  17.666  11.967   0.298  0.0273 -0.0180  0.1518
 4670W        W20564  12.539  17.505  13.117  0.2983 -0.0314  0.0362
 4671W        W20565  10.371  10.661   5.938  0.1227 -0.1923 -0.0241
 4672W        W20566   5.448  14.754  16.031  0.1680  0.1752 -0.1452
 4673W        W20567   8.537  14.254  14.738  0.2181  0.2255  0.0858
 4674W        W20568   3.722   4.503   0.163 -0.1651 -0.1666 -0.1573
 4675W        W20569   1.265   6.489   3.921  0.2557  0.0253 -0.4100
 4676W        W20570  17.763   5.345   2.780 -0.0966  0.0167 -0.3276
 4677W        W20571  12.292  12.544  12.814 -0.0439  0.3953  0.1614
 4678W        W20572  13.788  17.214   1.771 -0.0004  0.0701  0.1200
 4679W        W20573   9.530   7.421  16.468 -0.1203  0.0714 -0.0132
 4680W        W20574   8.296   4.412   1.217 -0.0210 -0.1302 -0.2625
 4681W        W20575   8.982  10.588  13.096 -0.0561  0.0528  0.0167
 4682W        W20576   0.034   8.107  13.460  0.4127 -0.2235  0.0495
 4683W        W20577  17.610   6.802  15.511  0.1553 -0.0033  0.2987
 4684W        W20578   0.347   8.639   5.525  0.1070 -0.2125 -0.0183
 4685W        W20579  16.127  16.598  15.415  0.0512 -0.0652 -0.0039
 4686W        W20580   9.889   1.395  15.673  0.1904  0.1758  0.1518
 4687W        W20581  17.159   9.019  13.312  0.2268  0.1890  0.0521
 4688W        W20582  15.319   4.697  11.883  0.0230 -0.1935  0.0417
 4689W        W20583   9.795   9.533   6.349 -0.0851  0.4288 -0.2556
 4690W        W20584   2.517   9.319  13.366  0.0529  0.0013 -0.1659
 4691W        W20585   2.148  10.397  13.548 -0.1205  0.0322 -0.3012
 4692W        W20586  16.286   3.116   3.992  0.1433 -0.2408  0.0880
 4693W        W20587   0.499  13.385   5.799 -0.1806 -0.0225  0.4553
 4694W        W20588   0.025   8.049   2.939  0.1166  0.0358  0.1547
 4695W        W20589  16.780   6.158  12.934  0.2070 -0.0125  0.1047
 4696W        W20590  17.192  12.725  15.934 -0.0256  0.1081  0.1068
 4697W        W20591   5.306  13.605  16.631 -0.1574 -0.1239  0.3068
 4698W        W20592   2.195  13.806  14.264  0.1610  0.1345  0.0659
 4699W        W20593   3.502   7.316   1.655  0.0169  0.2433 -0.0786
 4700W        W20594  14.148  11.301  13.790 -0.3962  0.0438 -0.0105
 4701W        W20595  10.336  12.117   5.611 -0.1266  0.3449 -0.2865
 4702W        W20596   5.450   1.358  15.569  0.0729 -0.2562 -0.1360
 4703W        W20597  12.620   9.936   2.607 -0.0912  0.1504  0.2456
 4704W        W20598  10.689   5.049  16.618 -0.1554 -0.2540 -0.1010
 4705W        W20599   1.266  14.940   5.416  0.0593 -0.1607  0.0564
 4706W        W20600  13.922   8.797   5.108  0.1489  0.0867  0.4933
 4707W        W20601   8.789  15.916  11.619 -0.0780  0.0799 -0.0194
 4708W        W20602  12.212   1.833   2.876 -0.1641 -0.3128  0.0972
 4709W        W20603   0.098   7.328  11.614 -0.4354  0.1461 -0.2125
 4710W        W20604  11.593   5.670   3.951 -0.0452 -0.2811 -0.1764
 4711W        W20605  17.665  15.648   5.293  0.0740 -0.3238 -0.3773
 4712W        W20606  10.253  12.631   5.431  0.0084  0.2039 -0.3443
 4713W        W20607   0.600  14.037   5.789  0.0377 -0.0865 -0.0787
 4714W        W20608  10.297  15.156   4.368 -0.2241  0.0601 -0.0104
 4715W        W20609  15.001   0.737   2.755  0.0054  0.2998  0.4610
 4716W        W20610   9.508   4.934   1.685 -0.1296 -0.0982 -0.1885
 4717W        W20611  12.884   9.443   4.406  0.2243 -0.3854  0.0667
 4718W        W20612   4.447   1.927  14.650 -0.0679 -0.1281 -0.1929
 4719W        W20613   4.669  14.436  13.684  0.1175  0.0434  0.0121
 4720W        W20614   3.986  16.380   3.772  0.0907  0.1271  0.0573
 4721W        W20615   7.726   1.875  12.098  0.0143 -0.2427 -0.2212
 4722W        W20616   1.839   3.537   0.866  0.2757 -0.0669  0.2738
 4723W        W20617   5.680   8.017   0.883  0.2292 -0.1172  0.1288
 4724W        W20618   0.125  10.679   1.137  0.0154  0.1729  0.0563
 4725W        W20619   3.307   3.684   3.159  0.0653  0.0219  0.1691
 4726W        W20620   9.658  11.678   6.037  0.0924  0.1827 -0.0176
 4727W        W20621   2.800   4.788   2.739 -0.0193 -0.1086 -0.0768
 4728W        W20622   4.212  15.780  16.017 -0.0794  0.1003  0.0966
 4729W        W20623   5.212  13.166  13.894 -0.3224  0.1103  0.2847
 4730W        W20624   6.387   9.171   2.008  0.0531  0.0637 -0.1051
 4731W        W20625   5.081   4.135  15.955  0.2465 -0.0707 -0.0166
 4732W        W20626   6.471   4.816   2.661 -0.2223 -0.0346 -0.0491
 4733W        W20627  14.687   0.785  12.249  0.1669  0.0586 -0.0998
 4734W        W20628   2.473   2.959   2.462  0.2221 -0.0352  0.0014
 4735W        W20629   3.551  12.040   4.514 -0.0524  0.1648  0.1623
 4736W        W20630   8.414   0.824   1.849 -0.1447  0.1428 -0.1782
 4737W        W20631   4.425  11.504  15.142 -0.1092  0.1623 -0.2618
 4738W        W20632   0.291   2.648  12.295 -0.1725 -0.1759  0.1183
 4739W        W20633   5.934  16.830   1.678 -0.1596  0.0352  0.0349
 4740W        W20634   8.490   7.849  14.541  0.0702  0.2027  0.2728
 4741W        W20635  13.052   2.526  16.595 -0.2145  0.0617 -0.0596
 4742W        W20636   8.959   6.068  11.404  0.1719 -0.0447  0.0046
 4743W        W20637  10.430  10.714   0.926  0.0182  0.0747 -0.0876
 4744W        W20638  12.430  16.663  13.714 -0.3647 -0.0224  0.2799
 4745W        W20639   5.625   8.865   5.451 -0.0238  0.1481 -0.1016
 4746W        W20640   7.314  17.093  15.324  0.2469  0.0411 -0.1352
 4747W        W20641  14.685   4.233   1.803  0.1380  0.3157  0.0958
 4748W        W20642   6.860  11.011   4.837  0.0117  0.0440  0.1328
 4749W        W20643   8.168   9.028   4.282  0.2292 -0.1816 -0.2512
 4750W        W20644  12.430   8.664  14.728  0.0951  0.0321 -0.0236
 4751W        W20645   3.078   5.351  12.545  0.0212  0.0415  0.1632
 4752W        W20646  12.895  17.187  13.295  0.0508 -0.0884 -0.1472
 4753W        W20647  13.222  15.678  16.454 -0.1010  0.2011  0.2200
 4754W        W20648   4.299   3.980   5.165  0.0194  0.0060 -0.1731
 4755W        W20649  15.736   9.908  12.509  0.2144 -0.1967 -0.1456
 4756W        W20650   5.528   0.835   0.377 -0.2201  0.1463  0.2874
 4757W        W20651  17.123  15.265  15.439  0.1208 -0.2031 -0.0498
 4758W        W20652   0.168   1.070   4.706 -0.1475 -0.0579  0.1149
 4759W        W20653   2.465   9.669  14.124  0.1810 -0.2737  0.2994
 4760W        W20654  12.091   4.976  13.303 -0.0830 -0.0239  0.2360
 4761W        W20655   2.652  12.128  15.659  0.0853 -0.1406  0.1289
 4762W        W20656  12.919  11.761  13.619  0.2863  0.1740  0.4228
 4763W        W20657   0.853  10.936  15.677  0.2362 -0.1076  0.1553
 4764W        W20658   3.519   6.415  14.706  0.3038  0.3488 -0.2153
 4765W        W20659  16.932  17.624   5.635 -0.1834  0.2690 -0.1066
 4766W        W20660  10.079   3.648  14.415 -0.2242  0.0619  0.0594
 4767W        W20661   5.004   0.639  11.311 -0.0015  0.1724 -0.1826
 4768W        W20662   1.376  15.679  15.153  0.2349 -0.1492  0.2045
 4769W        W20663  12.230   1.620   1.459  0.0850 -0.2698 -0.1841
 4770W        W20664   6.059   1.396   5.163  0.0405  0.0113 -0.1133
 4771W        W20665   0.344  16.804   6.211  0.1995  0.1642 -0.0474
 4772W        W20666  14.907   2.344   3.464  0.1324  0.2030  0.0531
 4773W        W20667   3.540  11.221  16.273  0.2475 -0.0972  0.4188
 4774W        W20668   5.172   9.153   2.711 -0.2480  0.1348  0.0237
 4775W        W20669  16.516  14.825   6.435 -0.1976  0.1938  0.0581
 4776W        W20670  13.747  13.008  14.511  0.1936  0.0258  0.0709
 4777W        W20671   4.242   0.184  16.403  0.1506  0.0173 -0.1156
 4778W        W20672   9.301   1.488  15.456 -0.2902 -0.0590  0.0495
 4779W        W20673   4.550   4.129  16.793 -0.2137  0.0462 -0.2360
 4780W        W20674   4.710   2.298  16.031 -0.0607 -0.0259  0.1309
 4781W        W20675  14.661   2.073  15.891 -0.3638 -0.0236 -0.0744
 4782W        W20676  14.541   4.862  15.211  0.0437 -0.0367  0.3051
 4783W        W20677   2.803   2.165   5.591  0.2143 -0.1095 -0.0292
 4784W        W20678  10.043  13.205  14.776  0.3660  0.2718  0.1417
 4785W        W20679   5.244  15.458   0.251  0.3213  0.0745  0.2764
 4786W        W20680  11.156   8.307   2.173  0.2359 -0.2534 -0.2307
 4787W        W20681  15.515   2.380  12.715 -0.0877  0.3646  0.0591
 4788W        W20682   5.298  12.240   3.625  0.1501 -0.1872  0.2767
 4789W        W20683  13.826  10.499   0.647 -0.4508 -0.0307 -0.0128
 4790W        W20684  11.409   0.701   3.680 -0.0975 -0.0395  0.1955
 4791W        W20685   3.350  11.005  15.691  0.1021 -0.2769 -0.1921
 4792W        W20686  16.509   8.812   5.729  0.1967  0.2419 -0.2053
 4793W        W20687   7.034   6.940  14.024  0.1803  0.2577 -0.1792
 4794W        W20688   4.060  15.893   2.383 -0.1635 -0.0324  0.0508
 4795W        W20689   2.461  11.866  13.775 -0.1302  0.0773 -0.0002
 4796W        W20690   8.419  16.316   5.422  0.0417 -0.0905  0.2020
 4797W        W20691  10.330   8.457   5.760  0.0957 -0.1912 -0.5836
 4798W        W20692  13.644  11.454   0.177  0.0425  0.0790  0.0113
 4799W        W20693   3.663  13.692  12.079  0.2656 -0.2064  0.0665
 4800W        W20694  17.443   5.697   1.166  0.0638 -0.2851 -0.0077
 4801W        W20695   3.507   8.106  11.615  0.0800 -0.0971  0.0883
 4802W        W20696  10.388   0.885   4.854 -0.3334 -0.0092  0.0750
 4803W        W20697   0.091  11.544  12.486  0.0493  0.0495  0.1613
 4804W        W20698   2.527   3.308  13.660 -0.1970  0.1206 -0.1566
 4805W        W20699   5.431   9.143   5.081  0.5954 -0.0824  0.1857
 4806W        W20700   2.574  17.647  12.991  0.2768 -0.0351 -0.0682
 4807W        W20701   1.013  12.140   5.229  0.0091 -0.0084 -0.1445
 4808W        W20702  14.202   4.333   3.317 -0.2381 -0.2242  0.0079
 4809W        W20703   9.708   2.920  14.768 -0.3685  0.0454  0.2666
 4810W        W20704  11.747   2.534  14.151 -0.1075  0.1209 -0.2319
 4811W        W20705  15.093  14.273   6.068 -0.1142  0.1398 -0.1294
 4812W        W20706   6.018   0.540  14.604  0.1577  0.0851 -0.0472
 4813W        W20707  11.355   7.180   2.980 -0.0062  0.2566 -0.2626
 4814W        W20708   6.519  13.776   3.207  0.1975  0.1781 -0.1137
 4815W        W20709  11.224  12.245   2.228 -0.0300  0.1303  0.1544
 4816W        W20710   8.841  14.171   1.654 -0.1475 -0.1209  0.1642
 4817W        W20711  11.869   3.708   3.965  0.1258 -0.1192  0.0822
 4818W        W20712   5.665   0.673   3.105  0.0667  0.3533  0.3404
 4819W        W20713   6.334   6.770  14.051 -0.2924  0.1764 -0.0580
 4820W        W20714  15.267   3.951   5.532 -0.1984  0.1163 -0.1126
 4821W        W20715   9.716   2.635   2.030 -0.3362  0.0460 -0.4926
 4822W        W20716  11.945  11.170  14.648 -0.2039  0.0667 -0.1646
 4823W        W20717  17.120   7.313  12.583 -0.0435  0.1857  0.1011
 4824W        W20718  13.818   0.886  16.330  0.1497  0.2160 -0.0523
 4825W        W20719   5.770   2.026  11.233  0.0419 -0.1423  0.0859
 4826W        W20720   1.320   3.228  16.586  0.1312  0.0786  0.3929
 4827W        W20721  14.404   9.780   5.760  0.2446  0.2909 -0.0586
 4828W        W20722   7.460   0.594   1.173 -0.2269  0.3404  0.2224
 4829W        W20723   2.649  14.749  16.292  0.1042  0.1039  0.4924
 4830W        W20724   1.821  13.637   2.020 -0.0305  0.4429  0.0222
 4831W        W20725  10.784  14.347   1.924  0.0678  0.1327 -0.1873
 4832W        W20726  13.917   3.199  16.669  0.0609  0.1942 -0.2153
 4833W        W20727  17.378   0.386  15.775 -0.1639  0.0150  0.1067
 4834W        W20728   1.472  16.338  12.933  0.1094 -0.0818 -0.0125
 4835W        W20729   9.655   6.778  12.285 -0.0404  0.0268  0.0167
 4836W        W20730   9.566  13.575  13.995  0.3488  0.0877  0.3681
 4837W        W20731   7.561   8.940  14.057  0.3200  0.0307 -0.0657
 4838W        W20732  10.000  11.095   4.930  0.2345  0.0501 -0.3103
 4839W        W20733   6.803  11.794   4.037 -0.0474 -0.2463  0.0392
 4840W        W20734  11.347  17.421  13.992 -0.0631  0.0702 -0.2515
 4841W        W20735   6.386  12.179  12.791 -0.0383  0.0231 -0.1868
 4842W        W20736  11.945   1.622  14.393  0.0265 -0.0838  0.1835
 4843W        W20737   7.855   9.936   4.747  0.4191 -0.0456  0.0900
 4844W        W20738   5.611  15.504  11.658 -0.2661 -0.2574 -0.2442
 4845W        W20739   1.650  14.451  13.985  0.0402  0.1413 -0.0962
 4846W        W20740   4.382   9.999   4.839 -0.2861  0.0443  0.0317
 4847W        W20741   9.852   6.349   4.095  0.0497  0.0459 -0.0566
 4848W        W20742  17.392   1.864  13.023 -0.0615 -0.1371 -0.0694
 4849W        W20743   2.055   7.112   4.747 -0.0054 -0.1929  0.1330
 4850W        W20744  14.786  16.528   4.561  0.0953 -0.4255 -0.1215
 4851W        W20745  13.168  16.565   0.110 -0.2261  0.0561  0.0798
 4852W        W20746   4.058  14.189  14.704  0.2134 -0.0511 -0.1540
 4853W        W20747   8.025  11.603   1.357  0.1205 -0.2212 -0.0030
 4854W        W20748   4.931   7.884  15.460 -0.1629 -0.2143  0.3184
 4855W        W20749   2.694   1.990   0.591 -0.0354  0.1145 -0.1269
 4856W        W20750   9.659  15.935  15.862  0.3176  0.1931 -0.0411
 4857W        W20751   1.448  13.383   4.409 -0.1740  0.1114 -0.0141
 4858W        W20752  11.788  16.937  15.140 -0.0555  0.0698  0.1121
 4859W        W20753  13.174   6.369  15.870  0.1406 -0.1856 -0.1544
 4860W        W20754   2.900  16.759  11.956 -0.1490 -0.1877 -0.0616
 4861W        W20755   3.170  17.403  11.784  0.0532  0.0881  0.1413
 4862W        W20756   3.952   2.894   3.179 -0.1812  0.1756 -0.0527
 4863W        W20757   3.705  17.032  10.973  0.0700 -0.0468  0.1425
 4864W        W20758  13.817   6.212   0.810 -0.2094  0.0705 -0.0060
 4865W        W20759   8.908  17.400   5.730  0.1417 -0.1988 -0.2506
 4866W        W20760  13.206  14.252   4.227 -0.1224 -0.0702 -0.1031
 4867W        W20761  16.009   1.636  15.172  0.1023 -0.0142 -0.4927
 4868W        W20762   9.106  11.776   0.502  0.1287 -0.1335 -0.1931
 4869W        W20763  13.415   2.083   2.162 -0.1118 -0.3663 -0.1438
 4870W        W20764   3.346  17.418   1.470 -0.2051  0.2125 -0.2010
 4871W        W20765   3.655   9.902   4.715 -0.1484  0.0481 -0.0207
 4872W        W20766   0.116  17.477  13.151 -0.0323  0.1086  0.0480
 4873W        W20767   4.040  11.730  15.424  0.1051  0.2744  0.2300
 4874W        W20768  10.107  14.348  15.659  0.0145 -0.1554 -0.1233
 4875W        W20769   1.790  15.697   3.706  0.0736 -0.0464  0.0093
 4876W        W20770   8.014  16.340   2.874 -0.1563 -0.1598  0.2858
 4877W        W20771  13.350  17.627  15.463 -0.1443 -0.1193 -0.0070
 4878W        W20772   3.776   0.783   6.032  0.1404  0.0840 -0.0190
 4879W        W20773   1.678  12.560   4.473  0.0993 -0.2333  0.1140
 4880W        W20774   3.211  16.499  13.446 -0.0115 -0.0246 -0.0060
 4881W        W20775   5.674  16.317  12.118 -0.1128  0.2029  0.1058
 4882W        W20776   7.560   1.555   3.737  0.1898 -0.1398  0.1398
 4883W        W20777  17.281   3.425  12.067  0.0665 -0.1750  0.1447
 4884W        W20778   6.519  15.070   3.498 -0.0020 -0.0075 -0.0559
 4885W        W20779   7.940   4.419  13.513 -0.1141 -0.0288  0.0086
 4886W        W20780   4.876   6.469  12.336  0.0530  0.3201 -0.0711
 4887W        W20781   7.413  13.281   3.541 -0.0026 -0.1534  0.3597
 4888W        W20782  11.186  10.185  15.845  0.0518  0.1320 -0.1913
 4889W        W20783   4.082   2.286   0.319 -0.2948 -0.0104  0.1182
 4890W        W20784   5.203  12.195  11.866 -0.1341 -0.0499 -0.0183
 4891W        W20785  12.552   8.218  14.316  0.1482  0.0800  0.0672
 4892W        W20786   6.967  12.637   4.446 -0.1864 -0.2269 -0.2066
 4893W        W20787   4.934  17.349  14.504  0.3287 -0.1875 -0.3122
 4894W        W20788  13.451  14.879   3.949 -0.0960  0.3688  0.0629
 4895W        W20789  11.092   6.281   4.523 -0.0229  0.1937  0.2989
 4896W        W20790   2.764   2.302  12.100  0.1169 -0.0727 -0.0533
 4897W        W20791  15.359   0.979   0.997 -0.0717 -0.0136 -0.3792
 4898W        W20792   8.183  14.254  14.299 -0.0698 -0.0390  0.1205
 4899W        W20793   3.304   7.096  14.813 -0.0370  0.1847  0.0103
 4900W        W20794   6.851   2.305  16.228  0.0325  0.3102  0.1715
 4901W        W20795  17.254  17.250   3.266  0.0056 -0.3643 -0.2579
 4902W        W20796  14.338  14.837   6.007 -0.1753  0.1433 -0.0857
 4903W        W20797   3.299   5.294  13.184  0.1961  0.2829 -0.2042
 4904W        W20798   8.051  17.647  15.473  0.3053  0.1974  0.0508
 4905W        W20799  15.858   0.875   2.671  0.0332  0.0358  0.0493
 4906W        W20800   1.427   6.242  14.140  0.0147  0.1697  0.0622
 4907W        W20801  15.295   5.534   2.032 -0.2499  0.0124  0.0530
 4908W        W20802   7.708   1.856   0.444  0.0568  0.1509  0.1050
 4909W        W20803  14.141  10.432   1.493 -0.0754  0.3247 -0.0328
 4910W        W20804   8.000   8.695  12.744  0.2237  0.2022  0.0589
 4911W        W20805  10.575  14.961   3.603 -0.2525 -0.1770 -0.0439
 4912W        W20806  16.347  13.686  13.583 -0.2377 -0.0483 -0.3123
 4913W        W20807   4.971   5.211   1.940  0.0548  0.0537 -0.1979
 4914W        W20808  14.158  13.307   5.853  0.1735  0.0711 -0.2023
 4915W        W20809  13.015   9.097   4.896 -0.1793  0.0503  0.0301
 4916W        W20810  13.600   2.739   5.902  0.1648 -0.1050  0.0543
 4917W        W20811   7.945   4.812  12.581 -0.0341 -0.2029 -0.0685
 4918W        W20812   5.944   8.045   5.514  0.1577  0.0585  0.2073
 4919W        W20813   1.823   9.481   3.580 -0.1659  0.3153 -0.1806
 4920W        W20814  16.812   2.336  13.131  0.3496 -0.0819  0.0506
 4921W        W20815   0.075   1.732   5.572  0.2720 -0.1435  0.0206
 4922W        W20816   0.520  10.241  14.124  0.0147 -0.2162 -0.0992
 4923W        W20817  16.639  11.840   0.289 -0.0389  0.0477  0.1992
 4924W        W20818   4.490   7.830  13.327  0.2477  0.1119  0.0019
 4925W        W20819  15.952   3.664   3.632 -0.2615  0.2764 -0.1105
 4926W        W20820  14.042  16.359  13.775  0.1494 -0.1793  0.0296
 4927W        W20821  11.233  12.111   3.903 -0.2802  0.0524  0.2856
 4928W        W20822  15.337   6.300   3.982  0.0322  0.1762  0.1069
 4929W        W20823  12.883  17.511   2.815 -0.2983  0.0900  0.1549
 4930W        W20824   4.309   2.552   5.755  0.0496  0.1469  0.4925
 4931W        W20825   8.128   1.495   2.190  0.0738 -0.0197 -0.0171
 4932W        W20826   0.062   3.469   3.168 -0.1137  0.0440 -0.0439
 4933W        W20827  16.779  14.236  14.407 -0.1435  0.0720  0.1249
 4934W        W20828   4.156   4.887  14.119  0.0239 -0.2634 -0.1610
 4935W        W20829   4.299  10.428   1.744 -0.0003  0.1239  0.0655
 4936W        W20830   7.047   7.409   3.794  0.1387  0.0499  0.0591
 4937W        W20831   1.203  15.158  13.891  0.0759 -0.0721  0.0488
 4938W        W20832   3.754  14.549  14.486 -0.0044  0.0902  0.0254
 4939W        W20833   1.142  17.370   1.876  0.0886 -0.2074  0.2440
 4940W        W20834  10.262   2.311   0.489 -0.1004  0.2154  0.1962
 4941W        W20835   6.152  15.209  16.654  0.2109  0.2038  0.0870
 4942W        W20836  11.744   6.623  14.902 -0.0294  0.0736  0.0006
 4943W        W20837  17.842  16.254  16.383 -0.2288  0.3107  0.0434
 4944W        W20838   2.051   5.543   1.120 -0.0430 -0.1577 -0.0453
 4945W        W20839   0.975   7.094   3.800 -0.2297 -0.0074  0.0647
 4946W        W20840   3.224   4.420   1.210  0.2108  0.0229  0.1547
 4947W        W20841   9.541  14.144  16.349 -0.0305 -0.0800  0.1906
 4948W        W20842   5.369   4.942   2.791 -0.0137  0.0163 -0.1435
 4949W        W20843   0.565  12.648   4.428  0.0379  0.0440  0.0637
 4950W        W20844  13.371  16.487  14.053 -0.1145  0.1122  0.0800
 4951W        W20845   8.797   9.147  12.972 -0.3630  0.2100  0.3577
 4952W        W20846   5.711  10.670   2.758 -0.1314  0.3887  0.0529
 4953W        W20847  14.112  10.054  15.795  0.3320  0.3491 -0.0952
 4954W        W20848   9.320  10.348   2.053 -0.2878 -0.1410  0.2396
 4955W        W20849   7.672   1.302  16.055  0.2023  0.2016  0.0451
 4956W        W20850  11.773   5.523  13.912 -0.0564  0.0190 -0.2924
 4957W        W20851   1.306  10.418   2.729  0.2318  0.1284  0.0549
 4958W        W20852  10.874   1.978   4.400 -0.0066 -0.1680 -0.2148
 4959W        W20853  12.835   3.507  12.559 -0.2485 -0.0999 -0.1455
 4960W        W20854   7.688  12.695  13.550 -0.2368  0.0331 -0.2358
 4961W        W20855  12.304   5.845   4.788 -0.0262 -0.0865 -0.1744
 4962W        W20856  12.817   0.465   5.098 -0.0864 -0.3115 -0.1138
 4963W        W20857  10.370   6.147  12.716 -0.0108 -0.1750  0.0419
 4964W        W20858  15.830  13.347  12.733 -0.0246 -0.2924 -0.3084
 4965W        W20859   1.642  10.446  15.633 -0.2566  0.1234  0.2944
 4966W        W20860   0.802  15.767  13.220 -0.0589 -0.0214 -0.1220
 4967W        W20861   5.019   2.058   5.906  0.2447  0.0822  0.0315
 4968W        W20862  13.872  11.325  13.289 -0.0107 -0.0747 -0.0206
 4969W        W20863   1.799   5.464  12.676 -0.1220 -0.0090  0.1185
 4970W        W20864   7.293   8.073  15.397  0.4095 -0.0528 -0.2023
 4971W        W20865   4.591   6.257  16.012 -0.0017  0.4406 -0.0983
 4972W        W20866  14.182  13.969   1.726  0.0595 -0.0962 -0.0748
 4973W        W20867  16.002   5.735   4.992 -0.1674  0.1718 -0.1063
 4974W        W20868  13.765  14.556  12.941 -0.2735 -0.2031 -0.1121
 4975W        W20869   3.934  14.883   4.068  0.0527 -0.0191  0.2958
 4976W        W20870  16.986  10.501  15.471 -0.1179 -0.2925  0.2602
 4977W        W20871  16.159   0.088  16.784 -0.3400 -0.1812 -0.1607
 4978W        W20872   1.053   1.781  10.432  0.1947 -0.0665 -0.1158
 4979W        W20873   6.700  13.329   4.061  0.0304  0.0355 -0.1935
 4980W        W20874   9.049   5.709   1.054  0.0927  0.0654  0.2792
 4981W        W20875  14.553   4.387  12.917  0.0707 -0.2020  0.1287
 4982W        W20876  15.973  15.785   2.281 -0.0955 -0.0504  0.0205
 4983W        W20877  12.015  10.548  13.382 -0.1525 -0.0572 -0.3150
 4984W        W20878   2.176   6.964   3.038 -0.0973 -0.0592  0.0728
 4985W        W20879  16.016  14.473  12.582 -0.0164 -0.2144 -0.1826
 4986W        W20880  10.583  15.003  16.137  0.1794 -0.2960 -0.2082
 4987W        W20881  12.631   3.786  14.292  0.1467 -0.1509 -0.1598
 4988W        W20882  16.816  15.032   5.878 -0.0315 -0.1359  0.0183
 4989W        W20883   1.070  11.865   4.165  0.1027  0.4645 -0.1166
 4990W        W20884   4.881   6.388   2.112 -0.0762 -0.3029  0.2351
 4991W        W20885  10.389  12.858   1.423  0.0880 -0.1722  0.0317
 4992W        W20886  12.407  13.908   3.665  0.0992 -0.1227 -0.2813
 4993W        W20887   3.884  15.408   3.757  0.0786  0.0620  0.2088
 4994W        W20888   5.468   8.385   5.410  0.1100 -0.2070  0.1658
 4995W        W20889  11.050   7.100  16.253  0.1451  0.1056  0.0179
 4996W        W20890  12.986   8.378  12.905  0.0860  0.1177 -0.1019
 4997W        W20891  10.112   9.859   1.572 -0.2606  0.1084  0.1535
 4998W        W20892  12.827  14.917   1.676  0.0286 -0.1775 -0.2268
 4999W        W20893   8.431   6.824   4.814 -0.3928  0.2383  0.3031
 5000W        W20894  16.952   9.054   3.919 -0.1375 -0.1188 -0.0485
 5001W        W20895  16.681  11.287  12.862 -0.6038 -0.2637 -0.2073
 5002W        W20896  14.083   5.080  11.215  0.1795  0.2232 -0.2225
 5003W        W20897  17.738   8.914  13.403  0.1485  0.1302  0.1759
 5004W        W20898   9.909  12.769   2.306  0.3967 -0.2245 -0.2105
 5005W        W20899   3.520   7.392   0.007 -0.1888 -0.0456  0.0132
 5006W        W20900   3.095   4.986   1.772  0.2042 -0.2827 -0.2555
 5007W        W20901   2.387   4.175  12.117  0.0258 -0.0776 -0.0698
 5008W        W20902   5.364   4.242   0.408 -0.3075  0.3388  0.1591
 5009W        W20903  11.540   8.237  15.148  0.1422 -0.0252 -0.2358
 5010W        W20904   6.830   6.258   5.113 -0.1251  0.2722 -0.1265
 5011W        W20905   4.293   3.740  16.508 -0.2008  0.2715  0.0222
 5012W        W20906   7.033  16.190   3.238 -0.1911  0.1414  0.2560
 5013W        W20907   7.463   1.733  14.748  0.1714 -0.1191  0.0902
 5014W        W20908   5.297   0.069  15.272  0.1019  0.0667  0.0487
 5015W        W20909  13.579  12.111   0.261 -0.0649 -0.2878 -0.0319
 5016W        W20910  13.852  13.743  13.416  0.0679  0.0257  0.2912
 5017W        W20911  15.196   6.023   1.551 -0.1311  0.0931  0.0413
 5018W        W20912  14.111   1.694  11.467  0.1396  0.3559 -0.2235
 5019W        W20913   8.255  11.735  13.258  0.1180 -0.0456 -0.0920
 5020W        W20914  16.472  10.387  15.407 -0.0922 -0.1972  0.0358
 5021W        W20915  11.427   1.677  11.365  0.1353  0.2646  0.0921
 5022W        W20916   9.800  10.154   1.268  0.0424  0.0172 -0.1191
 5023W        W20917   3.077  16.482   5.333  0.0787 -0.1925 -0.1346
 5024W        W20918  17.465   9.144   5.904 -0.1670  0.1222 -0.1198
 5025W        W20919   6.473  10.562  11.840  0.1452  0.0943 -0.1717
 5026W        W20920   4.955   2.486  15.167  0.0337 -0.2893 -0.1874
 5027W        W20921  16.638  10.103   2.829 -0.0095  0.0451  0.0191
 5028W        W20922   9.260  11.036  15.325  0.1233 -0.0754  0.1490
 5029W        W20923   3.535   5.075   5.569 -0.3834 -0.2495 -0.2016
 5030W        W20924  14.635  16.360   2.239 -0.0221  0.2015  0.3385
 5031W        W20925   2.251  10.782   1.896 -0.0694  0.1005  0.0581
 5032W        W20926  10.344   4.362  12.020  0.2275 -0.3903  0.2065
 5033W        W20927  12.960   3.459  13.519  0.1120  0.1609  0.0094
 5034W        W20928   1.214   9.857   3.054 -0.1733 -0.0969 -0.2279
 5035W        W20929  10.817  10.879  15.590  0.0127 -0.0286 -0.0451
 5036W        W20930  10.015   6.889   5.903  0.0810 -0.1378  0.1078
 5037W        W20931  15.046   9.796   0.685  0.2787  0.0185  0.1165
 5038W        W20932  11.165  10.547   0.210  0.3073 -0.0686 -0.1804
 5039W        W20933   1.912  10.807   4.687 -0.1846  0.3478  0.0626
 5040W        W20934   4.262   9.030  15.204 -0.0805  0.2364  0.0368
 5041W        W20935   2.400   8.179   3.385 -0.1746  0.4523  0.0179
 5042W        W20936   0.755   9.535  16.919 -0.0385  0.0062  0.1942
 5043W        W20937  11.508  10.912   5.839 -0.3111 -0.5497  0.0820
 5044W        W20938  16.070  15.303  14.521  0.0303 -0.2419 -0.1185
 5045W        W20939   8.463   2.190   4.372  0.0616 -0.0142  0.0456
 5046W        W20940   0.710   3.128  15.457  0.3637  0.0975  0.1356
 5047W        W20941   0.607  13.807   0.437 -0.0020 -0.0211  0.1998
 5048W        W20942  16.619  16.975   4.078 -0.0793  0.1611 -0.2123
 5049W        W20943  15.918   3.545   4.142 -0.0568 -0.2190  0.0115
 5050W        W20944   5.421   6.699   0.932  0.0921  0.1136  0.1317
 5051W        W20945   3.419   1.787  11.735 -0.0930 -0.2300 -0.0953
 5052W        W20946  10.147   3.595   1.093  0.2132  0.0186  0.1099
 5053W        W20947  16.735  11.291   0.349 -0.0032 -0.1423  0.1090
 5054W        W20948   4.602  15.713  12.294  0.1458 -0.1408 -0.0839
 5055W        W20949  13.799   0.998  13.999  0.0409 -0.0456 -0.3302
 5056W        W20950  16.183   0.026   5.272 -0.0571 -0.0753 -0.2726
 5057W        W20951   8.884  12.145   6.487  0.3271 -0.2880 -0.0768
 5058W        W20952   9.770  17.330  13.512  0.1855 -0.4274 -0.4168
 5059W        W20953   5.768   0.986   5.063 -0.2171 -0.1415 -0.0089
 5060W        W20954   7.555  11.267   6.168  0.4537  0.1398  0.0694
 5061W        W20955  14.482  10.665  15.176 -0.3348 -0.0936 -0.0091
 5062W        W20956  10.859  13.693  15.821  0.1913  0.0549  0.2127
 5063W        W20957   5.779   1.742   3.435 -0.0563 -0.1443  0.0633
 5064W        W20958  17.093   1.715   0.107  0.1189  0.1044 -0.0824
 5065W        W20959   2.031  14.368  12.493 -0.1918  0.2625  0.0880
 5066W        W20960  17.353   8.595   5.669  0.2425  0.3033  0.0429
 5067W        W20961  16.494   0.643   0.963 -0.0746  0.1203 -0.1072
 5068W        W20962  17.638   3.246   3.780 -0.0983 -0.1590  0.1382
 5069W        W20963  14.536   6.077   3.867 -0.0093 -0.0337 -0.0958
 5070W        W20964   2.859  14.308   2.074 -0.3727  0.1361  0.2070
 5071W        W20965   6.050  10.417  14.281  0.1219 -0.2213 -0.1226
 5072W        W20966  10.875   3.880   2.085 -0.0030  0.0261 -0.0778
 5073W        W20967  15.005  10.099  15.584  0.1466 -0.0259  0.0245
 5074W        W20968  11.777   3.563  11.630  0.0174 -0.1285  0.2080
 5075W        W20969   9.483  10.527   2.545  0.1283  0.0090  0.1929
 5076W        W20970   0.267   2.890  14.885 -0.1404  0.0636  0.0134
 5077W        W20971  13.824  15.866   1.019 -0.0107  0.0218  0.0338
 5078W        W20972   0.066   5.363  12.579  0.3872 -0.2282 -0.2015
 5079W        W20973   0.611   0.429  11.924  0.1062 -0.0592  0.0163
 5080W        W20974  13.927   8.460  11.708 -0.0883  0.0851  0.2305
 5081W        W20975   7.584   5.594  14.227  0.1976  0.2332  0.0290
 5082W        W20976   2.596   1.045  12.340  0.1498  0.1921 -0.0094
 5083W        W20977   4.356   7.737  13.789  0.0091 -0.0422 -0.1091
 5084W        W20978   9.787   8.327  16.290 -0.1942  0.1138  0.3763
 5085W        W20979   0.870  16.066   3.496  0.1144  0.0553 -0.0886
 5086W        W20980   6.699  15.141   4.396 -0.1813 -0.1176  0.2091
 5087W        W20981   2.713   3.938  14.387  0.2565 -0.2453 -0.2154
 5088W        W20982   3.353   3.490   5.551  0.0933 -0.2844  0.2538
 5089W        W20983   0.418   6.573  14.186  0.3475  0.2123 -0.1703
 5090W        W20984   7.294  13.802  12.631 -0.2247  0.3292 -0.1694
 5091W        W20985  14.186   1.948   0.356 -0.0953  0.2725 -0.0445
 5092W        W20986   2.502   2.099   3.156 -0.4132 -0.1662 -0.0612
 5093W        W20987   3.187  14.402   5.113  0.0182 -0.2133 -0.0370
 5094W        W20988   7.000   3.532  16.075 -0.5276  0.1942 -0.2232
 5095W        W20989   0.202   6.395  14.654 -0.1016 -0.0995  0.0167
 5096W        W20990   5.280   5.855  13.763  0.0735 -0.3594  0.1126
 5097W        W20991  10.960  15.818  12.823 -0.1400 -0.0725  0.0707
 5098W        W20992   8.701  12.555   1.855  0.1008 -0.2082 -0.1146
 5099W        W20993   7.069  17.229   3.925 -0.2571  0.0770  0.0204
 5100W        W20994   0.101   4.507   0.822 -0.1174  0.1595  0.1728
 5101W        W20995  13.085   9.420   6.107 -0.1949 -0.1560 -0.2965
 5102W        W20996   2.221  17.566   3.526 -0.3814 -0.0066  0.1198
 5103W        W20997   7.248  11.694   6.651 -0.0232  0.2623  0.1923
 5104W        W20998   0.307  17.026  14.321 -0.0383  0.0254  0.1392
 5105W        W20999   1.383   1.158   1.821 -0.2346  0.2021  0.0902
 5106W        W21000   9.597   0.213   0.435  0.2008 -0.0701 -0.0162
 5107W        W21001  12.362   6.475  15.255 -0.1353  0.0673 -0.1694
 5108W        W21002  15.724   1.882  15.726 -0.0390  0.0967  0.1574
 5109W        W21003   3.329  11.923  13.237 -0.0795  0.1047 -0.1355
 5110W        W21004   0.736   2.701  15.048 -0.0064 -0.4104 -0.1477
 5111W        W21005   0.411   3.004  16.316 -0.3342 -0.0356 -0.3343
 5112W        W21006   2.478  10.907   0.016 -0.4238 -0.1408 -0.1401
 5113W        W21007  12.413   4.189  13.449 -0.2148  0.3989  0.0477
 5114W        W21008   8.439  15.175  15.895  0.1154  0.2906  0.0051
 5115W        W21009   9.793   3.230   5.734  0.1494  0.3540 -0.1548
 5116W        W21010   7.796  14.459  11.848  0.0624 -0.1295  0.0180
 5117W        W21011   8.215   0.147  12.006 -0.0096  0.0442 -0.0041
 5118W        W21012   3.059   5.678   4.622  0.0698  0.2228 -0.1191
 5119W        W21013   4.019  13.958   5.346 -0.3465 -0.1597  0.0491
 5120W        W21014  13.085  14.562  12.444 -0.2180 -0.1062 -0.2244
 5121W        W21015   4.311  13.469  11.914 -0.3093 -0.0420 -0.0109
 5122W        W21016   1.928   5.342  13.933  0.0194 -0.1551 -0.3060
 5123W        W21017   2.225   5.294   2.134  0.0914  0.2089 -0.0603
 5124W        W21018   0.592   0.624  14.195 -0.2547 -0.0784 -0.0572
 5125W        W21019   2.358   6.518   4.189  0.0251  0.0916  0.2358
 5126W        W21020   5.884  12.837   6.037 -0.2362 -0.1642 -0.1914
 5127W        W21021   1.682   2.546   4.323 -0.1579  0.1222  0.1071
 5128W        W21022   7.419   6.069   4.351  0.0471  0.4434  0.0379
 5129W        W21023   8.144   1.878   0.741 -0.3120  0.2357 -0.0968
 5130W        W21024  14.318  16.587  14.904 -0.0810 -0.0833 -0.2996
 5131W        W21025   6.465  14.568   4.482 -0.2135  0.1481 -0.1843
 5132W        W21026   3.952   4.107   1.001 -0.0567 -0.1768  0.0689
 5133W        W21027   3.547   1.175  13.015 -0.2379 -0.0456 -0.0815
 5134W        W21028   7.071   3.021   3.519  0.5037  0.0834 -0.2140
 5135W        W21029   5.833   4.983   0.791  0.0459 -0.0195 -0.1999
 5136W        W21030  15.296   0.733  14.453 -0.1050  0.1580  0.2476
 5137W        W21031   1.524   8.474  12.205  0.5392  0.0543  0.0766
 5138W        W21032  10.407  12.672  15.565  0.0998 -0.0763 -0.2791
 5139W        W21033   0.124   8.024   5.268  0.2432  0.0031 -0.0576
 5140W        W21034   6.174   1.728  13.620  0.2664 -0.0016  0.0564
 5141W        W21035   1.462   8.092   5.282  0.0004 -0.0535 -0.0630
 5142W        W21036   2.365  15.490  13.738  0.0702 -0.0968  0.0817
 5143W        W21037   0.215   2.426  15.084 -0.1390  0.0185 -0.3274
 5144W        W21038   4.801   4.822  12.051 -0.0373  0.0909 -0.2260
 5145W        W21039  12.987   0.973   1.360  0.1512  0.1515 -0.2901
 5146W        W21040   0.219  17.744   0.075  0.1987  0.1554 -0.0474
 5147W        W21041   7.557  14.623   0.506  0.2349 -0.1280  0.2772
 5148W        W21042  16.402  12.366   0.502  0.1391 -0.1532  0.0188
 5149W        W21043   1.874  11.386   5.813  0.1144 -0.0091  0.1883
 5150W        W21044  16.434  16.368   0.639 -0.1243  0.1814 -0.2336
 5151W        W21045   8.159   1.515  16.083  0.0780  0.3460  0.0288
 5152W        W21046  17.762  11.897  12.802  0.1965  0.1317  0.1575
 5153W        W21047   2.635  17.228   3.391 -0.1152  0.0202  0.2169
 5154W        W21048  12.912   0.762  15.202  0.3550  0.0629 -0.0482
 5155W        W21049  16.939  13.475   0.080  0.3904 -0.0264 -0.2294
 5156W        W21050  14.117  17.684   3.978 -0.0053 -0.0898 -0.3128
 5157W        W21051  15.734  14.572  15.527  0.0638  0.1488  0.0053
 5158W        W21052  14.620  13.404  14.531 -0.1242  0.3041 -0.0810
 5159W        W21053   7.463  14.139  14.948  0.3925  0.0569  0.1415
 5160W        W21054   0.677   7.900   5.275  0.1411 -0.0286 -0.1872
 5161W        W21055   4.393   1.209   2.156 -0.0894  0.0391 -0.0179
 5162W        W21056  17.531   2.032   3.842  0.3576 -0.1719  0.0573
 5163W        W21057  17.368  14.333   2.608  0.0024 -0.0873 -0.0308
 5164W        W21058  14.115   4.341  13.155 -0.1013 -0.1815 -0.0282
 5165W        W21059   2.452  13.329  15.126 -0.2753 -0.0319  0.1733
 5166W        W21060   1.456  16.602  15.641 -0.0947 -0.2785  0.0082
 5167W        W21061   8.071   2.339  16.319 -0.1633 -0.4165  0.1566
 5168W        W21062  11.813   3.327  12.927  0.0544  0.2151 -0.0336
 5169W        W21063   0.350   7.453   4.551  0.2007  0.1121  0.0603
 5170W        W21064  13.732   4.521  13.435 -0.0968 -0.2446  0.0313
 5171W        W21065   8.397  14.721   2.438 -0.0464  0.0233  0.3348
 5172W        W21066  17.826   7.115   4.735  0.0996 -0.5900 -0.0189
 5173W        W21067  17.392   9.941   1.660 -0.3721  0.1887 -0.1833
 5174W        W21068   3.307  15.723   3.216 -0.0876 -0.0228 -0.1914
 5175W        W21069  10.104  13.897   5.976 -0.0564  0.2761  0.2232
 5176W        W21070   1.606   5.537   0.104 -0.2325  0.0762 -0.2443
 5177W        W21071   9.996   2.423  14.852 -0.1992 -0.2138 -0.1761
 5178W        W21072   0.882   0.546   4.481  0.1051  0.1584 -0.2379
 5179W        W21073  10.793   1.748  14.176  0.0876  0.0001 -0.1684
 5180W        W21074  15.045   3.440   2.626 -0.0086 -0.1457  0.1722
 5181W        W21075   9.622   8.865  12.812  0.1082  0.1576 -0.1001
 5182W        W21076  13.034  11.815  12.639  0.0908  0.0088  0.3099
 5183W        W21077  15.175  14.518   4.040  0.1061  0.1029 -0.1504
 5184W        W21078  11.268   8.383   5.064  0.0117 -0.1055  0.1525
 5185W        W21079   3.330  15.724  14.083  0.3178  0.0861  0.0011
 5186W        W21080  17.851  13.515   2.570  0.2538  0.0029  0.2391
 5187W        W21081   7.286  14.118   4.779  0.1063 -0.1168  0.2029
 5188W        W21082   0.638  11.438  16.479 -0.0589 -0.1625  0.0289
 5189W        W21083   7.661  11.630   2.816 -0.2417 -0.0611 -0.1848
 5190W        W21084  13.489   8.374  16.671  0.0741  0.1177  0.1834
 5191W        W21085   5.753   0.388   2.471 -0.0052 -0.2790  0.0680
 5192W        W21086   7.348  12.412   4.210 -0.0545 -0.0235  0.0804
 5193W        W21087  16.672  12.393   1.009  0.1409 -0.0347 -0.1382
 5194W        W21088  16.905   1.497   2.163  0.3179 -0.1137 -0.2564
 5195W        W21089   1.019   3.494   2.595 -0.3333  0.0358 -0.0797
 5196W        W21090  13.632  14.039  16.248 -0.0101 -0.2804 -0.0865
 5197W        W21091  14.277  10.372   4.637 -0.2610  0.1927 -0.0257
 5198W        W21092  11.421   9.472  12.315  0.2429 -0.0351  0.0542
 5199W        W21093   8.620   5.037  13.198  0.1050 -0.0004  0.0005
 5200W        W21094   4.887  15.648   5.752 -0.0487 -0.0260  0.1500
 5201W        W21095   2.555   9.875   5.282  0.1929  0.0870 -0.0905
 5202W        W21096  16.145   4.450  11.470  0.1363 -0.0687 -0.2886
 5203W        W21097   7.552  14.805  13.876  0.0489 -0.1091 -0.0951
 5204W        W21098  13.870   2.159   2.346  0.0058 -0.0209  0.1889
 5205W        W21099   2.666   3.715  15.959 -0.0232 -0.0117 -0.1262
 5206W        W21100  11.274   0.459   1.532  0.0872 -0.0712  0.3977
 5207W        W21101  11.595   7.747  16.298 -0.0370 -0.0960  0.2162
 5208W        W21102   7.512   1.161  15.594  0.2116  0.2295  0.1014
 5209W        W21103   3.717  13.483   0.353  0.0398  0.0871  0.2759
 5210W        W21104  11.062   6.661  13.381  0.1545 -0.0994 -0.1451
 5211W        W21105   7.319  15.632  14.219 -0.0389  0.3473 -0.3671
 5212W        W21106  12.050   5.313  12.895 -0.0795  0.0336 -0.2696
 5213W        W21107   9.052   4.239  12.914  0.1192 -0.1524 -0.2747
 5214W        W21108   0.188   2.626   5.334 -0.1350 -0.0970  0.0096
 5215W        W21109   1.201   6.515   1.008  0.0584  0.0160  0.1080
 5216W        W21110  17.072   1.585  14.566 -0.3350  0.0793 -0.1104
 5217W        W21111  13.457   1.161   2.182  0.1023 -0.1713  0.1824
 5218W        W21112   3.824  15.522   5.905 -0.1916 -0.3337  0.0435
 5219W        W21113  10.446  15.620  10.595 -0.0022 -0.0787 -0.2059
 5220W        W21114  12.583   5.507  12.770 -0.1357 -0.0725 -0.0421
 5221W        W21115   6.560  15.161   5.340 -0.1807 -0.0168 -0.0864
 5222W        W21116  17.462  14.464  15.162 -0.4659  0.3375  0.0954
 5223W        W21117   0.019   1.008  13.221 -0.0571 -0.0697  0.2204
 5224W        W21118   1.507   2.423   5.462 -0.1284  0.1220 -0.0947
 5225W        W21119  16.371   1.897  13.032  0.2020  0.1746 -0.1341
 5226W        W21120  10.050   3.297  11.949  0.5593 -0.0060 -0.1764
 5227W        W21121  14.517   3.217  16.557 -0.0945 -0.0978  0.0183
 5228W        W21122   7.325  17.236   2.179 -0.1667 -0.0417  0.0912
 5229W        W21123  17.466   1.837   2.193  0.2936  0.0167  0.1407
 5230W        W21124  17.670   3.798   2.887 -0.0449  0.2286  0.0591
 5231W        W21125   3.559  12.401   0.307  0.3887 -0.1037  0.0174
 5232W        W21126   6.790  13.584  14.857  0.1485  0.1296  0.0150
 5233W        W21127  16.369   1.193   2.197  0.3442 -0.2039 -0.2906
 5234W        W21128  16.197  15.235  16.309  0.0757 -0.2378 -0.0779
 5235W        W21129  11.390   8.326  14.643  0.1258 -0.2051  0.0205
 5236W        W21130   3.192  17.456  13.810 -0.0896 -0.0969  0.2515
 5237W        W21131  13.176  17.761   4.784  0.0953  0.0866  0.1407
 5238W        W21132  15.760   8.800  14.865 -0.1276  0.0099  0.0300
 5239W        W21133   4.852   5.658  12.117  0.0047 -0.3098  0.0232
 5240W        W21134  13.989  11.168  14.607  0.0739 -0.0419  0.0916
 5241W        W21135  14.959  17.043   3.023 -0.0859  0.0108 -0.1362
 5242W        W21136   4.330  15.877   0.367 -0.0049  0.0202 -0.0134
 5243W        W21137  13.616   7.899   4.406  0.1760  0.3405 -0.1300
 5244W        W21138   5.058  16.989  12.097  0.0470 -0.0426  0.0902
 5245W        W21139   0.639   3.496  15.134  0.1023 -0.1100  0.2263
 5246W        W21140  15.736   3.434  15.859  0.1317 -0.1304  0.1140
 5247W        W21141   5.900  10.596  16.130 -0.3893  0.0327 -0.2476
 5248W        W21142  14.502   2.589  16.266 -0.0580  0.0205  0.1040
 5249W        W21143   0.264  13.999   5.236  0.1408 -0.0477 -0.1520
 5250W        W21144   7.697   2.053  14.211 -0.3111 -0.1533  0.1432
 5251W        W21145   8.418  14.022  13.854 -0.0229  0.4472 -0.0246
 5252W        W21146   4.401  14.319   1.131 -0.0478 -0.1128 -0.1180
 5253W        W21147  15.281  14.266   2.590 -0.2706 -0.1493  0.1302
 5254W        W21148  14.238   9.360  15.468  0.0309 -0.1193  0.1813
 5255W        W21149   3.284   1.499   2.988  0.0854 -0.2749  0.0074
 5256W        W21150  10.429  11.435  11.304  0.1959  0.3962  0.0235
 5257W        W21151   3.669   3.117  14.869  0.0009 -0.0277  0.1583
 5258W        W21152  17.461  13.286  12.631 -0.0582  0.0302 -0.2368
 5259W        W21153   0.360  12.714  12.296 -0.0814  0.2543  0.0915
 5260W        W21154  13.886  11.884   5.939 -0.0524  0.0935  0.2285
 5261W        W21155  11.536  15.659  15.164  0.2542  0.2063 -0.2056
 5262W        W21156  17.785   2.787  13.991  0.0979 -0.0784 -0.1962
 5263W        W21157  13.367  15.987  13.127 -0.0247  0.2574  0.0739
 5264W        W21158   1.362  14.338  15.667  0.0110  0.1477 -0.2056
 5265W        W21159   3.840  14.709  12.667  0.3811  0.0121  0.0493
 5266W        W21160   0.795   5.760  14.193 -0.0575  0.1003 -0.0642
 5267W        W21161  11.738  11.970   1.125  0.0695 -0.2801 -0.1132
 5268W        W21162  15.198   6.903  13.454  0.2512 -0.0665 -0.1316
 5269W        W21163  15.466  11.000   1.355 -0.0479 -0.1381  0.0363
 5270W        W21164   2.839  16.873  13.403 -0.1386  0.1011 -0.2806
 5271W        W21165  17.809  15.151   5.881  0.1280  0.0666  0.2504
 5272W        W21166   0.927  15.813   3.013  0.0048  0.1995 -0.4041
 5273W        W21167  17.490  17.200  15.440 -0.0589 -0.0499 -0.1096
 5274W        W21168   7.376   8.896  13.236  0.1205 -0.1577  0.0270
 5275W        W21169   8.918  14.820   5.410 -0.0875 -0.0836  0.0795
 5276W        W21170  10.297  17.118   2.514  0.1703 -0.0158  0.1054
 5277W        W21171   9.067   7.054   2.396  0.1164  0.1142 -0.1644
 5278W        W21172   8.894  11.525  10.921  0.3867 -0.0032  0.0264
 5279W        W21173   9.564   2.796  10.644  0.0068 -0.2246 -0.4023
 5280W        W21174  12.219   9.323  14.455  0.4805  0.0891  0.0403
 5281W        W21175   6.260  15.322   3.944  0.0336  0.2120 -0.0215
 5282W        W21176   4.497   7.649   5.768 -0.0774 -0.0040 -0.0938
 5283W        W21177   0.031   3.112   0.917 -0.0683 -0.2424  0.2904
 5284W        W21178   4.812   2.247  13.054 -0.0240 -0.1688  0.5146
 5285W        W21179   6.544   0.067  16.124 -0.0076 -0.0965  0.1491
 5286W        W21180  10.386  15.675  12.073 -0.2220  0.4988  0.0884
 5287W        W21181  15.634   3.948  15.919  0.2093  0.0329  0.1306
 5288W        W21182  10.733  16.957  14.615  0.0439  0.1885  0.1099
 5289W        W21183   0.159  11.423   6.292  0.1549 -0.1064 -0.2332
 5290W        W21184   5.102   5.037   4.323 -0.1435  0.0517 -0.1172
 5291W        W21185  17.250  13.653  12.189  0.3713  0.0412 -0.1526
 5292W        W21186  16.178  17.374   5.085  0.0129 -0.1475  0.0672
 5293W        W21187   4.058   7.977  12.407  0.0397  0.0874  0.0525
 5294W        W21188   5.356   5.017   5.626 -0.2057  0.5178  0.0722
 5295W        W21189  15.700   5.611  12.034  0.2618 -0.4975 -0.0867
 5296W        W21190  16.789   2.948   1.901 -0.2018 -0.0635  0.0695
 5297W        W21191   0.504   1.075  13.368 -0.1132 -0.0425 -0.2923
 5298W        W21192   2.968  15.668  13.697  0.3052  0.0885  0.1132
 5299W        W21193   2.410   0.132   4.460 -0.3300  0.1185  0.1200
 5300W        W21194  10.606   6.863   5.093 -0.1652  0.0402  0.0329
 5301W        W21195   7.988   2.247  11.940 -0.1924 -0.0148  0.0050
 5302W        W21196   2.687   3.146   4.897 -0.1368 -0.1472 -0.0881
 5303W        W21197  13.829   2.377   3.645  0.1263 -0.1774 -0.1212
 5304W        W21198   8.861   4.772   1.985 -0.1638  0.1134 -0.1644
 5305W        W21199   7.215   2.747   4.516  0.0435 -0.4704  0.0011
 5306W        W21200   5.468   7.626   6.037 -0.2506  0.0510 -0.2879
 5307W        W21201   9.546  12.950  14.690 -0.0203 -0.0204 -0.0639
 5308W        W21202   5.783  13.270  12.989 -0.1313 -0.0628  0.1386
 5309W        W21203   3.371   5.183  16.282 -0.1307  0.0243  0.0372
 5310W        W21204   6.410  10.130   5.128 -0.0094  0.0329 -0.2568
 5311W        W21205  14.093  11.224  16.847  0.3332 -0.1163 -0.1811
 5312W        W21206   1.426   0.401   5.568 -0.4336  0.0848 -0.1100
 5313W        W21207   4.461   9.035   4.635  0.0106 -0.1094  0.0400
 5314W        W21208  15.040   6.204   4.355 -0.2554 -0.0657  0.0376
 5315W        W21209  12.751  11.340   0.200 -0.1004  0.0654 -0.0613
 5316W        W21210   5.829   3.009  12.706  0.2764 -0.1354  0.0966
 5317W        W21211  17.154  14.093   5.997  0.1372  0.1857 -0.1892
 5318W        W21212   4.946   4.409  14.886  0.0468 -0.0416 -0.0178
 5319W        W21213  17.615  10.635   3.228  0.0115  0.2193  0.3983
 5320W        W21214   1.951  17.781   1.489 -0.2914 -0.1983 -0.3797
 5321W        W21215  10.155   7.112  15.289  0.3104  0.1510 -0.0090
 5322W        W21216   8.032  15.508  12.886 -0.2183  0.1075 -0.2385
 5323W        W21217   9.497  11.515   1.468 -0.0520 -0.0668  0.1761
 5324W        W21218  15.138   2.874  14.826  0.0090  0.1076  0.1840
 5325W        W21219   9.279   8.874   3.041  0.0119  0.1672 -0.1450
 5326W        W21220   5.428   7.332   3.479  0.1223  0.3121 -0.0149
 5327W        W21221   4.182  14.966   1.807  0.0437  0.0178  0.2144
 5328W        W21222  12.663  12.884  12.782 -0.0273  0.0186  0.2079
 5329W        W21223   1.029   2.250   5.492  0.1043 -0.0736  0.0812
 5330W        W21224   5.161  15.616  16.550  0.1719 -0.0646 -0.0378
 5331W        W21225   0.878   9.770   3.957  0.1413  0.1304  0.1402
 5332W        W21226   4.560  12.170  16.709 -0.2161  0.0738 -0.1324
 5333W        W21227   2.563  10.089   3.768 -0.4020 -0.0469 -0.3409
 5334W        W21228  11.944  10.261   4.321  0.0903  0.2465 -0.0611
 5335W        W21229   0.849  11.567   1.582  0.2300 -0.2376  0.1232
 5336W        W21230   9.018  16.322  12.045  0.1624  0.0504  0.0336
 5337W        W21231  12.914   2.102  16.355  0.1916  0.0811 -0.0890
 5338W        W21232  15.600  14.763   4.065 -0.1337  0.0366 -0.0133
 5339W        W21233  16.622   2.153   4.064  0.2956  0.1564 -0.0044
 5340W        W21234   4.551  13.003  15.134 -0.1300  0.0289 -0.1633
 5341W        W21235   7.997   5.309   5.173 -0.0560 -0.0924 -0.0405
 5342W        W21236   9.422   7.799  14.263  0.0279 -0.0533 -0.0759
 5343W        W21237  13.112   8.649   1.909  0.2367 -0.2455 -0.3271
 5344W        W21238   2.912  16.315   0.934  0.0070  0.2259 -0.0492
 5345W        W21239  15.347  14.932  13.689 -0.1834 -0.0961  0.0796
 5346W        W21240  13.090  15.033   4.673 -0.0666 -0.1455 -0.1060
 5347W        W21241  16.686   4.379   4.276 -0.0576 -0.0785  0.0509
 5348W        W21242  13.240   6.245  15.046  0.0413 -0.3824 -0.0574
 5349W        W21243  17.659   5.245  14.260  0.2124 -0.3534  0.0719
 5350W        W21244  10.643   9.960   3.966  0.0923  0.0988  0.2767
 5351W        W21245   5.216  17.697  14.738 -0.0624  0.0183 -0.0539
 5352W        W21246  11.321   7.915   0.940  0.0231 -0.0792 -0.0185
 5353W        W21247   7.374   1.517  12.079  0.1388 -0.1328 -0.0801
 5354W        W21248  12.775  16.872   0.160  0.0157 -0.0988  0.1632
 5355W        W21249  17.508  11.712   1.825 -0.0112  0.1428  0.1644
 5356W        W21250   9.315  15.695  16.230 -0.2178 -0.0994 -0.1725
 5357W        W21251   0.100  17.627  12.040 -0.2379 -0.1214  0.1106
 5358W        W21252  12.155  17.418   1.268 -0.0655 -0.2906  0.2011
 5359W        W21253   4.395  13.840  15.918  0.0084  0.0083 -0.0228
 5360W        W21254   7.164  11.569   5.262  0.0336  0.2260  0.0708
 5361W        W21255   1.071   3.143   1.604  0.5115 -0.0026  0.0034
 5362W        W21256   7.443   8.815   1.153 -0.1141 -0.1750 -0.1000
 5363W        W21257  10.894  12.236   3.134 -0.1981  0.0100  0.0902
 5364W        W21258  10.994  11.783  12.775 -0.2746  0.1106 -0.2062
 5365W        W21259   5.356  10.425  12.243  0.1051 -0.0631 -0.2927
 5366W        W21260  10.723   1.281  13.302 -0.0178  0.2420  0.2285
 5367W        W21261   1.770  11.233   4.541 -0.0807 -0.1737 -0.1517
 5368W        W21262   9.396   2.624   6.438  0.2947  0.0114  0.2586
 5369W        W21263  15.730  16.157  16.699  0.1475  0.4181 -0.2725
 5370W        W21264  12.590  13.947   0.388  0.2474 -0.0081 -0.1597
 5371W        W21265  15.711  16.397   4.991  0.1474  0.0955  0.0785
 5372W        W21266   4.920  12.075  12.454 -0.0449  0.3464  0.2530
 5373W        W21267   7.720  17.548   3.342 -0.0175 -0.0942 -0.0745
 5374W        W21268  10.491   6.851   1.028  0.1577 -0.1483 -0.0290
 5375W        W21269   1.133  13.466   5.238  0.1192 -0.2294  0.0401
 5376W        W21270  11.967   8.559  16.613 -0.1182  0.0109  0.0369
 5377W        W21271   8.759  17.748  16.856  0.1809 -0.3504 -0.2870
 5378W        W21272   6.323   3.231   1.127 -0.1942 -0.1647  0.1581
 5379W        W21273  17.588   0.682  12.893  0.0520  0.1368  0.1245
 5380W        W21274   3.045   0.499  16.826  0.2474 -0.1439 -0.1932
 5381W        W21275  13.395   3.698   3.114  0.0656  0.0636  0.0451
 5382W        W21276  11.343   9.947  12.144  0.0571  0.0491  0.0025
 5383W        W21277  16.959   1.121  14.464  0.0331 -0.1828 -0.2190
 5384W        W21278  14.454   9.139  13.906 -0.1683  0.1330  0.1262
 5385W        W21279   9.121  12.423  14.108 -0.1663  0.4401  0.1287
 5386W        W21280  11.194  15.977   2.449  0.1619  0.0072 -0.3141
 5387W        W21281   5.135   2.481   3.279 -0.1376  0.0034  0.1294
 5388W        W21282   8.636  13.015  15.425 -0.1313 -0.1127  0.0457
 5389W        W21283   6.430   1.648  16.568 -0.2173  0.1138 -0.2978
 5390W        W21284  10.555  17.420  16.484 -0.0204 -0.0328  0.0093
 5391W        W21285  11.037  11.921   5.848 -0.1921  0.0070  0.0574
 5392W        W21286  17.541  16.108   1.326  0.1198 -0.1806 -0.0582
 5393W        W21287   6.776   8.167  15.709  0.0675  0.0070 -0.0777
 5394W        W21288   6.982   5.083  15.343  0.1088 -0.0749  0.0413
 5395W        W21289   1.876   2.929  14.719 -0.1510  0.0633  0.1221
 5396W        W21290  17.795   9.678  11.841  0.0723 -0.0139  0.0546
 5397W        W21291   6.395   8.386   1.359 -0.3422 -0.1202  0.3217
 5398W        W21292   2.946   5.392  16.271 -0.5538  0.2565  0.0999
 5399W        W21293   2.742  14.811  13.011  0.0220 -0.1546 -0.2090
 5400W        W21294  10.076   8.535   0.752 -0.1961 -0.1232 -0.0309
 5401W        W21295  11.308   5.795  14.747 -0.0833  0.0599  0.0721
 5402W        W21296  15.595   2.612  13.930  0.3039  0.0177 -0.0266
 5403W        W21297   4.907   6.434  15.541 -0.2768 -0.2927 -0.2792
 5404W        W21298   4.397   2.547  11.933  0.2132 -0.0838  0.2204
 5405W        W21299   3.241  15.775  11.591  0.2120  0.0296 -0.0334
 5406W        W21300   5.771  12.732  13.073  0.0574 -0.3298  0.3337
 5407W        W21301   8.227  11.833   0.278 -0.0374 -0.0698  0.2327
 5408W        W21302   0.564   0.485  13.732  0.4011  0.1535  0.1812
 5409W        W21303   1.056  14.334  16.900  0.1704 -0.0319  0.3515
 5410W        W21304  16.737   6.001   0.953  0.1284  0.0366 -0.1748
 5411W        W21305  11.565   0.096  12.671 -0.1008 -0.1105  0.1711
 5412W        W21306  16.509   2.750   0.503 -0.3224  0.0513  0.1490
 5413W        W21307  12.911   4.009   4.977  0.1000 -0.0180 -0.0565
 5414W        W21308  17.827   2.565  14.610 -0.0847 -0.1303  0.1320
 5415W        W21309   0.792  17.616   1.122 -0.0077  0.0073  0.1217
 5416W        W21310   9.981  13.505  12.006  0.1235 -0.1423 -0.0604
 5417W        W21311   4.041   2.102  12.685 -0.0662  0.1452  0.0170
 5418W        W21312   2.356   4.900   3.527  0.4203  0.0273  0.1730
 5419W        W21313   9.012   7.580   1.813 -0.1899 -0.3335  0.0514
 5420W        W21314   0.719   2.540  16.390  0.0171  0.1626  0.2069
 5421W        W21315   5.216   3.544   0.801 -0.0960 -0.1113 -0.0122
 5422W        W21316   4.814  12.977  15.911 -0.2252 -0.0830 -0.1360
 5423W        W21317   8.161   1.201   4.472 -0.3645  0.2397  0.0726
 5424W        W21318   2.792  16.788  15.340  0.1161 -0.0604 -0.0307
 5425W        W21319  12.880   7.893  13.092  0.3051  0.0907 -0.0392
 5426W        W21320   9.765   3.748  15.651  0.2976 -0.1648 -0.1886
 5427W        W21321  15.529   4.120  13.646 -0.2136 -0.0382  0.2149
 5428W        W21322   9.070   0.850   2.517  0.2399  0.1115 -0.0626
 5429W        W21323  15.464   8.519   5.976  0.1020  0.1458  0.2964
 5430W        W21324   2.077   2.123  13.104 -0.2268 -0.0274 -0.0616
 5431W        W21325   7.439  10.025   5.010  0.0483  0.0879  0.2240
 5432W        W21326   5.929  16.283   4.340  0.1020  0.1501  0.1941
 5433W        W21327  16.571  17.649  12.861 -0.0139 -0.2526  0.3559
 5434W        W21328   8.365  10.387   6.029  0.1373 -0.2162 -0.3136
 5435W        W21329  17.785   9.471  14.167  0.3044  0.0734 -0.0936
 5436W        W21330  13.101   1.155   2.537 -0.0394  0.0733 -0.1322
 5437W        W21331  16.464   3.588  14.236  0.4587 -0.0851 -0.2297
 5438W        W21332   0.036   5.940  14.817  0.0805 -0.1558 -0.1828
 5439W        W21333   1.101  15.121  12.464  0.1292  0.1478 -0.0205
 5440W        W21334   9.776   8.007  14.621  0.1037 -0.0668 -0.0597
 5441W        W21335   1.381  13.854   0.131  0.4245  0.1957  0.1313
 5442W        W21336  17.123   2.960  12.319  0.1296  0.2166  0.2073
 5443W        W21337  10.381  12.298  16.255  0.2125 -0.2056 -0.1118
 5444W        W21338   0.706  13.785  15.137  0.0949 -0.0655 -0.1669
 5445W        W21339   1.768   3.846  14.127 -0.1837 -0.1806  0.0650
 5446W        W21340  14.403  12.355   4.536  0.0928  0.4159  0.1714
 5447W        W21341  13.299   0.720   5.239 -0.2897  0.1252  0.1166
 5448W        W21342   7.018  10.418  15.275  0.1124 -0.0420 -0.2869
 5449W        W21343  13.752   9.311   4.452 -0.3858 -0.0279 -0.0753
 5450W        W21344   8.692   9.755  14.276 -0.0286  0.2197 -0.1387
 5451W        W21345  13.085   2.226   2.571 -0.0288  0.1198  0.3499
 5452W        W21346  16.258   3.235   4.712 -0.0570 -0.0131 -0.0416
 5453W        W21347   7.583  16.361   2.507  0.0323 -0.0578 -0.1092
 5454W        W21348  12.227  16.419  14.555  0.1550 -0.2304  0.0788
 5455W        W21349   6.504   2.986  13.427  0.0498 -0.0023 -0.1209
 5456W        W21350  11.283  15.362   0.420  0.1888 -0.1249 -0.0241
 5457W        W21351  17.282   6.273  10.960  0.2351 -0.0549  0.0866
 5458W        W21352  10.765  12.396   2.048 -0.2661 -0.1132  0.1625
 5459W        W21353  12.644   8.499   2.048 -0.0488 -0.0072 -0.0814
 5460W        W21354  15.525  16.065  13.146  0.0621  0.1859  0.2817
 5461W        W21355   1.528   7.095  15.610 -0.0473  0.1813  0.2714
 5462W        W21356  15.191   0.914  12.159  0.1297  0.2195 -0.0926
 5463W        W21357   2.192   9.611  13.122  0.2000 -0.0956 -0.1679
 5464W        W21358  16.134  14.265   0.963  0.0914 -0.0016 -0.1766
 5465W        W21359  17.315  17.658   4.657  0.1816 -0.1145  0.1476
 5466W        W21360   5.429   9.123  10.522 -0.1417  0.2689  0.2883
 5467W        W21361  14.979  13.982   2.763  0.2825 -0.0132 -0.1575
 5468W        W21362  10.854   4.113   2.523  0.0615  0.3972  0.0531
 5469W        W21363  11.729  11.544  12.536  0.2502  0.0073  0.1222
 5470W        W21364   2.673  15.874   1.050 -0.2025 -0.0962  0.0274
 5471W        W21365   1.780  17.255   3.592 -0.3003  0.0087  0.0049
 5472W        W21366  13.636   8.003   0.702 -0.0710 -0.1555  0.2431
 5473W        W21367  13.886   7.915  11.936  0.0498  0.0379  0.1695
 5474W        W21368  10.931  17.716   1.229 -0.0903  0.0751  0.0042
 5475W        W21369   9.660  15.728   5.058  0.3821  0.2128  0.1424
 5476W        W21370   1.834  13.604   3.485  0.1952 -0.0502  0.1806
 5477W        W21371  12.150  13.126   0.968  0.0976 -0.0245 -0.2122
 5478W        W21372   9.852  13.484   0.886  0.3668 -0.1557 -0.1338
 5479W        W21373   0.555  13.948  16.587 -0.3790  0.0564  0.2612
 5480W        W21374   2.406  15.158  11.904  0.0855 -0.0907 -0.2184
 5481W        W21375  11.125  15.096  14.453 -0.4370  0.2311 -0.1332
 5482W        W21376  13.651   4.252   0.889  0.1978  0.1356  0.1393
 5483W        W21377  12.919   3.120  16.747  0.2645 -0.0909  0.1357
 5484W        W21378   2.231   4.374  14.792 -0.1184 -0.1710  0.0460
 5485W        W21379   3.990   3.249  13.463  0.1726  0.0231 -0.2024
 5486W        W21380  14.296  14.485   2.449  0.0704 -0.0942 -0.1976
 5487W        W21381  17.381   1.871   5.390  0.0528 -0.0580 -0.2408
 5488W        W21382   6.336  15.497   5.004 -0.2500  0.2551 -0.0188
 5489W        W21383   4.206  10.207   4.006 -0.4017  0.1123  0.0630
 5490W        W21384   0.039  14.495   0.833  0.1089 -0.3091  0.0784
 5491W        W21385  13.634  12.542   0.431 -0.2081 -0.0787 -0.0431
 5492W        W21386   5.305   4.871   3.315  0.0901 -0.1458  0.0255
 5493W        W21387  11.329  10.157   0.466  0.1717  0.1512 -0.0448
 5494W        W21388  16.072   0.678  12.164 -0.1575  0.2837 -0.1213
 5495W        W21389   3.100  13.775   0.832 -0.2677  0.2790  0.0054
 5496W        W21390  17.020   9.246  12.392  0.1251  0.1449 -0.0390
 5497W        W21391  12.221   8.039   2.656 -0.0390  0.0872 -0.2147
 5498W        W21392  14.931   0.676   6.173 -0.3505 -0.0231  0.0300
 5499W        W21393   6.621   9.410   1.026  0.3902 -0.0314 -0.0066
 5500W        W21394   7.157  17.047  12.982  0.0446 -0.1773  0.5618
 5501W        W21395   2.590   0.270   0.245 -0.0187  0.0786 -0.1460
 5502W        W21396   3.981   4.470  16.018 -0.3060  0.1884  0.3266
 5503W        W21397   0.786   1.766   2.104 -0.1829  0.1340 -0.1121
 5504W        W21398  10.521  15.942   4.591  0.0518 -0.0392  0.4719
 5505W        W21399  15.217   3.080   5.639  0.3513  0.1584  0.0492
 5506W        W21400  15.489   1.740   1.620 -0.2498 -0.4217  0.2068
 5507W        W21401   7.444   2.323  15.155 -0.0548  0.3914  0.1282
 5508W        W21402  16.436  12.751   0.219  0.1823 -0.1276  0.3725
 5509W        W21403   8.375  10.909   1.911  0.1031  0.0084  0.3535
 5510W        W21404  16.935  10.885   0.111 -0.1440  0.1533 -0.3993
 5511W        W21405  11.346   5.387   6.015  0.0369 -0.2474 -0.1377
 5512W        W21406  13.738  16.622   0.998 -0.1868 -0.1871  0.1150
 5513W        W21407  12.454   4.514  15.616 -0.1192 -0.3459 -0.1210
 5514W        W21408   5.032   1.379  14.153  0.1306 -0.0923 -0.2043
 5515W        W21409   7.481   6.304  12.804 -0.0292 -0.5960  0.4161
 5516W        W21410  15.313  14.203   6.939  0.0995  0.0575 -0.0265
 5517W        W21411   2.770  16.098  13.560  0.0690 -0.0864  0.1046
 5518W        W21412  10.283   0.896  13.164  0.0072 -0.0495  0.1300
 5519W        W21413   0.555   7.934  11.539 -0.0246 -0.0006  0.1612
 5520W        W21414  14.040  17.331   3.232 -0.0224  0.1940 -0.1861
 5521W        W21415   3.122  15.647   0.980 -0.2502  0.2689 -0.1404
 5522W        W21416  14.820  11.854   6.350  0.1317  0.0505  0.2094
 5523W        W21417   8.873   4.508   4.766  0.1282 -0.0282  0.0455
 5524W        W21418   9.898   3.409   2.216 -0.2138 -0.0166 -0.4425
 5525W        W21419   8.661   1.396   5.427 -0.0954 -0.4908 -0.3185
 5526W        W21420  10.088  14.522   0.925  0.0126  0.0613  0.0084
 5527W        W21421  13.307   4.820  13.616  0.0114 -0.0936  0.0391
 5528W        W21422  16.380   9.345  11.749 -0.0681 -0.2139 -0.1010
 5529W        W21423  15.201   0.747   1.901  0.0420  0.0513  0.3168
 5530W        W21424  11.714  16.399  12.635  0.1170  0.0860  0.0060
 5531W        W21425   1.911   6.931  13.482  0.1542 -0.4092 -0.1026
 5532W        W21426  10.899   3.444   3.468  0.4973  0.0046 -0.1445
 5533W        W21427  11.425  11.278   5.533  0.1502  0.0204 -0.0453
 5534W        W21428   0.916   2.790   1.205  0.4366  0.2994 -0.0971
 5535W        W21429   2.972  12.524  15.581  0.2829 -0.2835  0.0274
 5536W        W21430  16.361  10.426   3.087  0.1306  0.0990  0.0798
 5537W        W21431  16.320   6.413  11.858  0.4295  0.0943  0.1912
 5538W        W21432   5.079  12.408  14.317 -0.0026  0.2672  0.0080
 5539W        W21433  10.787  17.721  11.593  0.1081  0.0463 -0.1483
 5540W        W21434  16.667   7.834   2.296  0.1815 -0.0529 -0.0781
 5541W        W21435   6.190  10.019   2.408 -0.2617  0.0908 -0.0724
 5542W        W21436  11.765  11.841  13.721  0.1331 -0.0688  0.3781
 5543W        W21437  12.866   7.078  16.535  0.1746 -0.0132 -0.0513
 5544W        W21438  12.131   2.817   4.020  0.0183 -0.3058 -0.0521
 5545W        W21439   5.375  17.446  16.787 -0.0049  0.0866 -0.2693
 5546W        W21440  14.999   1.381  13.074  0.0977  0.1669 -0.3156
 5547W        W21441   1.230   8.325   2.293  0.3122 -0.0823  0.2510
 5548W        W21442   7.222  10.632  13.301 -0.2144  0.0867  0.4980
 5549W        W21443   3.989   0.971  12.719 -0.0714 -0.2107  0.0770
 5550W        W21444   0.682  16.440   6.091  0.0955 -0.0865  0.2104
 5551W        W21445   7.245  14.411   1.923  0.0406 -0.0334  0.4405
 5552W        W21446  17.136   2.342  12.694  0.2815 -0.0315 -0.1540
 5553W        W21447   3.793   3.668   0.183  0.0516 -0.0677  0.2500
 5554W        W21448   3.685   0.363   0.371 -0.1626 -0.2596 -0.1736
 5555W        W21449   6.039  10.134  12.577  0.1375 -0.0368 -0.1203
 5556W        W21450   9.750   4.486  12.336 -0.0580 -0.1965 -0.1131
 5557W        W21451  15.122  13.832   3.727 -0.1018  0.1592  0.1100
 5558W        W21452   4.491  14.442  11.771  0.1258  0.1767  0.2364
 5559W        W21453  10.178  10.055  14.052 -0.1412  0.1295 -0.2253
 5560W        W21454   1.502  13.509   5.536  0.0054 -0.3876 -0.0272
 5561W        W21455  10.727   0.501   4.155  0.1146  0.0959  0.3139
 5562W        W21456  13.850   3.117  13.627 -0.1772  0.0950  0.1880
 5563W        W21457   6.124  17.825   2.137  0.2268  0.1453  0.0508
 5564W        W21458   0.319   7.407  16.568  0.1742 -0.0057 -0.2673
 5565W        W21459  17.607   4.538   2.444 -0.3701  0.1098  0.0082
 5566W        W21460  12.393  13.503   0.529 -0.1465 -0.3990 -0.0859
 5567W        W21461   7.753  10.509  12.110  0.1604 -0.1231  0.1482
 5568W        W21462  11.340   1.074  11.537 -0.1159 -0.3323 -0.0946
 5569W        W21463   1.024  16.214   6.367  0.1686 -0.4847  0.0065
 5570W        W21464  11.785   6.815   3.665 -0.1124  0.1206 -0.0644
 5571W        W21465   6.961   5.728   3.474  0.2896  0.2383 -0.3548
 5572W        W21466   8.467  11.882   2.803 -0.0499 -0.0082 -0.0087
 5573W        W21467   3.884   0.676   2.451 -0.1093  0.2199  0.2430
 5574W        W21468  10.521   6.290  14.828 -0.0124 -0.2136  0.1061
 5575W        W21469   5.056  13.887  12.164 -0.1141 -0.0901 -0.1704
 5576W        W21470   5.932   1.018   1.605 -0.0613 -0.1631 -0.0005
 5577W        W21471   2.505  14.087  13.971  0.0926  0.0804 -0.0036
 5578W        W21472   6.390  17.422  16.056 -0.1296  0.0052  0.1568
 5579W        W21473  13.889  15.241   2.646 -0.2992  0.1839 -0.0255
 5580W        W21474   5.046   4.015   3.797  0.1428 -0.2804  0.1966
 5581W        W21475  11.802  13.462   3.086  0.0920  0.0232  0.1159
 5582W        W21476   1.344   4.286  11.727 -0.1755 -0.0539 -0.1711
 5583W        W21477   7.175  15.051  12.716 -0.0643  0.1114 -0.1014
 5584W        W21478   4.508  10.410   2.975  0.4627  0.0195 -0.1106
 5585W        W21479  11.735  11.256  15.709 -0.0478 -0.0832  0.2596
 5586W        W21480  17.357   1.878  16.222 -0.1289  0.0677 -0.1596
 5587W        W21481   8.148  10.185  16.571 -0.0738  0.0887  0.2681
 5588W        W21482  12.700   4.271  13.021  0.2598  0.2130  0.2351
 5589W        W21483  10.288   1.623  14.014 -0.2846  0.0301  0.1752
 5590W        W21484  12.932   4.773  12.765 -0.1834 -0.2156  0.0709
 5591W        W21485   5.726   6.635  12.424  0.3328  0.1981  0.3736
 5592W        W21486  14.044   8.784  12.914  0.1762  0.0692  0.1725
 5593W        W21487  16.079  14.907   3.802  0.1291 -0.2559 -0.1587
 5594W        W21488   2.472  14.026   2.478 -0.3076 -0.3071  0.3943
 5595W        W21489   1.532  10.421  15.038  0.0877 -0.0142 -0.0168
 5596W        W21490   0.490   0.352   5.923  0.0359 -0.0620 -0.0682
 5597W        W21491  13.600  11.088  15.437 -0.0383  0.1072 -0.0909
 5598W        W21492  12.923   8.483  16.623  0.3212 -0.2920  0.0016
 5599W        W21493  15.537   0.404   0.410 -0.2486 -0.1301 -0.0489
 5600W        W21494   3.179  10.577   1.905 -0.1367 -0.0415  0.0206
 5601W        W21495  13.006  13.691  11.222  0.0842  0.0262 -0.1688
 5602W        W21496  11.121  16.177   3.800 -0.0559 -0.3264 -0.0401
 5603W        W21497  17.307  15.572  12.069  0.1760 -0.0490  0.1543
 5604W        W21498  11.061  10.967   5.488 -0.3093  0.1850 -0.2234
 5605W        W21499  15.574   1.867  14.381 -0.1588 -0.2470 -0.0160
 5606W        W21500   3.707   4.105   2.911  0.1285  0.1005  0.4860
 5607W        W21501  17.554   1.353   1.374  0.2898 -0.0580  0.0010
 5608W        W21502  15.247  13.849   0.387 -0.0222  0.0715  0.0955
 5609W        W21503   8.465  16.313   2.261  0.0784  0.1060 -0.0326
 5610W        W21504   9.040  15.701   5.845 -0.3362  0.0862 -0.1424
 5611W        W21505   6.857  10.628  13.628 -0.3236  0.1557 -0.0238
 5612W        W21506   3.933   8.463  16.885 -0.3366  0.0851 -0.1672
 5613W        W21507  14.539   5.346   0.725  0.1303  0.0714 -0.1745
 5614W        W21508   6.055   8.380   0.992  0.1839  0.1201 -0.0880
 5615W        W21509   3.163   0.388   1.571  0.1934  0.3544  0.3479
 5616W        W21510  12.958  12.279  16.917 -0.0679 -0.3354 -0.0431
 5617W        W21511   0.465  17.578  16.459 -0.1122  0.3509  0.0159
 5618W        W21512  12.779   6.595   3.837 -0.0843  0.0439 -0.1651
 5619W        W21513   1.221   9.686   1.448 -0.0466  0.1946 -0.1460
 5620W        W21514  14.871  11.556   5.169  0.1164 -0.1458  0.0634
 5621W        W21515   6.761  11.145  14.312  0.2974 -0.2555 -0.3437
 5622W        W21516  11.076   8.391   1.701  0.1832  0.1184  0.2342
 5623W        W21517  10.168   0.083   0.272  0.1634 -0.2459 -0.1495
 5624W        W21518   7.841  13.729  12.547 -0.0748 -0.2092  0.0371
 5625W        W21519   3.470  15.082   3.111  0.0121  0.0386 -0.0145
 5626W        W21520   2.756  13.283  16.200 -0.0631 -0.0288  0.2487
 5627W        W21521   0.055   4.640   0.329 -0.1330  0.1090 -0.0642
 5628W        W21522  16.677   1.506  11.286 -0.3602  0.1325  0.1699
 5629W        W21523  15.899  16.480   1.573 -0.1154  0.1057  0.0441
 5630W        W21524  10.022  11.545   1.482  0.0556 -0.4707 -0.0222
 5631W        W21525   9.344   3.474  13.725  0.1762 -0.0490  0.2653
 5632W        W21526  13.076  13.624  13.931 -0.1252 -0.0099  0.0855
 5633W        W21527   6.266  10.250  15.707  0.3060  0.0549 -0.1389
 5634W        W21528  13.061   6.877  11.676  0.3294 -0.2349 -0.0704
 5635W        W21529   6.589  10.961   2.296  0.1728 -0.0618  0.0224
 5636W        W21530   6.564   9.782  11.763 -0.0335  0.2837  0.0589
 5637W        W21531   6.086  12.407  15.919 -0.3253 -0.0014 -0.0516
 5638W        W21532   9.367   6.660  12.671 -0.0744 -0.1991 -0.0582
 5639W        W21533   8.322  12.079   0.921 -0.1427  0.0928  0.1920
 5640W        W21534   1.711   4.935  12.547  0.1925 -0.1449  0.0101
 5641W        W21535   4.718   0.029  16.427  0.1029  0.0050  0.2222
 5642W        W21536  16.228  11.318   2.171  0.0745 -0.1778 -0.2476
 5643W        W21537   7.923   2.933  16.546  0.0069 -0.1999 -0.3402
 5644W        W21538   5.281  11.797  13.321  0.2163  0.2088 -0.0138
 5645W        W21539  14.227   2.951   1.564  0.1004  0.2640 -0.1933
 5646W        W21540   7.228   4.496  14.707  0.1435  0.3449 -0.1880
 5647W        W21541   5.751  13.289  15.886  0.1041  0.0016 -0.0985
 5648W        W21542  11.965  16.320   1.415  0.0693  0.1686  0.1665
 5649W        W21543  10.088   7.521   4.836 -0.0027  0.1713 -0.1212
 5650W        W21544  16.723  10.473   6.097 -0.1826  0.0895  0.1690
 5651W        W21545   6.608  10.358  12.819  0.3406 -0.0155  0.0703
 5652W        W21546   9.119   1.357   4.336  0.1074  0.2278 -0.1131
 5653W        W21547   2.115   4.547   3.219 -0.1446 -0.1497  0.1256
 5654W        W21548   7.177   6.514  13.121 -0.0789 -0.0834  0.1915
 5655W        W21549   1.911  11.318  13.325 -0.0465 -0.2927  0.4565
 5656W        W21550  10.781  15.086   2.611  0.3306 -0.0239  0.0606
 5657W        W21551  17.026   3.528  15.043 -0.3738 -0.0567  0.1155
 5658W        W21552  15.925  13.580  13.254  0.0548 -0.2735  0.1116
 5659W        W21553   8.697   7.737   0.446 -0.1674  0.0337 -0.1933
 5660W        W21554   9.759   9.437  15.938  0.1936 -0.1339  0.0871
 5661W        W21555   5.512   6.190   3.254  0.1474 -0.2438 -0.1165
 5662W        W21556   6.485  15.275  12.986 -0.3047  0.2785  0.0742
 5663W        W21557   2.172  16.523   2.349  0.2147 -0.1001  0.1026
 5664W        W21558   5.417   6.147   5.309 -0.0582  0.1222 -0.2340
 5665W        W21559  13.954  11.010  12.967 -0.1811 -0.0063  0.1578
 5666W        W21560   3.176  10.574  14.805  0.2557 -0.0549  0.2414
 5667W        W21561   8.820   1.811   4.061 -0.1202 -0.1431  0.0767
 5668W        W21562   7.177   7.877   5.844  0.2104  0.0580  0.2981
 5669W        W21563  10.946   7.015  10.721  0.2696 -0.0319 -0.0939
 5670W        W21564  17.461   5.661  11.873 -0.0583  0.0298 -0.3660
 5671W        W21565  11.846  15.278   1.666  0.1332 -0.3282  0.0661
 5672W        W21566   4.905  17.400   3.805  0.0025  0.2335 -0.2066
 5673W        W21567   7.040  13.835   5.373  0.0402 -0.0363 -0.0512
 5674W        W21568   8.017  10.515   1.707  0.0666  0.0771  0.0965
 5675W        W21569  12.249   9.801  14.215  0.0033  0.0190 -0.1535
 5676W        W21570  17.454   5.255   0.138 -0.0341 -0.0347  0.2518
 5677W        W21571   9.678   3.970   1.513  0.0345  0.1423 -0.1144
 5678W        W21572   7.099   1.101  12.259 -0.0880 -0.1244  0.0507
 5679W        W21573  13.172  13.233   3.945  0.2758  0.0325  0.2252
 5680W        W21574  14.364  13.108  12.912 -0.2461  0.1102  0.1031
 5681W        W21575   3.929  11.066  12.262  0.0320  0.0562  0.1224
 5682W        W21576  10.317   5.075  12.941 -0.2186 -0.1434  0.1378
 5683W        W21577  13.103   9.383  13.380 -0.1951 -0.0594 -0.1634
 5684W        W21578   9.261  11.601  16.602 -0.0547 -0.2156  0.0743
 5685W        W21579  15.848  14.416  14.634 -0.0046 -0.0793  0.2749
 5686W        W21580   1.838  15.155   3.697  0.1381  0.1634 -0.1744
 5687W        W21581  12.875   1.941  13.632  0.2488 -0.0342 -0.0204
 5688W        W21582   2.130   0.097   1.999  0.0103  0.1199 -0.0651
 5689W        W21583   3.823   5.500   5.572 -0.0396  0.2769  0.2810
 5690W        W21584   2.944   9.729   4.473 -0.1416  0.1100 -0.2723
 5691W        W21585   0.339   7.530   2.413 -0.2081  0.3397  0.2169
 5692W        W21586   9.080  11.537   1.946 -0.0535  0.1928  0.2343
 5693W        W21587  15.211  16.842  12.064 -0.0463 -0.3748 -0.1738
 5694W        W21588  10.212  15.365   5.689 -0.1415  0.0408  0.0399
 5695W        W21589  12.067  17.565   0.245 -0.2712 -0.0246  0.0670
 5696W        W21590  16.753  11.958  11.802 -0.0709 -0.0109  0.2894
 5697W        W21591  10.589  11.858  16.081 -0.0715  0.0277  0.1522
 5698W        W21592   7.058  17.380   2.647  0.0672  0.2256 -0.0337
 5699W        W21593   6.287  13.535   1.449  0.0477 -0.3400 -0.1189
 5700W        W21594   0.065  11.532  13.711 -0.1623  0.0605 -0.1087
 5701W        W21595  15.039   6.485   2.212 -0.1683 -0.4603 -0.2115
 5702W        W21596   4.507  10.507  14.839  0.0361  0.0790  0.2878
 5703W        W21597  10.667  13.772   4.759 -0.1574 -0.0776  0.1978
 5704W        W21598   5.822   3.018   1.232  0.3228  0.1789 -0.2940
 5705W        W21599  12.998  13.390   4.999  0.2822 -0.2652 -0.0611
 5706W        W21600  13.196   6.635  13.091  0.1082  0.1848 -0.1251
 5707W        W21601   9.204  10.752  16.794  0.0515  0.0143  0.0830
 5708W        W21602   3.996   6.480  15.015 -0.0397 -0.1918 -0.0449
 5709W        W21603   2.627   8.574   2.035  0.1957  0.1773  0.0428
 5710W        W21604  14.503  16.764  12.882 -0.0038 -0.4374  0.1377
 5711W        W21605   7.463   7.417  16.619  0.1514  0.0412  0.2763
 5712W        W21606  14.249   2.793  16.707 -0.1916  0.2038  0.2891
 5713W        W21607  13.874   6.020  14.833 -0.0512  0.1894 -0.2577
 5714W        W21608  17.699  14.604   4.184 -0.0789 -0.0845 -0.0861
 5715W        W21609   8.068  14.685   1.045  0.0705  0.3479 -0.2770
 5716W        W21610   6.806   1.021   4.457 -0.1180  0.2298  0.0328
 5717W        W21611   0.935   3.918   3.767 -0.1853  0.1395 -0.1831
 5718W        W21612   2.543   5.798   4.779  0.0560  0.2763  0.0880
 5719W        W21613   2.771  13.290  16.672  0.2179 -0.1498  0.1274
 5720W        W21614  14.576  15.000   4.813 -0.1835  0.1677  0.0136
 5721W        W21615   9.587   7.800   2.645 -0.1795 -0.3287  0.4465
 5722W        W21616  14.537   7.263   1.541  0.0081 -0.2281  0.0940
 5723W        W21617  11.701  15.334   0.673  0.0375  0.2953  0.0678
 5724W        W21618  16.180  10.124   3.691  0.0601 -0.0456  0.0251
 5725W        W21619  14.310   9.132  14.722 -0.0797  0.2654 -0.3247
 5726W        W21620   6.404  11.781   0.693  0.3211 -0.0761  0.1329
 5727W        W21621  17.202  17.478   3.757 -0.0196 -0.1802 -0.1100
 5728W        W21622   7.121   0.797   5.230 -0.0831 -0.2594  0.2798
 5729W        W21623   6.691  10.033   6.013  0.0060  0.4456 -0.0739
 5730W        W21624   3.870   5.189   1.535 -0.0991  0.1893  0.2413
 5731W        W21625   9.197   0.183  13.873 -0.2857  0.0250  0.0709
 5732W        W21626   8.411  17.713   4.860  0.0578  0.2258 -0.0361
 5733W        W21627   2.453  16.203  13.171 -0.0363  0.0488  0.0082
 5734W        W21628   9.049   2.623  15.699  0.2698 -0.2395  0.1500
 5735W        W21629   0.999  11.675   6.082 -0.3656  0.0657  0.0873
 5736W        W21630   2.094  10.053  16.204  0.3652 -0.3191  0.1631
 5737W        W21631   1.265   8.164  14.179  0.2624 -0.1594  0.1002
 5738W        W21632   5.919   0.186   0.657  0.0013 -0.1908 -0.1599
 5739W        W21633   2.934   1.767  14.596 -0.2029 -0.0311 -0.0741
 5740W        W21634   3.762   2.722  14.554  0.0627  0.1988  0.0364
 5741W        W21635   4.090   7.625  14.474  0.0431  0.2827 -0.0742
 5742W        W21636   7.441   7.908   4.514 -0.0610 -0.1460  0.3084
 5743W        W21637   8.477  17.151   1.790  0.0943 -0.0029  0.0108
 5744W        W21638  16.350  12.276   3.710  0.2978  0.3303 -0.3140
 5745W        W21639  11.497  11.872   4.279  0.2664  0.1246 -0.0499
 5746W        W21640   4.636  15.632   2.123 -0.0103 -0.1467 -0.3834
 5747W        W21641  17.109  16.220   1.897 -0.0107  0.0225  0.0595
 5748W        W21642  16.158   4.394   5.620  0.1578 -0.1011 -0.0644
 5749W        W21643   9.896   6.518   5.534 -0.0759 -0.0629 -0.3881
 5750W        W21644   1.854  10.420  12.326 -0.1892  0.0552  0.0746
 5751W        W21645   8.584  11.681  11.734  0.0583 -0.0499  0.0892
 5752W        W21646   3.548  14.072   4.019  0.0174 -0.0148 -0.0232
 5753W        W21647   1.560   6.712   1.391  0.1747 -0.0388 -0.0027
 5754W        W21648   5.068  15.152  14.803  0.1483  0.0714 -0.2059
 5755W        W21649  17.124  15.957   3.853 -0.0195  0.0865 -0.0917
 5756W        W21650   4.491  14.972  14.761 -0.1269  0.0946 -0.0295
 5757W        W21651  14.087  13.908   5.783  0.1058  0.0623  0.1135
 5758W        W21652  11.943  11.062  13.903  0.0133 -0.0423 -0.0111
 5759W        W21653   1.985   4.430   1.055  0.0440 -0.1838 -0.1064
 5760W        W21654  10.671   7.295  15.460 -0.2136 -0.2063  0.2778
 5761W        W21655  11.294   5.144  13.944  0.0193 -0.0165 -0.2175
 5762W        W21656   8.718  16.784   3.501  0.0488 -0.2315  0.1733
 5763W        W21657   9.409   4.735  16.354 -0.2758 -0.1778  0.0400
 5764W        W21658  12.359   2.836   1.893  0.3548 -0.0598 -0.2256
 5765W        W21659  13.774  10.644  12.157 -0.1276  0.2074  0.0102
 5766W        W21660   3.644   8.271  13.703 -0.0504 -0.3689 -0.1383
 5767W        W21661  16.631  10.110   3.348 -0.1677  0.1859 -0.0893
 5768W        W21662  16.648  12.227   2.438 -0.0665 -0.2810  0.1879
 5769W        W21663   4.135   2.312  15.276 -0.0549 -0.2896 -0.0959
 5770W        W21664  16.184  14.766  14.695  0.0922  0.2739  0.1037
 5771W        W21665  11.140  10.580   6.081 -0.0700 -0.1166  0.0866
 5772W        W21666   2.427   8.558  13.005 -0.2109  0.1100  0.1514
 5773W        W21667   5.635   8.114   3.261 -0.1548  0.2932  0.3610
 5774W        W21668   8.972   3.027  15.451  0.0925 -0.1066  0.1575
 5775W        W21669   7.226  11.061   5.328  0.0769  0.1480  0.0021
 5776W        W21670  15.641   8.908   0.246  0.1661 -0.0300 -0.0120
 5777W        W21671   5.746  16.651   5.731 -0.3127  0.0396 -0.1616
 5778W        W21672   4.599   9.608   3.378 -0.1819 -0.1121 -0.2193
 5779W        W21673   6.971  15.441  13.003  0.2795 -0.0194 -0.0110
 5780W        W21674   1.570   6.068  11.002 -0.1556  0.0173 -0.1730
 5781W        W21675  12.351   3.416   3.919 -0.0058  0.3614  0.1638
 5782W        W21676  11.020   1.984   5.277  0.1403 -0.1173  0.3440
 5783W        W21677  14.864   9.428   0.328 -0.0129  0.0125  0.3409
 5784W        W21678   8.021   5.211   2.423 -0.0334  0.0453  0.0181
 5785W        W21679   1.809   5.576   4.956  0.0614 -0.1172  0.1042
 5786W        W21680   4.540   2.387  14.423 -0.1216  0.0348 -0.0954
 5787W        W21681   9.075   5.084  12.625 -0.1005 -0.2439 -0.0661
 5788W        W21682   8.164  17.725   1.997 -0.1949  0.1551 -0.0332
 5789W        W21683  11.333   2.151   2.145 -0.0401  0.1623  0.1272
 5790W        W21684   9.392  13.609  15.720  0.2018  0.1110 -0.1324
 5791W        W21685  12.767  12.591  15.240 -0.0137 -0.1139  0.1964
 5792W        W21686   4.147   2.027   4.383  0.2008  0.0121  0.0749
 5793W        W21687   8.854  15.244   5.198 -0.0864  0.1036 -0.1959
 5794W        W21688   1.806  15.303   4.142  0.0848 -0.5273  0.1721
 5795W        W21689   4.008   9.732  14.089  0.0446 -0.0398 -0.1686
 5796W        W21690  16.997   8.096  16.227  0.0056  0.1477 -0.2479
 5797W        W21691   4.896   0.046   1.740  0.1233 -0.2718 -0.3637
 5798W        W21692   5.677  10.558  12.685 -0.1099 -0.0653  0.0064
 5799W        W21693  11.871   0.956  16.567  0.3441  0.1554  0.0328
 5800W        W21694  14.651   5.178   2.820  0.0048 -0.0015  0.4728
 5801W        W21695  15.376  16.357   5.449  0.1033  0.0468 -0.1077
 5802W        W21696   3.756  10.475  15.474  0.0648  0.3769  0.0487
 5803W        W21697   2.574   7.644  16.912 -0.1051 -0.0320  0.0766
 5804W        W21698  16.285   8.090   2.492 -0.4111  0.0966  0.0106
 5805W        W21699  17.268   8.511  16.194  0.0905  0.1234 -0.0022
 5806W        W21700   2.383  16.865  15.752  0.1238 -0.0123  0.0693
 5807W        W21701  10.073  10.460  16.231 -0.0088 -0.1570  0.1282
 5808W        W21702   0.145  14.092  12.846 -0.0626  0.1840 -0.1905
 5809W        W21703   3.030  17.438  12.714 -0.0697 -0.5497 -0.0462
 5810W        W21704   0.132   2.783   1.571 -0.0315 -0.0751  0.2045
 5811W        W21705  10.009  14.362  12.637 -0.0641  0.0999  0.0865
 5812W        W21706   3.754   3.154  11.987 -0.0531 -0.1282 -0.2832
 5813W        W21707   6.160  14.526   3.899 -0.0359  0.0686  0.0187
 5814W        W21708  11.579   9.562  16.887  0.1691  0.1885  0.0042
 5815W        W21709  14.825   9.009  14.399  0.0871  0.0453  0.2535
 5816W        W21710  14.558   9.027  15.771 -0.2128 -0.0653 -0.0874
 5817W        W21711   9.192   0.498   0.601 -0.1458 -0.2739  0.1319
 5818W        W21712  10.989   5.359   2.268  0.1336 -0.0220 -0.2464
 5819W        W21713  14.014  13.580   5.352 -0.2136 -0.0249  0.0721
 5820W        W21714   3.918   3.892   4.466  0.0269  0.4046  0.0621
 5821W        W21715  15.566  10.454   2.710  0.4684 -0.1830 -0.1508
 5822W        W21716   6.856   7.853   1.732 -0.3330  0.4141 -0.0768
 5823W        W21717   1.175  17.578  16.039  0.2682  0.2797 -0.2879
 5824W        W21718  15.413  16.136  15.210  0.0218  0.0523  0.1490
 5825W        W21719  13.661  17.738  13.709 -0.1023  0.0967  0.2084
 5826W        W21720   3.014   9.546  15.160  0.2640  0.1172  0.3184
 5827W        W21721  11.067  11.597  16.900 -0.0510 -0.2077 -0.2823
 5828W        W21722  10.642  15.883   2.587  0.1240  0.0034  0.2727
 5829W        W21723   5.962  15.406   2.247 -0.4695 -0.0776 -0.4285
 5830W        W21724   1.582   0.611   3.386  0.1779  0.0520  0.3184
 5831W        W21725   9.817   6.020   0.613  0.2750 -0.0037 -0.1961
 5832W        W21726  15.174   5.426   3.717 -0.3392 -0.1265 -0.1660
 5833W        W21727  17.298  13.390   5.271 -0.0288  0.3079 -0.0330
 5834W        W21728  15.809  14.891   5.749  0.2004 -0.0146  0.1581
 5835W        W21729  14.421   7.028  14.529  0.0963 -0.1097  0.4445
 5836W        W21730   2.362   4.563  13.066  0.1610  0.0188 -0.3140
 5837W        W21731   2.572  15.110   0.255  0.3865  0.1597  0.1272
 5838W        W21732  11.884   3.053  16.809 -0.0544  0.0332 -0.4390
 5839W        W21733   5.956  12.038  12.419  0.2474 -0.1503  0.1009
 5840W        W21734  11.332   3.015  14.212  0.1869 -0.1051 -0.0638
 5841W        W21735   9.708   2.427   4.389 -0.1265  0.4206  0.0801
 5842W        W21736  10.991   7.824  12.792 -0.1261  0.0454 -0.1346
 5843W        W21737   5.138   7.681   1.746 -0.1321 -0.0058 -0.0609
 5844W        W21738  13.545   2.589   0.248  0.0818  0.2370  0.1856
 5845W        W21739   2.784   2.759  12.838 -0.0928 -0.0338 -0.0233
 5846W        W21740  12.738   2.498   1.703  0.2325  0.0990  0.2597
 5847W        W21741   4.702  13.559   0.480  0.3381 -0.0434 -0.2358
 5848W        W21742   0.471   3.445  11.926  0.0321  0.0781 -0.1181
 5849W        W21743   3.148   7.092   0.271  0.2732  0.0485  0.1551
 5850W        W21744   0.482   2.080  14.594  0.1618  0.0263 -0.1523
 5851W        W21745   3.806  13.447   5.500 -0.1256 -0.2071  0.1557
 5852W        W21746   5.368   8.060   0.450  0.0204 -0.1474  0.0768
 5853W        W21747   6.655   3.068  11.996 -0.0814 -0.1326  0.2424
 5854W        W21748  13.835  17.597  16.470 -0.3049  0.1355  0.0723
 5855W        W21749   6.167  13.177   0.156  0.2586  0.0547  0.1302
 5856W        W21750   2.805  17.204   1.853  0.0915 -0.0475  0.2415
 5857W        W21751  17.397   2.172  13.858 -0.1835 -0.3733 -0.1675
 5858W        W21752   6.490  13.137  14.370  0.0856  0.1666  0.0149
 5859W        W21753   1.294   5.251   1.185  0.2751  0.1000 -0.3134
 5860W        W21754  16.475  11.082   5.552 -0.0675 -0.1444  0.1764
 5861W        W21755  17.593   5.578   3.221 -0.2932 -0.0210 -0.2021
 5862W        W21756  17.625   7.358  15.488  0.0340  0.2151 -0.0038
 5863W        W21757  11.665   3.859  14.028 -0.0155 -0.3912 -0.3239
 5864W        W21758   8.971  13.328  15.573  0.1365  0.2101 -0.1120
 5865W        W21759   8.738   5.311   1.248  0.0735 -0.0498 -0.0095
 5866W        W21760   7.609   6.833  16.740  0.0154  0.1273  0.0804
 5867W        W21761   9.546   4.406  14.422 -0.0662 -0.2893 -0.0602
 5868W        W21762  13.777  17.394  13.323 -0.0332 -0.0531  0.0024
 5869W        W21763   2.836  10.511  16.350 -0.0231  0.1170 -0.0716
 5870W        W21764  12.834  13.687   3.293 -0.1404 -0.0325 -0.2394
 5871W        W21765   6.011  13.152  14.516 -0.1767 -0.3671  0.0337
 5872W        W21766  12.119   3.007   3.195  0.1355  0.0393  0.3091
 5873W        W21767  13.367   3.108  14.406 -0.1549  0.1813 -0.0321
 5874W        W21768  13.861  13.123   5.500 -0.2486 -0.2356 -0.0811
 5875W        W21769   9.330  13.215  14.278 -0.4863  0.3984  0.1278
 5876W        W21770   1.028   8.826   1.077  0.1886 -0.1019 -0.0130
 5877W        W21771  13.768  17.671   2.093 -0.3447  0.5770  0.6114
 5878W        W21772   1.465  12.925   4.113 -0.1906  0.2728  0.0816
 5879W        W21773  14.465   3.616   2.621  0.1765 -0.0678 -0.1317
 5880W        W21774  12.057  16.389  13.528  0.2618  0.0431 -0.0134
 5881W        W21775   9.498  15.332   0.893  0.3217  0.2217 -0.0472
 5882W        W21776   4.627  15.532  11.794  0.1403  0.0867 -0.1561
 5883W        W21777  12.807   4.319  13.912 -0.1495  0.1865 -0.1752
 5884W        W21778  17.670  11.569   5.646 -0.2965  0.2833 -0.3655
 5885W        W21779   9.268   5.742  14.059 -0.4048  0.0979 -0.3209
 5886W        W21780   0.260   9.543   2.016  0.0731  0.0900  0.0349
 5887W        W21781   2.375   0.733   3.600  0.1213  0.0229  0.1103
 5888W        W21782  17.700   3.023  11.429  0.0238  0.3168 -0.1952
 5889W        W21783  16.924  16.917  12.082 -0.2548 -0.1688 -0.1348
 5890W        W21784  13.376  13.214   2.639  0.0372  0.1941 -0.0339
 5891W        W21785  13.930   6.969  13.627 -0.0469  0.0957 -0.4516
 5892W        W21786   1.025   0.209   2.084  0.1831  0.0433  0.1860
 5893W        W21787   5.224  11.431   2.876  0.1063  0.1637 -0.1927
 5894W        W21788   2.534  13.098  12.366  0.0807  0.0610 -0.0840
 5895W        W21789   5.580  11.228   1.787 -0.1816  0.0415  0.0019
 5896W        W21790   5.656   0.247  16.225  0.0605  0.3098  0.0381
 5897W        W21791   9.090   0.500   1.124  0.1348 -0.1202 -0.0106
 5898W        W21792  12.785  14.621  16.243  0.2199  0.0598  0.2059
 5899W        W21793   0.801  11.028   0.379 -0.2292  0.1339 -0.0889
 5900W        W21794   4.665  12.287   0.599  0.1596  0.3908 -0.1925
 5901W        W21795   5.489  13.004  12.539 -0.2831 -0.0186 -0.3620
 5902W        W21796   1.355  13.948   2.203 -0.0823 -0.1277  0.1976
 5903W        W21797  14.428  11.730   2.274 -0.0578  0.0356 -0.4294
 5904W        W21798  10.918   9.738   6.439 -0.2250  0.2068 -0.1971
 5905W        W21799   9.677   0.859  13.911 -0.1237  0.0056  0.0755
 5906W        W21800  17.273   9.276   4.271  0.1088  0.2012 -0.2176
 5907W        W21801   4.820   0.503  14.772  0.1085 -0.1906 -0.2088
 5908W        W21802   1.793  16.845   4.985 -0.1369  0.0531  0.4272
 5909W        W21803   3.388  12.024  10.818  0.0423 -0.0381  0.1335
 5910W        W21804   0.794   2.424  12.717 -0.0979 -0.1991  0.0175
 5911W        W21805  17.670  17.022   1.993  0.1878 -0.2781  0.0618
 5912W        W21806   6.743  15.191   2.304 -0.1198 -0.1135 -0.1346
 5913W        W21807  15.084  12.039  14.288  0.4954 -0.1568 -0.0562
 5914W        W21808  17.474   3.806   2.052  0.2305  0.1497  0.0342
 5915W        W21809   9.412   6.848  14.708 -0.2142  0.0163 -0.1548
 5916W        W21810  17.306  11.810   2.311  0.1535  0.2302 -0.0283
 5917W        W21811  17.814   4.432  10.994  0.0416  0.0370 -0.1531
 5918W        W21812   3.968  12.709   0.264 -0.1967 -0.3291 -0.0994
 5919W        W21813  15.165  10.589   5.149 -0.0887  0.0283 -0.0153
 5920W        W21814   1.295   7.675   3.198  0.0514 -0.0413  0.0711
 5921W        W21815  12.399  14.524   4.995  0.1514 -0.1621 -0.0993
 5922W        W21816   9.810   9.872   5.697  0.3425 -0.2802  0.0927
 5923W        W21817  16.910  15.728   1.711 -0.1484 -0.0288 -0.2426
 5924W        W21818  17.064  12.084   0.083 -0.0070  0.2409 -0.1302
 5925W        W21819   9.061  11.604   2.906  0.0832  0.1394  0.0812
 5926W        W21820   6.617   4.321  13.658  0.3541 -0.1765 -0.0664
 5927W        W21821  16.643  16.063   4.077  0.0866 -0.0850 -0.1173
 5928W        W21822  15.228  11.837   6.075  0.3636 -0.0864 -0.0785
 5929W        W21823  12.074   9.449  15.335  0.2150 -0.2228  0.1161
 5930W        W21824   5.015   9.853  16.217  0.3568 -0.1201 -0.0252
 5931W        W21825  13.923   1.294   5.658 -0.1518 -0.2034  0.0364
 5932W        W21826  16.789   6.713   1.611  0.1885 -0.1482 -0.2064
 5933W        W21827   4.934  11.918   1.907  0.0349 -0.3337  0.2973
 5934W        W21828  13.316   0.888  14.170 -0.0633  0.0902  0.1699
 5935W        W21829  16.291   7.904   1.276 -0.1466 -0.1356  0.1188
 5936W        W21830   3.741   0.285  12.644  0.0309 -0.2258 -0.0699
 5937W        W21831   6.188   0.553   2.235 -0.2963 -0.1168  0.2421
 5938W        W21832   5.520  11.174   4.564 -0.2292  0.2481  0.0396
 5939W        W21833   6.428  16.612   1.602 -0.1168  0.1462  0.0888
 5940W        W21834   8.795  12.362  16.275 -0.0506  0.1883  0.1758
 5941W        W21835   6.538   4.892   0.352 -0.0446 -0.5322  0.2096
 5942W        W21836   6.584  12.068  14.718  0.2704  0.0451  0.3336
 5943W        W21837   8.178   2.430   2.408  0.1990 -0.2918  0.1081
 5944W        W21838  13.404  10.471   2.406 -0.1082  0.2471 -0.0680
 5945W        W21839   1.249   9.225   0.240 -0.2427  0.0169 -0.0890
 5946W        W21840  12.225  16.419  12.996 -0.2966 -0.0655 -0.1215
 5947W        W21841   7.003  13.795  13.804  0.0922  0.1294  0.1388
 5948W        W21842   4.706  11.447   2.172 -0.3583  0.2005 -0.1175
 5949W        W21843   8.924  17.199   3.685  0.0841  0.1752  0.0812
 5950W        W21844   2.657  13.014   4.745  0.0420  0.2191  0.3296
 5951W        W21845   8.235  12.741   3.486 -0.2445 -0.3866  0.0676
 5952W        W21846   9.930   3.477   6.214  0.1217 -0.4257  0.0105
 5953W        W21847  15.623   2.789  15.076  0.0381 -0.2191  0.0289
 5954W        W21848  16.740   4.215  12.964 -0.0116 -0.0512  0.1321
 5955W        W21849   2.600   6.937   4.282  0.1581  0.0964  0.2428
 5956W        W21850   1.869  10.139  13.223 -0.3400  0.1459 -0.1377
 5957W        W21851   2.018   7.724   1.570 -0.0897 -0.2725  0.3018
 5958W        W21852   0.085  11.548   3.405 -0.0774 -0.0234 -0.0016
 5959W        W21853   9.063   6.836   5.625  0.2332 -0.0619  0.0666
 5960W        W21854   7.329   3.095  13.157  0.0560 -0.2729 -0.3070
 5961W        W21855   1.732   2.552   3.374  0.3463  0.0471  0.1658
 5962W        W21856   6.472  17.183   2.740 -0.0560 -0.2980 -0.0407
 5963W        W21857  12.863   5.578   3.245 -0.0256  0.0940  0.1787
 5964W        W21858  12.230  17.691  14.398  0.1374  0.1954 -0.3468
 5965W        W21859   8.612   8.420   0.330  0.0537 -0.0579  0.2198
 5966W        W21860  15.161   2.067   1.320  0.0951 -0.1483  0.1241
 5967W        W21861   3.648   2.297  13.918  0.3608  0.0312  0.2721
 5968W        W21862   5.101   0.005   5.942  0.3612 -0.0634 -0.2204
 5969W        W21863   7.883   4.233  15.516  0.0748  0.0765  0.0980
 5970W        W21864   9.270   5.454  14.713 -0.1961 -0.1104  0.0025
 5971W        W21865  12.129   0.618  14.835 -0.2942 -0.1767 -0.2706
 5972W        W21866   0.481   4.148   0.981  0.2494  0.2342  0.1727
 5973W        W21867   5.127  10.145   4.086  0.3830 -0.0649 -0.3227
 5974W        W21868  14.878  11.703  13.555 -0.0145  0.1300  0.2777
 5975W        W21869   9.474  14.511   5.394  0.1661 -0.0862 -0.0407
 5976W        W21870   3.594  17.267  15.201 -0.3027 -0.0262  0.0860
 5977W        W21871   9.631   5.234  13.459 -0.0502 -0.0641  0.0105
 5978W        W21872   9.285   2.541   1.240 -0.3419  0.1992 -0.1087
 5979W        W21873  12.129  11.552   1.882  0.0908  0.0655  0.1083
 5980W        W21874  16.845   8.106   5.114  0.2069  0.1898  0.0230
 5981W        W21875  14.382  14.627  13.550 -0.0471 -0.1399  0.0733
 5982W        W21876  16.195   1.781  12.556 -0.0834 -0.1077 -0.1856
 5983W        W21877   7.150   1.143  16.574 -0.0307  0.3549 -0.1199
 5984W        W21878   7.915   7.243  16.558 -0.0522  0.0053  0.1489
 5985W        W21879  11.683   4.703  15.881 -0.1570  0.1850  0.1562
 5986W        W21880  15.150   1.772   5.194 -0.0419 -0.0262 -0.0915
 5987W        W21881  12.376   5.703   4.047 -0.2923  0.2131  0.1977
 5988W        W21882   4.946  12.954  12.000 -0.3575  0.0123  0.3957
 5989W        W21883   1.694  11.959  10.728  0.1257  0.0399 -0.0278
 5990W        W21884   9.568  10.122  12.166 -0.2698 -0.0225 -0.0140
 5991W        W21885   4.711   6.820   1.146  0.1526  0.2806 -0.3164
 5992W        W21886  14.378  17.094   1.174 -0.2579 -0.1719  0.2637
 5993W        W21887  15.103   3.425  15.374  0.1831 -0.4190  0.3399
 5994W        W21888  16.372   4.881  16.079 -0.1485  0.4305  0.0417
 5995W        W21889   7.923   9.186  14.697 -0.1778  0.1488  0.1180
 5996W        W21890   3.047   8.647   3.633  0.3155 -0.1216 -0.1492
 5997W        W21891  13.356   7.234  14.526 -0.0350  0.1147  0.1855
 5998W        W21892  13.989   3.842   2.566 -0.1413  0.2097 -0.1124
 5999W        W21893   0.882  15.040  12.024  0.1027  0.2122  0.3070
 6000W        W21894   6.968   0.220   0.685 -0.0951 -0.0498 -0.1500
 6001W        W21895  15.847   2.044  16.224  0.1155  0.2348 -0.0205
 6002W        W21896   9.272   1.283   3.724  0.0486  0.0481 -0.2252
 6003W        W21897  17.431  16.331   2.798 -0.1834 -0.1517  0.0923
 6004W        W21898   1.675   9.109   3.244 -0.0696 -0.1666 -0.0459
 6005W        W21899   5.837  13.594   1.236 -0.1573  0.1056 -0.0204
 6006W        W21900  10.392  16.795   3.640  0.1524 -0.0128  0.2669
 6007W        W21901   1.710  11.462   5.301  0.4405 -0.3194  0.1915
 6008W        W21902   1.707   3.038   3.206  0.0860 -0.3617  0.0593
 6009W        W21903   2.182  11.867   4.041 -0.2586 -0.1348 -0.0275
 6010W        W21904  15.432   9.813  12.080 -0.1961  0.0691 -0.1250
 6011W        W21905  12.948  10.677   3.746  0.0925 -0.1105  0.1510
 6012W        W21906  13.433   9.386  14.981 -0.2298  0.0116 -0.2559
 6013W        W21907   1.803   4.491   5.345  0.0977 -0.1070  0.3220
 6014W        W21908   1.869   4.507  12.143 -0.0037  0.1494 -0.1003
 6015W        W21909   4.246   1.034   5.388 -0.2006 -0.0674  0.1154
 6016W        W21910  13.936  14.473   0.655  0.1248  0.0229 -0.0747
 6017W        W21911   0.664   1.187  15.607 -0.1211 -0.1084 -0.0272
 6018W        W21912  17.581   3.289   1.880 -0.1411  0.0473  0.1942
 6019W        W21913   5.926   6.115  16.140 -0.3822 -0.0054 -0.2402
 6020W        W21914   2.818   4.335   6.589 -0.0198  0.0070  0.0880
 6021W        W21915  16.425  10.051  14.690  0.1915 -0.1340  0.4942
 6022W        W21916   6.239  10.027   3.445 -0.2370  0.0254  0.0974
 6023W        W21917   9.412  10.814  14.885 -0.1487 -0.1515 -0.2151
 6024W        W21918   0.891  12.283   1.300  0.0454 -0.1672  0.0801
 6025W        W21919  15.060   6.658  11.554 -0.0339 -0.0336  0.0776
 6026W        W21920   4.591  13.943  13.586 -0.0964  0.0299  0.1586
 6027W        W21921  14.505  15.232  12.465  0.0246  0.1513  0.0845
 6028W        W21922  10.838  16.034   0.810 -0.0065 -0.2348 -0.1099
 6029W        W21923   7.218   0.626   0.508 -0.2272 -0.0323  0.3440
 6030W        W21924   4.090   8.896   5.644 -0.2396  0.0241  0.1866
 6031W        W21925  11.044  11.879  15.743 -0.1114 -0.4176 -0.0071
 6032W        W21926   6.729   9.317  13.956  0.3644 -0.2597 -0.0643
 6033W        W21927  17.674  17.848   2.059  0.0151 -0.1688 -0.0688
 6034W        W21928   1.851   5.071  14.529  0.2201  0.3078  0.1115
 6035W        W21929   0.540  10.937  15.297 -0.4498  0.0756 -0.2157
 6036W        W21930  14.410  10.097   5.340  0.0957  0.2310  0.0615
 6037W        W21931   0.046  15.664   3.635  0.0241 -0.0644 -0.1992
 6038W        W21932   9.080   3.450   1.186  0.0500  0.2405  0.0998
 6039W        W21933   6.073   4.231  12.321 -0.1979 -0.2108 -0.1064
 6040W        W21934  11.329   1.416   1.352  0.0265  0.0637  0.2144
 6041W        W21935  11.055  13.759   5.128 -0.3774  0.1887 -0.1592
 6042W        W21936   2.220  16.048  14.521 -0.1515  0.3589 -0.0118
 6043W        W21937   6.661   9.215   2.486  0.0458  0.1463  0.2291
 6044W        W21938   4.701   4.685  11.573 -0.3070  0.2038 -0.2815
 6045W        W21939   5.985  11.019   1.604 -0.1508 -0.1127 -0.0498
 6046W        W21940  14.831  14.540   2.600 -0.1446 -0.2489  0.0853
 6047W        W21941  17.329  15.387  16.420  0.2136 -0.0000  0.0672
 6048W        W21942   1.605   5.470  14.763  0.2242 -0.1533  0.0201
 6049W        W21943   5.303  10.875   0.021  0.2042  0.0790 -0.0797
 6050W        W21944   2.006   3.453  15.339 -0.0217  0.0993 -0.0927
 6051W        W21945   7.348   6.088  12.295 -0.0156  0.2816 -0.2868
 6052W        W21946  14.650  12.054  13.242 -0.2365 -0.2690 -0.0240
 6053W        W21947  13.954   4.709  14.376 -0.0197 -0.1214 -0.0477
 6054W        W21948  12.308   4.978   4.072 -0.0101 -0.0940 -0.0335
 6055W        W21949   6.194   6.095  11.706  0.2784 -0.0137 -0.0817
 6056W        W21950  13.298   7.916   3.383  0.1722 -0.3015  0.2708
 6057W        W21951   4.408   2.695   1.034  0.3775 -0.0850  0.2237
 6058W        W21952   1.953  11.463  14.813  0.1508  0.0332 -0.0463
 6059W        W21953   2.066  10.867   1.374  0.2771  0.0946 -0.1568
 6060W        W21954   3.337   1.613  11.266  0.2433  0.1037 -0.4033
 6061W        W21955   9.046  10.692   4.835 -0.1410  0.0470 -0.1164
 6062W        W21956  12.752  12.085  15.312 -0.0726  0.0820 -0.1462
 6063W        W21957  13.698   3.975   4.563 -0.0817 -0.0555  0.0968
 6064W        W21958   9.496   8.901   4.603 -0.0309  0.1754  0.2838
 6065W        W21959  15.194   4.097   6.060 -0.0933 -0.1217 -0.2524
 6066W        W21960  11.700  15.037  14.694  0.2469 -0.5446 -0.1712
 6067W        W21961   4.548  14.005   1.830  0.1659  0.2958 -0.1996
 6068W        W21962  13.756   8.587  16.256 -0.0604 -0.0671 -0.1152
 6069W        W21963   4.661   8.713   1.649 -0.2259  0.0124  0.0526
 6070W        W21964   2.747  13.766   5.307  0.1073 -0.4209  0.0525
 6071W        W21965   3.095   9.998  13.873  0.0727  0.0796 -0.1279
 6072W        W21966   9.450   8.619   5.997  0.2985 -0.0377 -0.0635
 6073W        W21967  13.195  15.177   1.307  0.0204 -0.2869  0.1907
 6074W        W21968   0.416   0.459   0.567 -0.2508 -0.1034 -0.0797
 6075W        W21969   6.583   6.162  15.894 -0.0224  0.0787  0.0320
 6076W        W21970   2.530   2.405  13.090 -0.0030 -0.1457  0.3706
 6077W        W21971   5.782   9.102   2.120  0.4046  0.0063 -0.3454
 6078W        W21972  14.297  11.154  15.918  0.1018 -0.0202  0.0007
 6079W        W21973   1.783  12.782   5.049  0.1327 -0.0075 -0.2290
 6080W        W21974   9.836   3.288  15.184 -0.0362 -0.1263 -0.3421
 6081W        W21975   7.438   0.669  15.890  0.2396 -0.3292 -0.1129
 6082W        W21976   4.312   0.214   3.288 -0.1629 -0.0694  0.0999
 6083W        W21977  11.397  15.123  16.855  0.1109 -0.1050  0.1728
 6084W        W21978   1.782  17.115  12.563  0.2515  0.0589 -0.0982
 6085W        W21979  16.652  16.431  11.960  0.0849 -0.1455 -0.1077
 6086W        W21980   8.446  11.303  12.023 -0.0123  0.0317  0.1246
 6087W        W21981  16.931  10.954   1.027  0.0967 -0.0360  0.1475
 6088W        W21982  10.762  11.475  16.545 -0.0333 -0.1885 -0.2964
 6089W        W21983  13.668   8.074  11.446 -0.1352  0.0858 -0.0691
 6090W        W21984   7.021   3.785  12.497  0.0713  0.1679  0.0621
 6091W        W21985   2.589   2.723   3.946  0.0287  0.1325  0.3927
 6092W        W21986  17.254   1.199  16.802  0.1002  0.0701  0.2068
 6093W        W21987   6.265   2.761   5.496 -0.3600  0.0357  0.2587
 6094W        W21988   1.999   3.978   1.231  0.0504 -0.0207  0.1866
 6095W        W21989   8.793  13.441  15.042 -0.0667  0.0587  0.2215
 6096W        W21990   7.326   5.962   5.276 -0.0112  0.2784 -0.0306
 6097W        W21991  11.216  13.686  12.578  0.2717 -0.1955 -0.1315
 6098W        W21992  15.247  16.252   6.284  0.2054 -0.0542 -0.1283
 6099W        W21993   1.326   0.415   5.020 -0.1744 -0.0432  0.1745
 6100W        W21994   6.437  11.853   4.347  0.0559  0.0334  0.1082
 6101W        W21995  17.006  10.838   2.560 -0.1260  0.0971 -0.0556
 6102W        W21996   1.286   3.330  11.493  0.1526 -0.0026  0.0330
 6103W        W21997  16.872  12.038  14.597  0.1919  0.2335 -0.0876
 6104W        W21998   3.665   8.076   2.102 -0.0942 -0.0230 -0.0245
 6105W        W21999  15.062  13.917  12.059 -0.0428 -0.0453 -0.4102
 6106W        W22000  10.641  15.586  16.248  0.0867  0.1002  0.0163
 6107W        W22001   4.448  17.106  14.395 -0.0300 -0.0183 -0.1396
 6108W        W22002   0.704   5.357  14.661 -0.3549  0.0406 -0.0088
 6109W        W22003  12.136   0.269  12.015 -0.0934  0.0446 -0.3326
 6110W        W22004   8.278   6.943   0.604 -0.2098 -0.0990 -0.1088
 6111W        W22005  15.136  13.544   2.999  0.1233  0.3305 -0.0083
 6112W        W22006   9.694   0.633  12.486  0.2601 -0.3323  0.2096
 6113W        W22007  14.641   8.857   5.188 -0.2251  0.0730 -0.0603
 6114W        W22008   4.827  11.598   5.322  0.3677  0.1375  0.1845
 6115W        W22009   5.932   8.358   3.627  0.0263  0.0421  0.0392
 6116W        W22010   8.583  14.204   2.411 -0.1690 -0.3943  0.0715
 6117W        W22011  14.849  17.159   1.073  0.0305 -0.4868  0.1640
 6118W        W22012  17.208   9.913  12.744  0.1366 -0.2284  0.2464
 6119W        W22013   8.778  13.501   3.807 -0.1753  0.1422 -0.0495
 6120W        W22014   4.646  12.299   4.895 -0.0392 -0.0011  0.2858
 6121W        W22015   9.330   8.836  14.807  0.1513  0.0108 -0.2545
 6122W        W22016  15.737  11.653   6.030 -0.0946  0.0610  0.0627
 6123W        W22017   9.437  13.881  13.158 -0.1061  0.1219 -0.1793
 6124W        W22018   8.007  11.563   5.065 -0.0387 -0.0987  0.0181
 6125W        W22019   2.117   4.568  12.617  0.0739  0.0798 -0.0370
 6126W        W22020  11.351  13.474  12.037 -0.0570  0.1129 -0.1509
 6127W        W22021  15.382   2.714   4.404  0.1324  0.1048 -0.3003
 6128W        W22022  17.491   5.784   2.132  0.1551  0.1103 -0.1504
 6129W        W22023   2.183   9.330   2.362  0.3227 -0.1921 -0.0466
 6130W        W22024  17.593  17.322   2.373  0.2034  0.0289  0.1890
 6131W        W22025   3.937   5.878  11.657  0.0759 -0.0779 -0.1230
 6132W        W22026   3.549   8.129   5.366 -0.1227  0.1884 -0.0516
 6133W        W22027   4.700  15.297  15.180  0.1982  0.1624 -0.4057
 6134W        W22028   1.053   1.893  11.435  0.0868 -0.1306  0.1737
 6135W        W22029  16.596   7.790   5.455  0.1049 -0.2497  0.0946
 6136W        W22030  10.396  13.734  12.057 -0.2423 -0.2481 -0.0813
 6137W        W22031   5.349  12.763   3.996  0.0122  0.0388  0.0996
 6138W        W22032   6.793   8.319   1.631  0.1839  0.1918  0.0940
 6139W        W22033   9.228  12.870   3.001 -0.1836  0.1506 -0.2491
 6140W        W22034  14.332   5.708  12.987 -0.0366 -0.2459 -0.1319
 6141W        W22035  13.446  17.837  10.567  0.2964 -0.2963  0.0530
 6142W        W22036  11.390   8.384  13.369 -0.1569 -0.0339  0.2544
 6143W        W22037   6.364   9.395   5.599 -0.4360 -0.2090 -0.1271
 6144W        W22038  15.195  15.770  14.464  0.0655 -0.1248 -0.3083
 6145W        W22039   3.107   5.777  11.791 -0.1183  0.0216 -0.1907
 6146W        W22040  11.754   0.685  14.022 -0.2195 -0.0783 -0.2781
 6147W        W22041   7.579  17.760  11.340 -0.0262  0.0118 -0.1932
 6148W        W22042   4.710  12.821  14.065 -0.2621  0.1268 -0.2140
 6149W        W22043   3.262  13.312  13.202  0.2976 -0.2087 -0.3004
 6150W        W22044  12.924  15.590  15.625 -0.1073 -0.3540 -0.4016
 6151W        W22045  11.413   8.527  15.958  0.0340 -0.1176 -0.0201
 6152W        W22046   0.005  11.155   5.388 -0.3671 -0.1394  0.4642
 6153W        W22047   2.611  13.732   0.847  0.1484  0.0878 -0.0445
 6154W        W22048   4.965   5.066  16.385 -0.0845  0.0273  0.0732
 6155W        W22049  10.156   4.185   2.363 -0.2089 -0.0828 -0.0152
 6156W        W22050  15.808  12.270  13.779 -0.0122 -0.1121  0.0224
 6157W        W22051   2.410  13.966   2.947 -0.1368 -0.0264 -0.0684
 6158W        W22052   5.538   0.958  16.793 -0.5131  0.2262 -0.2374
 6159W        W22053  16.494  12.323  13.219  0.1014 -0.1367  0.0256
 6160W        W22054  16.925   1.261   2.935 -0.1168 -0.2707  0.0698
 6161W        W22055   0.905   4.907  16.810 -0.3531  0.1604 -0.2311
 6162W        W22056   9.825  10.329  13.392 -0.1944  0.0505 -0.0164
 6163W        W22057  14.163   4.142  12.639  0.2325  0.0073 -0.1954
 6164W        W22058  12.803   7.744  11.671  0.1420 -0.1284 -0.0222
 6165W        W22059   2.813   9.043   2.145 -0.1783  0.1705  0.4478
 6166W        W22060  10.703   3.715   1.337 -0.2744 -0.3238  0.2303
 6167W        W22061  10.739  16.158   3.457  0.1530 -0.3225  0.2728
 6168W        W22062   7.514  11.443  14.682 -0.0122  0.2060 -0.2653
 6169W        W22063  13.536  11.883   4.741 -0.0367 -0.1012 -0.0419
 6170W        W22064  17.360   1.069  13.117  0.0969  0.0671  0.0319
 6171W        W22065   3.159   9.178   3.636  0.1939  0.0462  0.1296
 6172W        W22066   9.074  13.679  12.788 -0.0888  0.1322 -0.1591
 6173W        W22067   2.510  15.821   5.574  0.1257  0.3160  0.0888
 6174W        W22068  10.132  11.278   4.389  0.0775 -0.4420 -0.0953
 6175W        W22069   7.069   8.398   4.331 -0.1757  0.1281 -0.0857
 6176W        W22070   2.146  14.985   2.274 -0.1280 -0.2925  0.4388
 6177W        W22071   3.058   5.599   1.130 -0.0067 -0.2261  0.0945
 6178W        W22072  17.584   5.051   3.200  0.2425 -0.1211 -0.0354
 6179W        W22073   7.718  11.495  15.233 -0.0403  0.1170 -0.2211
 6180W        W22074  15.617  13.883   2.158 -0.2266 -0.0946  0.3681
 6181W        W22075   8.386   0.085   5.285  0.0040 -0.1047 -0.1813
 6182W        W22076   6.667  15.227   0.453 -0.0051 -0.0488  0.4460
 6183W        W22077   5.619   6.091   1.088  0.0018 -0.1053  0.0612
 6184W        W22078   5.581  15.848  13.056 -0.0407  0.1872 -0.2497
 6185W        W22079  12.807   3.046   1.753 -0.2348  0.3396  0.0170
 6186W        W22080   0.927  15.485  15.307  0.1143  0.1526  0.1117
 6187W        W22081  16.255   0.910  13.024 -0.1209 -0.3683 -0.2083
 6188W        W22082   7.320   6.586   0.998 -0.1183  0.0790 -0.1478
 6189W        W22083  14.805   6.890  11.912 -0.1456 -0.2191 -0.1561
 6190W        W22084  10.637   2.385   5.277  0.0664 -0.1143  0.0551
 6191W        W22085  14.162   9.567   4.673  0.2110 -0.0770  0.0931
 6192W        W22086  16.853  12.740  11.421  0.2172  0.2080 -0.1022
 6193W        W22087  10.949  11.407   3.232 -0.0940 -0.1909 -0.1447
 6194W        W22088  15.769   8.321   0.541 -0.0785 -0.0418 -0.0151
 6195W        W22089   5.108   8.213  13.257  0.0222 -0.3547  0.2357
 6196W        W22090   3.041   4.301  14.355  0.0801 -0.1471 -0.0813
 6197W        W22091   7.173   9.545  15.365  0.0396  0.1223  0.0451
 6198W        W22092   5.572   0.665  12.946  0.0836  0.3513 -0.0604
 6199W        W22093   4.551   4.343  15.951 -0.0752  0.1922 -0.1294
 6200W        W22094  12.067  11.734  12.192  0.5034 -0.1263 -0.3293
 6201W        W22095   5.910   4.119   3.069  0.0077  0.1138  0.1009
 6202W        W22096   8.773   3.662   5.071 -0.1589  0.1246 -0.1011
 6203W        W22097   9.676  11.304  15.680 -0.1026 -0.2914  0.0440
 6204W        W22098  16.975   8.215  14.502  0.0337  0.2058 -0.0283
 6205W        W22099   8.545   4.513   1.713 -0.0401 -0.1840  0.1468
 6206W        W22100  14.922   1.860   2.810 -0.0782 -0.1700  0.2686
 6207W        W22101   8.383  11.308  13.565 -0.1838 -0.0954 -0.1403
 6208W        W22102   1.138   2.715  16.084  0.1802  0.0430 -0.0726
 6209W        W22103   1.871  13.577  12.152  0.0107  0.2385  0.0566
 6210W        W22104  12.041   8.897  14.322  0.0462  0.0802 -0.0645
 6211W        W22105   1.453  11.457  13.549  0.1140  0.2996  0.0574
 6212W        W22106   2.275   3.916  15.658 -0.0921 -0.1287 -0.2806
 6213W        W22107   0.148   0.466  14.219 -0.0488  0.0296  0.0966
 6214W        W22108   3.028   0.461   2.879  0.0248 -0.0680  0.3150
 6215W        W22109  11.772  12.278   2.230 -0.4150 -0.4948  0.0181
 6216W        W22110  10.579   3.447  14.696 -0.0173 -0.4533 -0.0467
 6217W        W22111  15.028   6.136   3.036  0.0120 -0.1323 -0.1810
 6218W        W22112   7.121   0.080   3.940 -0.0009 -0.1050 -0.1313
 6219W        W22113  10.502   8.694   3.943 -0.1444  0.1248  0.0204
 6220W        W22114   2.850  10.724  15.256  0.1829  0.0944 -0.0423
 6221W        W22115  14.958  16.222  14.227  0.0536 -0.3048 -0.1906
 6222W        W22116  15.826  17.135   5.819 -0.0814  0.0387  0.0389
 6223W        W22117   4.442   7.190   3.334 -0.3266  0.1202 -0.1379
 6224W        W22118   4.548   8.342  15.194  0.0017  0.0561 -0.2055
 6225W        W22119   7.794  11.732   4.198  0.0144 -0.2675  0.0278
 6226W        W22120  11.649   2.925  15.507  0.2611 -0.0233  0.1624
 6227W        W22121   3.582   4.546  15.533  0.0983 -0.2187  0.1866
 6228W        W22122  15.217   4.446  14.319  0.2830  0.1879  0.1725
 6229W        W22123   0.191  10.971  12.634  0.0762 -0.1391  0.0283
 6230W        W22124  16.392   9.001  16.004  0.1250  0.0294 -0.1897
 6231W        W22125   2.359   2.356  13.553 -0.0772  0.2091  0.1291
 6232W        W22126   3.023  14.586  14.332 -0.1909  0.0079 -0.0909
 6233W        W22127   8.372   5.445  13.855  0.1471  0.0658 -0.1049
 6234W        W22128   5.469  17.255   3.605 -0.0409  0.3374 -0.1613
 6235W        W22129  15.274   8.227   4.320  0.1635  0.1773 -0.0011
 6236W        W22130  12.246   4.099  15.383 -0.0334 -0.2555  0.0775
 6237W        W22131   8.145   5.882   0.695  0.2365 -0.0494 -0.0822
 6238W        W22132   4.288   1.818  15.272 -0.0033 -0.3516  0.1410
 6239W        W22133  16.182   5.622  12.297 -0.0571  0.0158  0.0546
 6240W        W22134   8.404  12.133   1.933 -0.2200  0.0381  0.0892
 6241W        W22135   5.773   5.672   1.368 -0.2829 -0.0563  0.1717
 6242W        W22136  15.896  10.116  11.928  0.0817  0.1894 -0.1598
 6243W        W22137   8.967  16.543  15.411  0.1079 -0.2200  0.0372
 6244W        W22138   7.887   1.813   2.959 -0.1202  0.3325  0.0237
 6245W        W22139  11.754   2.886  14.506  0.1732 -0.3481 -0.5185
 6246W        W22140  11.971   1.181   4.757 -0.3387 -0.0404  0.0362
 6247W        W22141   3.286  14.179  14.221  0.0913  0.0816  0.1723
 6248W        W22142  16.162  17.723   0.371 -0.3283  0.1311  0.3005
 6249W        W22143  11.585  10.854  14.861  0.0007 -0.0507 -0.4240
 6250W        W22144   2.030  12.166  13.594 -0.4111 -0.1004  0.5137
 6251W        W22145   2.593   9.808   3.172 -0.1762  0.2149 -0.0902
 6252W        W22146   1.972  17.006   1.689  0.0867  0.3344 -0.0849
 6253W        W22147  10.020   3.008  12.431  0.0767  0.1874 -0.0014
 6254W        W22148  15.990   1.293   1.883 -0.2340  0.0509  0.2873
 6255W        W22149  17.210   7.293  14.567 -0.0984  0.0301  0.1250
 6256W        W22150   7.839  11.560   2.194  0.1977 -0.0514 -0.0556
 6257W        W22151   5.191   1.041   2.703  0.0524 -0.2290 -0.0277
 6258W        W22152   2.105   8.970  11.724  0.0974  0.0469  0.0949
 6259W        W22153   3.891  11.594   1.750  0.2767  0.1137  0.1450
 6260W        W22154  10.714   0.139   0.300  0.3817  0.1031  0.1874
 6261W        W22155  14.989  17.590  14.837 -0.0772 -0.1249  0.4028
 6262W        W22156  16.749   7.104   1.263  0.0089 -0.2490  0.0901
 6263W        W22157  10.882  11.553  12.203  0.0942  0.1111  0.2224
 6264W        W22158  15.161   1.683  12.272  0.0703  0.0824  0.1852
 6265W        W22159   9.617   4.909  15.340 -0.1008 -0.0066  0.0872
 6266W        W22160  17.710  13.497  16.045  0.1934  0.1417  0.1967
 6267W        W22161   9.260   3.519  16.001 -0.0159 -0.0510  0.0699
 6268W        W22162  14.875   7.576  14.302  0.1306 -0.0083 -0.2838
 6269W        W22163   1.693   8.770  14.999  0.0083 -0.1249 -0.3834
 6270W        W22164  10.412   1.034   2.195 -0.0280  0.1196  0.0558
 6271W        W22165  10.544   5.466  16.234 -0.2139  0.0445 -0.2341
 6272W        W22166   7.467   2.726  13.477  0.1531  0.0694 -0.0039
 6273W        W22167   4.536  15.695   0.839  0.3945  0.1663  0.1411
 6274W        W22168   0.952   3.948   4.248  0.0233  0.2025 -0.1871
 6275W        W22169   6.568  17.458  16.502  0.1496 -0.1348  0.0832
 6276W        W22170   8.042   4.558  12.057 -0.1103  0.0409 -0.0405
 6277W        W22171  14.870  12.637  12.790  0.0375  0.0288 -0.1379
 6278W        W22172   4.817   2.879   3.618 -0.0636  0.0393  0.1265
 6279W        W22173   5.947  16.191   3.110  0.1267 -0.2130  0.6533
 6280W        W22174  13.705  15.159  12.844  0.1363 -0.1115 -0.1631
 6281W        W22175  14.014   5.135  15.657  0.1133 -0.1086  0.1204
 6282W        W22176   1.056  16.957   0.662  0.1422  0.0271  0.5156
 6283W        W22177  13.415  12.238   4.442  0.0738 -0.2756 -0.0739
 6284W        W22178   6.744  13.089   0.343  0.3452 -0.0896  0.0917
 6285W        W22179   0.582   4.095  14.429  0.0652  0.1824 -0.2526
 6286W        W22180   4.074  10.640   0.201 -0.1417  0.1621  0.1061
 6287W        W22181   6.143   9.473   3.040  0.1298  0.0201 -0.0505
 6288W        W22182   6.089   7.522   2.232  0.0237  0.3510 -0.0540
 6289W        W22183   2.999  10.729   2.705  0.2351 -0.1489  0.0246
 6290W        W22184   7.374   4.432  11.937 -0.2323 -0.0089  0.2303
 6291W        W22185  17.694   1.486  16.483 -0.0026  0.1307 -0.0956
 6292W        W22186   6.258   7.034  16.373 -0.1308  0.0502  0.1170
 6293W        W22187   0.519  13.261  15.685 -0.2464 -0.2184 -0.3598
 6294W        W22188   3.735  17.198   3.515  0.0935  0.0870 -0.2944
 6295W        W22189   1.100  14.816  16.852  0.5011 -0.1495  0.1678
 6296W        W22190  13.882   1.419   3.387  0.1404 -0.0983 -0.1398
 6297W        W22191   4.034   6.815  11.827 -0.1716 -0.0453  0.0742
 6298W        W22192   4.367   5.649  15.513 -0.1796 -0.3490  0.1638
 6299W        W22193  12.583  10.826   0.388  0.0605  0.0520 -0.1033
 6300W        W22194  11.817  10.379   0.513  0.1551  0.2931 -0.0621
 6301W        W22195  14.429   9.509  15.010  0.0545 -0.0315  0.0966
 6302W        W22196   9.153  13.443   4.912 -0.1863  0.0368 -0.4029
 6303W        W22197   4.104   5.643   4.581 -0.2887 -0.0276  0.0801
 6304W        W22198   3.858  16.269  12.820 -0.1159  0.1622 -0.1227
 6305W        W22199  13.148   3.227   2.889  0.0538  0.0335  0.1454
 6306W        W22200   5.434   0.352   5.692  0.1344 -0.3556  0.0290
 6307W        W22201  10.750   4.725   3.906 -0.1547 -0.0287 -0.2160
 6308W        W22202   8.845   6.387   5.112  0.0723  0.4042 -0.1070
 6309W        W22203  16.337  16.149  14.700 -0.1369  0.0623  0.1128
 6310W        W22204   1.321  13.596   3.424 -0.0032  0.1610  0.2380
 6311W        W22205  16.530  10.619  13.135  0.1761  0.0872  0.1554
 6312W        W22206  16.305   8.679  13.622  0.0496 -0.3439 -0.2437
 6313W        W22207  13.638  17.650   1.571  0.0016  0.0111 -0.0886
 6314W        W22208   0.234  16.823   0.676 -0.1865  0.1843  0.0767
 6315W        W22209   6.882  14.020  14.242  0.0824 -0.2787  0.1411
 6316W        W22210  10.467   5.730  13.634 -0.1616 -0.0165  0.0169
 6317W        W22211   1.811   2.755   1.337  0.1821 -0.0925  0.1876
 6318W        W22212  13.282  17.519  14.467 -0.3502  0.0245 -0.1172
 6319W        W22213   6.674   8.377  13.518  0.1260 -0.1175  0.2516
 6320W        W22214   9.875   4.112  13.794 -0.0527  0.0244 -0.1708
 6321W        W22215  15.209   0.468   3.592 -0.1446  0.1054  0.0929
 6322W        W22216   3.537  16.395   5.995 -0.2473 -0.0221  0.1229
 6323W        W22217   2.681  14.264  11.790  0.2004 -0.1154  0.0300
 6324W        W22218   2.699  12.034  12.367 -0.0620  0.1404  0.4602
 6325W        W22219  15.709  11.879  13.473  0.0811  0.1610 -0.0225
 6326W        W22220  16.158   7.041  16.714  0.0705  0.1548  0.0346
 6327W        W22221  12.389   9.943  13.313 -0.2597  0.3222 -0.2104
 6328W        W22222  16.576   0.750  11.409  0.3076  0.3531 -0.0430
 6329W        W22223   0.259   4.165   0.470  0.0346 -0.4013 -0.4080
 6330W        W22224   6.876  11.930  14.272 -0.1204  0.1434 -0.1998
 6331W        W22225  13.139  14.272   1.857 -0.1947 -0.1194 -0.4693
 6332W        W22226   1.952   1.148  13.290  0.1419  0.0704  0.2287
 6333W        W22227  12.074   8.074   4.123  0.0008  0.1932  0.0659
 6334W        W22228  13.328   7.156   4.236 -0.3266  0.2151 -0.1176
 6335W        W22229   8.802   0.257  16.117  0.2860 -0.2675 -0.2557
 6336W        W22230   9.877   2.142   1.317 -0.0033 -0.0857 -0.4466
 6337W        W22231   2.358  13.001  13.062 -0.1153  0.2042 -0.2273
 6338W        W22232   9.307  11.123   1.828 -0.2394  0.2626  0.0002
 6339W        W22233  15.331   4.603   2.064 -0.0281  0.2564  0.1435
 6340W        W22234  14.407   8.060   4.342  0.0594  0.3099 -0.0153
 6341W        W22235  11.178   5.098  13.017 -0.0039 -0.2229  0.2857
 6342W        W22236  10.983  17.651  13.381  0.2146 -0.0308  0.1492
 6343W        W22237   7.081   1.442   2.097 -0.1098  0.2429 -0.1731
 6344W        W22238   9.734  16.999   0.429 -0.0383 -0.0393 -0.0401
 6345W        W22239   4.620   9.349  15.067 -0.0277  0.0058 -0.6029
 6346W        W22240  10.781  12.264   4.077  0.0359 -0.1703  0.0755
 6347W        W22241   8.384  11.462  16.893 -0.2977  0.1215  0.0662
 6348W        W22242  16.270   2.188   3.640  0.1190 -0.0277  0.0284
 6349W        W22243   8.658  12.994  16.697  0.1201 -0.0746 -0.0124
 6350W        W22244   5.105   7.600  16.703  0.0870 -0.1987 -0.1439
 6351W        W22245   2.189   0.569  13.955  0.0146  0.5029  0.1733
 6352W        W22246  15.014   3.048   4.300 -0.1250 -0.2151  0.2785
 6353W        W22247  14.513   9.576  12.066  0.0299  0.3930  0.1203
 6354W        W22248   6.059   0.483  12.760 -0.0936 -0.0582 -0.1883
 6355W        W22249   6.086   6.897   3.767  0.0269  0.3193 -0.0285
 6356W        W22250  14.069   9.085  16.122 -0.0422 -0.1456  0.0859
 6357W        W22251   7.314  16.695  13.945 -0.0565  0.1196  0.1907
 6358W        W22252  11.245  13.644   3.152 -0.0415  0.1318 -0.4319
 6359W        W22253  12.845   5.758   5.739 -0.2037  0.1848 -0.0279
 6360W        W22254   1.307   2.119   0.107  0.0804 -0.1976  0.0948
 6361W        W22255  14.533  15.262  11.091  0.0634 -0.0789  0.0224
 6362W        W22256   0.297  15.959  13.136  0.0549  0.3353 -0.0300
 6363W        W22257   8.614   7.284   4.332 -0.3360 -0.0358 -0.3529
 6364W        W22258  10.634  11.436   2.808  0.1341  0.0227  0.1658
 6365W        W22259   5.018  10.896  13.190  0.1042 -0.1383 -0.1151
 6366W        W22260   3.911   1.182  16.372 -0.0841 -0.1131  0.0308
 6367W        W22261  11.250   7.899  14.861  0.2876 -0.0970  0.1414
 6368W        W22262   9.829  11.874  11.954  0.0638  0.0165  0.0401
 6369W        W22263  10.029   5.185  14.310 -0.3216 -0.3219 -0.2906
 6370W        W22264  11.793   9.587   1.993  0.0810  0.1229 -0.1304
 6371W        W22265  14.514   4.317   5.366  0.0659 -0.0019  0.2409
 6372W        W22266  15.985  13.915  14.757 -0.4493  0.3914 -0.0912
 6373W        W22267   5.356  17.022  14.502  0.1171  0.2070  0.1794
 6374W        W22268  10.976   0.579   0.418  0.0642 -0.2001  0.2196
 6375W        W22269   1.146   5.081   3.942  0.1219  0.1022 -0.2315
 6376W        W22270  11.443  14.007  12.194 -0.0476  0.1012 -0.2140
 6377W        W22271   9.326  12.617  15.448  0.0280  0.2517 -0.2327
 6378W        W22272   3.852  13.715   6.024 -0.2120 -0.1493  0.3786
 6379W        W22273  10.406  11.056  16.821 -0.3485  0.1914  0.0388
 6380W        W22274  11.102  10.361   0.915 -0.0345  0.1782  0.3499
 6381W        W22275   4.493   1.899  12.852  0.1713 -0.0597  0.0023
 6382W        W22276  14.709  13.039  15.762  0.0560 -0.1487 -0.1442
 6383W        W22277  16.349   4.834   1.357  0.0408  0.2422  0.1294
 6384W        W22278  10.160   9.315  15.025 -0.1511  0.1999  0.0940
 6385W        W22279   8.266  12.617  14.744  0.2481  0.0080  0.1425
 6386W        W22280  14.653   6.258   5.283 -0.2652 -0.1595 -0.0221
 6387W        W22281   2.285  15.009   5.413  0.0855  0.1982  0.2555
 6388W        W22282  10.060  17.536   3.217  0.1186  0.2083  0.1356
 6389W        W22283  17.428   5.658  14.789  0.2809  0.1482  0.0593
 6390W        W22284  17.351   7.658  12.896 -0.0845 -0.1142  0.1447
 6391W        W22285   9.104  15.026   3.078 -0.0335 -0.2857 -0.2824
 6392W        W22286   7.300  16.523   5.384 -0.1454 -0.5822  0.0249
 6393W        W22287  16.656   3.081   3.600  0.2081  0.0411 -0.2650
 6394W        W22288   1.765  15.691   5.472 -0.1275  0.0415 -0.0827
 6395W        W22289   2.261   9.056  15.776 -0.1664  0.1236  0.0008
 6396W        W22290   2.515   1.125  11.191 -0.1000  0.1504  0.1663
 6397W        W22291  13.384   1.386   4.329  0.2303 -0.0565 -0.1690
 6398W        W22292  14.208   2.675  14.458 -0.1205 -0.1204  0.2947
 6399W        W22293  10.881  11.054  13.674 -0.0791  0.0373 -0.0893
 6400W        W22294  17.222   6.511   3.825 -0.0529 -0.3353  0.0678
 6401W        W22295   0.668  16.421  15.389  0.1331 -0.0721  0.2775
 6402W        W22296  10.831   7.473   5.534  0.1459 -0.0783 -0.0181
 6403W        W22297  15.558   3.257  12.063  0.0501 -0.0643 -0.1571
 6404W        W22298  16.270  17.262  12.891 -0.2662 -0.2769 -0.5418
 6405W        W22299   5.636   1.131  16.324 -0.3228  0.0292  0.1078
 6406W        W22300   4.428  10.540   4.955  0.0126  0.1780 -0.0854
 6407W        W22301   9.147   7.118  12.855 -0.1654 -0.1285  0.0851
 6408W        W22302   9.677   8.594   1.164  0.0161 -0.3621 -0.0644
 6409W        W22303  12.371   3.874  11.156 -0.1395 -0.0729 -0.2644
 6410W        W22304   5.366  17.415  15.135  0.0313 -0.1715  0.0470
 6411W        W22305  15.478   2.370  11.721  0.3428 -0.0348 -0.2179
 6412W        W22306   9.676   0.491   4.662 -0.0002 -0.2424  0.0626
 6413W        W22307   2.685   1.109   1.300  0.1100 -0.2111 -0.0937
 6414W        W22308   4.019  14.130  12.856 -0.0628 -0.0916  0.2720
 6415W        W22309  10.979  11.079  12.057 -0.0700  0.1000 -0.2877
 6416W        W22310   9.795   3.755  11.617 -0.4858 -0.2022  0.1238
 6417W        W22311   1.675   7.950  15.355 -0.1734 -0.2493  0.1208
 6418W        W22312  13.077   8.463  15.722 -0.1396 -0.0256  0.0575
 6419W        W22313  15.815   9.110  12.879  0.0779 -0.2164 -0.0530
 6420W        W22314  16.238  12.806  14.059  0.2451 -0.1200 -0.1751
 6421W        W22315   2.324   9.862  11.843  0.1740 -0.0337 -0.2214
 6422W        W22316  16.621  17.528   3.994  0.1326 -0.0474  0.1511
 6423W        W22317  14.521   3.144   3.520  0.0316  0.0819  0.0802
 6424W        W22318  13.549   0.839  13.537 -0.3648  0.1261  0.0949
 6425W        W22319   1.591  11.521  14.006 -0.0374  0.1855 -0.1241
 6426W        W22320   4.147   5.858  14.392  0.1123 -0.0861  0.0484
 6427W        W22321   7.148   9.121   3.474  0.1596  0.3129 -0.2259
 6428W        W22322   5.528  17.478  12.339 -0.0803 -0.2542  0.1412
 6429W        W22323  13.239  13.925   0.604 -0.2106  0.0871  0.2808
 6430W        W22324  16.931  14.962  12.665 -0.1105 -0.2820 -0.0498
 6431W        W22325  15.752   6.393  14.018 -0.1310  0.0682  0.0415
 6432W        W22326  14.747  16.860   1.524 -0.1644  0.0816 -0.0151
 6433W        W22327  14.650  10.816  12.482 -0.0360  0.2018  0.0469
 6434W        W22328  16.415   2.275  15.253 -0.2501  0.1136  0.0007
 6435W        W22329  14.457   7.292   0.866 -0.1103 -0.2773 -0.2278
 6436W        W22330   9.509   3.509  12.553 -0.0632  0.0679 -0.0039
 6437W        W22331   8.852  14.631  13.326  0.0109  0.0005  0.2040
 6438W        W22332  14.084   4.691   3.665  0.2600  0.0835  0.0897
 6439W        W22333   4.801   3.750   2.973 -0.1135  0.1398  0.2851
 6440W        W22334   1.155   6.313   3.004  0.1255  0.2746  0.0337
 6441W        W22335   3.714  17.548   1.119 -0.0247 -0.3802  0.2030
 6442W        W22336   5.782   7.322  15.652  0.1696  0.0224  0.1955
 6443W        W22337   6.141   4.616   3.063  0.0081  0.1710  0.0036
 6444W        W22338   8.385  16.516   1.449 -0.0625  0.1576  0.1147
 6445W        W22339   3.679  13.154   2.884 -0.0158 -0.0514  0.3640
 6446W        W22340   6.887   9.701  14.253 -0.0330  0.0781 -0.1089
 6447W        W22341  13.584  10.860  12.597 -0.0098  0.0507  0.0741
 6448W        W22342  12.275   1.614   0.953  0.2584  0.0118 -0.2120
 6449W        W22343  11.273   4.507   3.744 -0.3341  0.0273  0.0547
 6450W        W22344  10.650   0.016  13.054 -0.2049 -0.2497 -0.4385
 6451W        W22345   9.380   4.698   4.713  0.1297  0.3101 -0.1610
 6452W        W22346   6.240   5.235   4.338  0.0247  0.2546  0.0163
 6453W        W22347  15.758   4.774   5.844  0.1244  0.0487 -0.0331
 6454W        W22348   9.857   7.829  13.868 -0.0076 -0.1616  0.0095
 6455W        W22349  14.639  16.431   1.683  0.2606  0.0410 -0.0340
 6456W        W22350  12.712  15.359   2.496 -0.0919 -0.4209  0.2163
 6457W        W22351  10.345  17.349  15.436 -0.0778 -0.3690  0.0449
 6458W        W22352  13.680   3.693   3.572  0.1924  0.3073 -0.0051
 6459W        W22353  16.470   1.796   0.130 -0.0559 -0.3521 -0.1136
 6460W        W22354  10.545   4.304   2.098 -0.0779 -0.1080 -0.3479
 6461W        W22355  15.325  16.344  13.811  0.3247  0.1196  0.1497
 6462W        W22356   8.086  15.116  16.341  0.2746 -0.0618  0.1844
 6463W        W22357   4.323   3.930  16.058  0.3470 -0.0672 -0.1917
 6464W        W22358  15.868  14.050   2.574 -0.2190  0.0536 -0.1280
 6465W        W22359  10.612  12.222  15.791 -0.1288  0.0959  0.3929
 6466W        W22360   2.370   8.560   1.087 -0.0086 -0.0751  0.0891
 6467W        W22361   9.236   2.072   3.376 -0.2063  0.0651 -0.0871
 6468W        W22362   0.098  16.212   2.536  0.1340 -0.0842 -0.0705
 6469W        W22363   2.795  11.313   2.903  0.0003 -0.0034 -0.0739
 6470W        W22364  11.342   1.123  16.411 -0.1720 -0.1692  0.0265
 6471W        W22365  17.826   4.319  13.154 -0.3518 -0.2985 -0.3527
 6472W        W22366  14.998  13.392   1.490  0.0601  0.0065  0.2535
 6473W        W22367   9.325   6.497   3.916 -0.1652 -0.0028 -0.1172
 6474W        W22368  17.204  14.728   0.131  0.1511 -0.4455 -0.0705
 6475W        W22369   6.127  10.904   2.509 -0.3138 -0.0056  0.1185
 6476W        W22370  17.088   7.036  16.228  0.0745 -0.2950  0.0013
 6477W        W22371   4.037  10.057  13.664 -0.4352  0.0644 -0.0015
 6478W        W22372  12.502  12.132   4.195 -0.0806 -0.2633  0.0507
 6479W        W22373  14.823  13.147   2.854 -0.3252 -0.2830  0.2335
 6480W        W22374  12.840   7.046  14.593 -0.1624  0.0086  0.3634
 6481W        W22375  11.272  15.573  12.371 -0.0290  0.0802  0.1544
 6482W        W22376   8.163  12.902  15.192 -0.4099 -0.0347  0.0418
 6483W        W22377   7.652  12.643   2.133 -0.0191  0.1901 -0.0459
 6484W        W22378  16.242   7.622  14.521 -0.0954  0.0738  0.0377
 6485W        W22379   3.706   4.880   6.004 -0.0807  0.1880  0.2070
 6486W        W22380  16.102   3.954   5.707  0.1929  0.4962  0.1974
 6487W        W22381  16.253   9.665  15.372  0.0584 -0.1252 -0.2194
 6488W        W22382   8.995  11.562  11.471 -0.2924  0.4130 -0.1373
 6489W        W22383  13.599   4.352  14.984 -0.0476  0.1426 -0.0398
 6490W        W22384  11.124   7.672  16.314  0.0762 -0.2388 -0.0176
 6491W        W22385  10.454  13.707   4.285 -0.1597  0.2774  0.1251
 6492W        W22386   8.388  12.419   0.573  0.1377  0.0003 -0.2047
 6493W        W22387  10.368   6.018  16.921  0.2428  0.0941  0.1887
 6494W        W22388  13.917   7.693  15.191  0.2680 -0.0252  0.1923
 6495W        W22389  15.726  12.714  14.164 -0.0296  0.1501  0.1569
 6496W        W22390   4.095   8.128   3.577  0.0034 -0.3644 -0.0066
 6497W        W22391  17.402   4.062   2.587  0.2167 -0.4294 -0.5244
 6498W        W22392  12.035   3.685  16.107 -0.0046 -0.1651 -0.1637
 6499W        W22393   1.783   9.180   5.366 -0.0975 -0.4495  0.1052
 6500W        W22394  11.856   7.308   3.211 -0.1387 -0.4639  0.0505
 6501W        W22395  10.029   0.632  12.131  0.0003  0.1360 -0.3503
 6502W        W22396   9.015   1.907   2.311  0.0508 -0.1732  0.0073
 6503W        W22397  16.975  10.236  13.155  0.0942  0.3278 -0.1922
 6504W        W22398   0.822  14.819  12.811  0.0304 -0.2311  0.2512
 6505W        W22399  16.574  16.815  13.073  0.0780  0.0149 -0.1078
 6506W        W22400   2.281   8.094   4.575 -0.1173 -0.2702  0.1185
 6507W        W22401  10.789  11.620  13.283  0.0784 -0.1994  0.0584
 6508W        W22402   8.727   2.421  16.489 -0.0569 -0.2368  0.1497
 6509W        W22403   8.370   7.308  14.478 -0.0748 -0.0814  0.2974
 6510W        W22404   8.360   7.488   3.968 -0.4302 -0.1692 -0.1264
 6511W        W22405  11.716   3.507   2.343 -0.0550 -0.1203 -0.0750
 6512W        W22406  16.010  12.290  12.250 -0.0392 -0.1156  0.0524
 6513W        W22407   9.594  11.467  15.051 -0.0935 -0.1182 -0.1017
 6514W        W22408   8.195  12.567  14.218  0.2140 -0.2597  0.0037
 6515W        W22409  12.007   6.536  13.504  0.1721 -0.4088  0.2842
 6516W        W22410   7.305   7.473  15.446  0.0017 -0.0410  0.0696
 6517W        W22411  11.476  14.001  13.775  0.1553 -0.1087  0.1539
 6518W        W22412  14.513   6.625   2.254  0.4524 -0.0156 -0.2504
 6519W        W22413   5.362  15.021   0.561  0.1196 -0.1579 -0.2034
 6520W        W22414   0.226  14.198  11.701  0.1390 -0.0359 -0.1560
 6521W        W22415   0.826   4.395  16.590 -0.3709 -0.1361 -0.1092
 6522W        W22416   5.664   3.412   0.515  0.0895  0.2225 -0.0867
 6523W        W22417  12.624   7.830  16.212 -0.0054 -0.0279  0.0250
 6524W        W22418  11.666  14.806  15.215 -0.1985 -0.1335  0.1218
 6525W        W22419   6.595  13.122  16.216 -0.1665 -0.0620  0.0623
 6526W        W22420   6.685   9.644  14.730 -0.1621 -0.1886  0.3215
 6527W        W22421  17.226   9.274  15.520  0.1534  0.1971  0.0566
 6528W        W22422   8.288   7.468   1.369 -0.0741  0.0472  0.0401
 6529W        W22423  16.966  11.480  15.435  0.0676 -0.3305 -0.0980
 6530W        W22424   4.187  16.332   0.293  0.0815 -0.0695 -0.0319
 6531W        W22425  15.923   0.899  15.506 -0.1420  0.0907 -0.0944
 6532W        W22426  14.169   3.382   3.837  0.1894  0.1309  0.0710
 6533W        W22427  11.638   3.695  13.240 -0.3489  0.2768  0.0589
 6534W        W22428   6.677  13.620  16.156  0.0681 -0.0068  0.0486
 6535W        W22429  13.055  11.285  15.563  0.0633  0.1237 -0.0527
 6536W        W22430  12.215  16.346   2.462 -0.0339 -0.1642 -0.2911
 6537W        W22431   7.657   8.154  14.298 -0.1108 -0.0025  0.1495
 6538W        W22432   3.709  14.400   4.377  0.0186  0.0193 -0.0123
 6539W        W22433  15.865   4.979   1.877  0.0408  0.2251  0.1118
 6540W        W22434  11.875  12.437   1.005  0.1155  0.4542  0.0730
 6541W        W22435  13.128   0.835  14.679  0.0547  0.5528 -0.0237
 6542W        W22436   3.721  10.426   1.880  0.1981 -0.0048  0.1219
 6543W        W22437  16.757   8.991  16.338 -0.3276  0.2201  0.1788
 6544W        W22438   9.461   5.179   3.865 -0.1732 -0.2402  0.1712
 6545W        W22439   2.260  16.015  13.673  0.2381 -0.0637 -0.0471
 6546W        W22440   8.147  16.813   3.738 -0.0210  0.1687  0.1138
 6547W        W22441   0.217  15.937   1.028  0.1530 -0.2036 -0.1246
 6548W        W22442   9.562  14.502  13.895  0.0416  0.1875 -0.0173
 6549W        W22443   0.308   4.734  13.134 -0.1094 -0.2009 -0.1755
 6550W        W22444  13.883  14.592   3.791 -0.0988  0.0633 -0.1108
 6551W        W22445  16.115   1.931   4.225  0.1042  0.1161  0.0862
 6552W        W22446   4.112   8.398   2.312 -0.2861  0.1922 -0.2393
 6553W        W22447   7.126   5.633   5.604 -0.0395 -0.3218 -0.1891
 6554W        W22448   1.073   2.839   0.756  0.0261 -0.1385 -0.0354
 6555W        W22449   6.450   5.658  15.366 -0.0452 -0.2085 -0.1382
 6556W        W22450  12.961  10.513   5.391  0.0076  0.0613  0.0385
 6557W        W22451   9.657   3.040  13.905  0.2428 -0.1903  0.1209
 6558W        W22452   9.417   7.856  12.272 -0.1392  0.0205 -0.3083
 6559W        W22453   6.668   8.836   5.447 -0.1915  0.0196 -0.0235
 6560W        W22454  11.499   3.489   3.578  0.1611 -0.2998  0.0097
 6561W        W22455  13.102   0.728  12.775  0.0132  0.1265  0.0842
 6562W        W22456  14.923   7.037   3.529  0.1374 -0.0855 -0.1185
 6563W        W22457   9.819  13.481   2.011  0.1042 -0.1710 -0.3224
 6564W        W22458  12.963   3.055   1.253 -0.2197 -0.2171  0.1113
 6565W        W22459  14.586  15.642   3.663  0.2097  0.0651 -0.1814
 6566W        W22460   8.278  17.008  12.296 -0.0855  0.1142 -0.0460
 6567W        W22461  16.466   1.239  14.362  0.0589 -0.1630  0.1416
 6568W        W22462   9.327  14.408  13.405 -0.1489 -0.0537  0.0269
 6569W        W22463  14.147  13.323  13.784  0.2407  0.0843 -0.0855
 6570W        W22464  14.053  17.505   1.272  0.0779 -0.0897  0.0306
 6571W        W22465   4.196  17.370  11.909 -0.1628 -0.1157  0.1261
 6572W        W22466  15.379   1.018   2.791  0.1337  0.2590  0.0421
 6573W        W22467  12.950   7.296   0.977 -0.2265  0.2592  0.0599
 6574W        W22468   7.774   7.324  12.027 -0.0191 -0.0387 -0.0129
 6575W        W22469  10.546   8.503  15.257 -0.1331  0.0061  0.1639
 6576W        W22470   8.653   4.675  15.755  0.1801 -0.1402  0.0469
 6577W        W22471  12.349   4.459   6.128  0.0772  0.0432  0.1558
 6578W        W22472  14.393  11.213   2.041  0.0025 -0.1683  0.2315
 6579W        W22473  17.056   9.092   3.437 -0.0320  0.2661  0.2700
 6580W        W22474   3.065  15.382   5.323  0.0391 -0.1669 -0.0447
 6581W        W22475   0.568   5.438   0.463 -0.2995  0.1004  0.1622
 6582W        W22476  10.384   6.526  16.844  0.1918  0.2695  0.1337
 6583W        W22477  12.422  10.192   4.178 -0.1863  0.3401  0.0765
 6584W        W22478   8.250   1.843  12.123 -0.0787  0.1089  0.3071
 6585W        W22479  14.334  12.007   6.456  0.1339 -0.0314  0.1359
 6586W        W22480   7.112   6.663  16.786  0.0300  0.1796  0.3449
 6587W        W22481   4.247  14.949  16.393  0.3097 -0.0644 -0.1552
 6588W        W22482  12.620   7.189   2.124  0.2466 -0.0166 -0.0835
 6589W        W22483   8.568  16.043   1.312  0.1669 -0.1508 -0.1140
 6590W        W22484  10.624   5.977   5.333 -0.0800  0.1749 -0.0571
 6591W        W22485  12.865   1.794  11.357 -0.1301 -0.1680  0.0237
 6592W        W22486   9.090   7.388   0.159  0.1313  0.0858 -0.1606
 6593W        W22487   7.684   2.699  14.039  0.0868  0.1889  0.0157
 6594W        W22488   0.655  17.010   1.053 -0.2001  0.3324 -0.0774
 6595W        W22489  11.679   4.365   5.114  0.0164  0.1077  0.0853
 6596W        W22490   1.866   1.348   2.685 -0.1877  0.2052 -0.2588
 6597W        W22491  14.538  13.749   5.542 -0.1210  0.0036 -0.1262
 6598W        W22492   5.357   6.539  12.127  0.2724 -0.1101  0.2101
 6599W        W22493   9.063   6.174   2.782 -0.1687 -0.2011  0.0643
 6600W        W22494   0.770   6.192   3.319  0.0719  0.0043  0.1939
 6601W        W22495  11.935   6.023  13.478  0.2386  0.1151  0.1221
 6602W        W22496  12.544  14.507   5.892  0.0835 -0.1130  0.1368
 6603W        W22497   9.825   3.874   2.038  0.3149 -0.2165  0.0797
 6604W        W22498   0.245   8.597  13.657  0.0739  0.2796  0.1499
 6605W        W22499   5.993  14.138  15.171  0.2121  0.0762 -0.0702
 6606W        W22500  14.711  16.281  12.731  0.0495  0.1987  0.3315
 6607W        W22501  11.786   5.204  11.961 -0.2114  0.0464  0.1627
 6608W        W22502   5.714   6.345   0.515  0.1269 -0.2267 -0.2800
 6609W        W22503   3.995  10.812   4.766 -0.0506  0.2893  0.0993
 6610W        W22504  13.386   3.998  14.733 -0.1862 -0.1220  0.1202
 6611W        W22505   5.335  10.870   4.918  0.1970 -0.1834 -0.0882
 6612W        W22506  10.787  16.342   2.495  0.2887  0.0978 -0.0435
 6613W        W22507  11.735   1.102   1.072 -0.1065  0.0880  0.0981
 6614W        W22508  12.596   8.262   0.008  0.2204 -0.0324 -0.1738
 6615W        W22509   0.324   0.005   2.001 -0.0451 -0.2231 -0.2695
 6616W        W22510  10.267   1.919  11.838  0.1969  0.2560  0.1818
 6617W        W22511  16.393  11.835   1.408 -0.0199  0.0154 -0.0504
 6618W        W22512   4.107  15.772  16.818 -0.2578  0.0527  0.0197
 6619W        W22513  10.464   8.636  15.751 -0.0058 -0.0107  0.0888
 6620W        W22514  16.023   3.915   1.462 -0.0860  0.1275 -0.1155
 6621W        W22515   7.502  17.753  14.787 -0.1620 -0.2243  0.3714
 6622W        W22516  13.580   7.031   5.289 -0.2674  0.1243 -0.0786
 6623W        W22517  14.076   8.264   2.481  0.0028  0.0126  0.3409
 6624W        W22518  17.815  12.314   6.045 -0.1847  0.1597 -0.3109
 6625W        W22519  12.939   0.098  10.910 -0.2610 -0.0465  0.1252
 6626W        W22520  10.636   6.919  16.624 -0.1141 -0.3180  0.2032
 6627W        W22521   5.903   9.487  14.372  0.3125 -0.0589  0.0640
 6628W        W22522  16.877  12.193   5.866 -0.1598 -0.1952 -0.1583
 6629W        W22523  11.947   4.977  10.413 -0.1922  0.1883 -0.1732
 6630W        W22524  12.654  13.885  11.544  0.3093 -0.0428 -0.1316
 6631W        W22525  16.700   5.564   1.799  0.2985 -0.0975  0.2383
 6632W        W22526   7.162   9.003   1.512  0.0112 -0.1269  0.2744
 6633W        W22527   9.118  13.769   1.795  0.2401  0.3067  0.1609
 6634W        W22528   8.305   9.726   2.877  0.1269 -0.1549  0.0217
 6635W        W22529   2.719  10.887   4.298  0.0563 -0.1109 -0.0837
 6636W        W22530   3.644   1.598  15.302  0.0276  0.0401 -0.2916
 6637W        W22531   8.495  16.349   2.804 -0.2001 -0.1214  0.2571
 6638W        W22532   8.347  11.157  15.125  0.1207 -0.0369  0.0298
 6639W        W22533  16.322   1.641   4.819  0.0438 -0.1660 -0.1205
 6640W        W22534   1.592  13.163  12.140 -0.0598  0.1185  0.0204
 6641W        W22535  16.481   1.609   1.802  0.0896 -0.3927  0.0170
 6642W        W22536   3.867  13.482   2.542  0.3837  0.2801 -0.1201
 6643W        W22537  12.409  14.667   1.940 -0.1455  0.1185  0.0613
 6644W        W22538   2.031  10.646   5.632 -0.0469  0.2731  0.0699
 6645W        W22539  16.205   4.223   1.954  0.0177 -0.1623  0.4008
 6646W        W22540   1.747  10.737   0.118  0.0027  0.0782 -0.1007
 6647W        W22541  14.705  15.108   0.350  0.0159 -0.0460 -0.0130
 6648W        W22542  17.586   2.332  12.728 -0.1813  0.0947 -0.2424
 6649W        W22543   2.581   0.865   5.511 -0.4338  0.1716  0.0494
 6650W        W22544  16.746  13.992  13.623 -0.1133 -0.0171  0.2049
 6651W        W22545   3.874   4.395   4.223 -0.0894  0.1353  0.2506
 6652W        W22546   7.010   3.237   4.034  0.1903 -0.3706  0.2753
 6653W        W22547  12.304   9.925   1.189  0.0749  0.0657  0.0047
 6654W        W22548  14.349  17.786  14.713 -0.2100  0.0648  0.0576
 6655W        W22549   0.712   5.298   5.605  0.0025  0.3642 -0.3921
 6656W        W22550  10.221   7.317  13.788 -0.0363  0.0789  0.3401
 6657W        W22551  15.144   7.398  13.162 -0.2079 -0.0736 -0.0001
 6658W        W22552   1.927   6.891  13.966  0.3268 -0.4198  0.1486
 6659W        W22553   4.083   3.799   0.637 -0.0439 -0.0594  0.0335
 6660W        W22554   4.067  12.802   4.440 -0.3531  0.3722  0.0998
 6661W        W22555   6.881   4.315  16.591 -0.0100 -0.0652 -0.0336
 6662W        W22556  15.960  13.865  12.498 -0.0443 -0.0858 -0.1413
 6663W        W22557   8.397   9.167  16.417 -0.1513 -0.2725  0.1215
 6664W        W22558  13.603  13.052   0.325 -0.0505 -0.1637  0.0702
 6665W        W22559  10.907   3.238   5.564 -0.0043 -0.1705  0.0344
 6666W        W22560  15.809   4.537   4.010 -0.0619 -0.0185  0.2946
 6667W        W22561  12.089  16.888   2.234 -0.1476 -0.0232  0.0743
 6668W        W22562  17.221   1.485  11.487 -0.4425 -0.1590  0.1067
 6669W        W22563   3.323  16.247   3.543 -0.0783 -0.0597 -0.0436
 6670W        W22564   6.751   6.741  15.849 -0.2307  0.0496 -0.0245
 6671W        W22565  15.644   5.079  13.823  0.0439 -0.3367 -0.2434
 6672W        W22566   6.083   8.732  16.839 -0.1500  0.1722 -0.0457
 6673W        W22567  15.792   0.112   2.929  0.0514 -0.0773 -0.2638
 6674W        W22568  11.287   0.780  14.487  0.1014 -0.0239  0.1190
 6675W        W22569  13.104   3.123  15.416 -0.1011 -0.2553  0.0433
 6676W        W22570   0.605   8.451  16.235  0.1906  0.1141 -0.2964
 6677W        W22571   7.792   3.775   3.009 -0.0939 -0.2137  0.1420
 6678W        W22572  11.249  10.275  12.516 -0.2231 -0.1768  0.1234
 6679W        W22573   5.703  13.675   3.415 -0.0166  0.0725  0.1517
 6680W        W22574  12.147   3.634   2.146  0.0570  0.3024 -0.1157
 6681W        W22575   1.433  15.205  15.457  0.1196  0.1785  0.0466
 6682W        W22576  11.849  14.825   6.328 -0.3608  0.2543  0.1375
 6683W        W22577  10.817   4.304   4.920  0.0994 -0.0892  0.1578
 6684W        W22578  13.067   5.365   2.859  0.2011 -0.1468 -0.2156
 6685W        W22579  10.502  16.640  13.471  0.1064  0.1674  0.2747
 6686W        W22580  16.921  15.472  12.414  0.0067 -0.1934  0.0664
 6687W        W22581  15.397  11.603   2.164 -0.0169 -0.1585  0.3383
 6688W        W22582   5.840   4.102  14.090  0.0932  0.4006  0.0607
 6689W        W22583  16.636   7.045  13.571 -0.1511  0.1634 -0.0316
 6690W        W22584   0.229   1.830   3.508 -0.0121  0.0338 -0.4048
 6691W        W22585   3.121  11.610  15.264 -0.0332  0.1904 -0.2474
 6692W        W22586   8.284   0.659  16.483  0.1051  0.0776  0.0707
 6693W        W22587   6.991  11.942  15.764  0.1770 -0.0397  0.1043
 6694W        W22588   4.955  10.135   4.559 -0.1828 -0.1394  0.1436
 6695W        W22589  11.574   8.324   6.226 -0.1912  0.1779 -0.0303
 6696W        W22590   7.262  15.464  16.598 -0.1346  0.0446  0.0924
 6697W        W22591  10.391   6.705   0.543 -0.1110 -0.1877  0.2852
 6698W        W22592   0.871   2.284   4.526  0.0258  0.1795 -0.0484
 6699W        W22593   9.055  11.428  11.970 -0.2088  0.1455  0.2304
 6700W        W22594   1.229  13.239   1.462 -0.0507  0.2613 -0.2926
 6701W        W22595   8.150   7.269   5.994  0.0331  0.4578  0.0172
 6702W        W22596   1.500  11.828   2.982  0.0394  0.1929 -0.0139
 6703W        W22597  10.137   1.755  14.741  0.0795  0.1588  0.0513
 6704W        W22598  13.852   4.141  12.174 -0.1544  0.1761 -0.1028
 6705W        W22599   6.477  15.418   1.451 -0.1310  0.2633  0.1553
 6706W        W22600  10.622  13.810  16.707 -0.0610  0.0486  0.0772
 6707W        W22601  10.900  12.924   4.914  0.1412 -0.2141  0.0940
 6708W        W22602   8.382  10.413   2.062 -0.2088  0.0479  0.0106
 6709W        W22603  10.204  17.295  11.965 -0.0665  0.0379  0.0491
 6710W        W22604   5.193   6.530   5.107  0.1867 -0.0838 -0.1478
 6711W        W22605   0.514   3.112   1.379  0.0814  0.0670  0.0886
 6712W        W22606   1.676   8.958  15.985  0.0414  0.1865 -0.1552
 6713W        W22607  10.130  17.035  14.646  0.0010  0.1697  0.1574
 6714W        W22608  15.252  13.098   1.795 -0.2095 -0.3101 -0.1125
 6715W        W22609   9.191   0.469   4.512 -0.0417  0.2456  0.0911
 6716W        W22610   0.042  15.769   1.485 -0.0375 -0.0092 -0.0732
 6717W        W22611   9.524   5.371   2.896 -0.2096  0.0447 -0.0246
 6718W        W22612  11.460   6.252   1.863  0.2596  0.0017 -0.2012
 6719W        W22613  13.060  11.101  13.073 -0.1195  0.2301 -0.1359
 6720W        W22614   5.619  16.138   4.912  0.3575  0.1087 -0.0587
 6721W        W22615   4.896   2.121  11.899  0.1007 -0.0986 -0.0793
 6722W        W22616  15.707  14.702   0.279 -0.0785 -0.0736  0.0636
 6723W        W22617   4.079   5.892  15.892 -0.0120 -0.1125  0.1587
 6724W        W22618   5.836  14.546   1.753 -0.2483  0.2260 -0.0879
 6725W        W22619   6.518  12.858  12.599  0.0982  0.0500 -0.1784
 6726W        W22620  15.455   9.918  13.064  0.1066 -0.2306  0.1965
 6727W        W22621  10.179  16.848  15.115 -0.0695  0.0041 -0.0673
 6728W        W22622   9.535   6.369  14.810  0.0467  0.1874  0.1673
 6729W        W22623   3.243  15.572   1.533 -0.1429 -0.0514 -0.0714
 6730W        W22624   5.821   8.766   2.507  0.1216  0.3557  0.0533
 6731W        W22625  10.979  16.603  13.558  0.1928 -0.1675 -0.2188
 6732W        W22626   2.922   1.362   5.156  0.2156  0.2627  0.1855
 6733W        W22627   4.338   2.022   4.867  0.1958 -0.4399 -0.0886
 6734W        W22628   2.282   0.951   1.626  0.1891 -0.2937  0.1508
 6735W        W22629  10.878  12.497   3.626  0.0026 -0.3179  0.1390
 6736W        W22630  11.131   9.228  16.516 -0.0474  0.0480 -0.1464
 6737W        W22631   8.254  17.301   2.975 -0.0829 -0.0090 -0.0512
 6738W        W22632   4.881  15.489   4.079 -0.1407  0.0665  0.0220
 6739W        W22633  10.661  11.018   3.062 -0.1412  0.0016 -0.0261
 6740W        W22634   3.642  11.894  14.582  0.0001 -0.1386 -0.0519
 6741W        W22635   9.059   6.973   2.942 -0.0189  0.1037 -0.5908
 6742W        W22636  11.141  10.684  15.095  0.0559  0.0286  0.1572
 6743W        W22637   8.572   0.400  16.841  0.3668  0.0972  0.2388
 6744W        W22638   9.217  12.039  16.247  0.0261  0.0932 -0.1635
 6745W        W22639  15.531  11.886   6.469  0.0536 -0.1663  0.0033
 6746W        W22640   5.046   7.295  13.386  0.1131  0.1163  0.1668
 6747W        W22641   6.941  12.878  14.194  0.0076  0.2530 -0.0865
 6748W        W22642  15.980   5.962  14.179 -0.3875  0.1061 -0.0026
 6749W        W22643   3.391   8.451  16.079  0.0978  0.0208  0.1818
 6750W        W22644   6.991  10.247  16.548 -0.3359  0.1530  0.0599
 6751W        W22645   8.633   2.467   1.058  0.4908  0.1459  0.1481
 6752W        W22646   3.668   9.267   0.885 -0.2187  0.3080 -0.1805
 6753W        W22647  12.862   3.669  11.257  0.0097 -0.0936 -0.0447
 6754W        W22648  15.901  16.195  15.092 -0.1128  0.0591  0.2469
 6755W        W22649  15.088   1.736   0.342  0.0121 -0.1708 -0.0290
 6756W        W22650   9.794   0.653  16.487  0.0566 -0.3438 -0.3037
 6757W        W22651   0.069   3.034   2.825  0.2057  0.1056 -0.0220
 6758W        W22652   1.439  16.879   4.138  0.0591  0.0749 -0.1000
 6759W        W22653  17.553  17.035   3.627 -0.1249  0.0796  0.1440
 6760W        W22654   2.236   7.210   0.314 -0.0714 -0.3179  0.0462
 6761W        W22655   3.216   4.463  13.678  0.0960 -0.3198 -0.0468
 6762W        W22656  11.947   0.670   4.929 -0.0872 -0.0778  0.0762
 6763W        W22657  16.467  14.145   4.831  0.1338  0.0612  0.0387
 6764W        W22658   4.807   1.476  14.623 -0.1531  0.0919  0.0782
 6765W        W22659   0.747  10.940  14.825  0.3797 -0.1021  0.2677
 6766W        W22660  12.404   8.061   0.826  0.0612  0.1687 -0.4636
 6767W        W22661  15.893   5.250   5.764 -0.0412  0.0677 -0.0150
 6768W        W22662   7.615  17.241   4.355 -0.0562  0.3089  0.1392
 6769W        W22663  13.162   0.558  15.626  0.1087 -0.0083  0.0084
 6770W        W22664  10.228  11.493  12.073 -0.0417  0.0806  0.0429
 6771W        W22665   6.030  10.235   0.875  0.1801  0.1836  0.1276
 6772W        W22666   0.154   4.283   1.787  0.1758 -0.4210  0.0015
 6773W        W22667  16.331   4.947   5.658  0.1792 -0.0046  0.0739
 6774W        W22668   5.963  13.702  16.691 -0.0241  0.2043  0.1742
 6775W        W22669   9.613  15.948  14.986 -0.2073  0.0763 -0.2160
 6776W        W22670  11.443   9.139   3.644 -0.2990 -0.2082 -0.1013
 6777W        W22671  14.227   5.317   4.035  0.1930 -0.3308  0.1895
 6778W        W22672  11.536  12.715   1.215 -0.1087  0.2685 -0.1382
 6779W        W22673   4.601   3.511   0.480  0.0721  0.2105  0.1182
 6780W        W22674  12.641   6.091   0.312  0.2142 -0.4397 -0.1019
 6781W        W22675  16.595   6.548  13.793  0.2017 -0.0452  0.2318
 6782W        W22676  14.467  12.450   5.515 -0.0406  0.3020 -0.2828
 6783W        W22677   7.238  13.100  11.915 -0.3724 -0.1062  0.0971
 6784W        W22678  12.451   8.642  12.178  0.1621 -0.0725 -0.0730
 6785W        W22679  15.766  16.719   5.461  0.1023 -0.0326  0.0214
 6786W        W22680   1.974  14.782   5.818 -0.2371 -0.1657 -0.0013
 6787W        W22681  16.885  14.555  12.116 -0.1551  0.1845 -0.4339
 6788W        W22682  15.228   9.616  12.548  0.1800  0.1991 -0.2799
 6789W        W22683  14.693   4.041   3.416  0.0058  0.4890 -0.0782
 6790W        W22684   5.212  16.826   0.868  0.1231 -0.2874 -0.1221
 6791W        W22685  17.837   9.808   3.626  0.0496  0.3063 -0.2369
 6792W        W22686   5.630   7.442  15.204 -0.1131 -0.0524 -0.1390
 6793W        W22687   4.463   6.716   5.345 -0.1970  0.0200  0.2672
 6794W        W22688   9.634   3.851   3.463  0.0339  0.1602 -0.0055
 6795W        W22689   0.986   2.165   1.917 -0.1412 -0.1803  0.0510
 6796W        W22690   3.001   1.874  12.071  0.0697  0.0833  0.1571
 6797W        W22691   1.126   1.274  15.774  0.2933  0.2931 -0.1813
 6798W        W22692  11.434   0.087   2.737  0.2218 -0.4764 -0.3294
 6799W        W22693   3.697  17.147   2.429 -0.2681  0.0555 -0.0939
 6800W        W22694   5.266   1.196  15.996 -0.0043 -0.1619 -0.1589
 6801W        W22695   1.136   9.373  15.545  0.1808  0.1009  0.0732
 6802W        W22696   5.237   5.184   4.805  0.1172 -0.1837 -0.2601
 6803W        W22697  13.996   9.359  16.844  0.1266 -0.0082 -0.0212
 6804W        W22698   1.677   5.873  11.465  0.0236  0.2746 -0.0621
 6805W        W22699  15.879  13.842   1.744 -0.0160 -0.0454 -0.0699
 6806W        W22700   6.308  17.616   2.925  0.1737  0.2007  0.1694
 6807W        W22701   2.891  11.985   4.810 -0.0240  0.2403  0.2124
 6808W        W22702  14.643   6.641  14.190  0.2308 -0.0158 -0.0909
 6809W        W22703   5.939   9.211  11.724  0.1246 -0.1715  0.1378
 6810W        W22704  10.402   7.300  16.843 -0.1263 -0.0799 -0.0843
 6811W        W22705  17.170   2.596  16.859  0.4371 -0.1695 -0.2774
 6812W        W22706   9.285   0.478  11.970  0.0965  0.4367  0.2080
 6813W        W22707  17.531  11.086   2.778 -0.0058 -0.0939 -0.1701
 6814W        W22708   0.959  15.663  14.817 -0.0637  0.0710  0.1532
 6815W        W22709  11.064   1.861  14.889  0.0302 -0.1449 -0.1740
 6816W        W22710  14.151  16.598   1.995  0.4480 -0.1083  0.4358
 6817W        W22711  12.960   9.557   0.843  0.3236  0.2194  0.0298
 6818W        W22712   7.907  12.595   0.686  0.2046  0.1713  0.1430
 6819W        W22713  17.528  16.627  15.218 -0.0991  0.2515  0.3062
 6820W        W22714   5.086   8.804  12.793 -0.0979  0.1867 -0.0264
 6821W        W22715  13.413   0.043  14.151 -0.2622 -0.0792  0.0870
 6822W        W22716   1.049  17.374  15.477 -0.2745 -0.0136 -0.0724
 6823W        W22717   7.215  17.062   3.000  0.1420  0.2576  0.0185
 6824W        W22718   5.180  11.650  12.675 -0.2494  0.0646 -0.0674
 6825W        W22719   8.336   3.607  12.790 -0.1136 -0.0065  0.2678
 6826W        W22720  14.707   1.944   5.111  0.0994  0.2195 -0.1368
 6827W        W22721   6.340  13.582  12.136  0.1020  0.3653  0.1981
 6828W        W22722   9.034   2.065  10.599  0.1566  0.0938 -0.2000
 6829W        W22723  15.677  17.413  14.628 -0.0263  0.0786  0.0352
 6830W        W22724  11.580   2.774   5.969 -0.0540 -0.2261  0.0441
 6831W        W22725   2.978  13.994  15.526 -0.0431 -0.2258 -0.0408
 6832W        W22726  16.632  14.578  14.782  0.3346 -0.2479 -0.0125
 6833W        W22727  12.188   8.767   1.590  0.2455  0.1102  0.0823
 6834W        W22728   0.813  17.234  16.102  0.0067  0.3066 -0.0803
 6835W        W22729   5.633   3.473  12.655  0.1274  0.0953  0.1347
 6836W        W22730  12.281   1.702  11.973  0.0233  0.0370  0.0665
 6837W        W22731   5.210  11.300   2.270 -0.1651 -0.0412  0.0204
 6838W        W22732  16.482   4.876   3.593  0.1178  0.3021 -0.0276
 6839W        W22733  16.322   0.934   1.767 -0.0345 -0.0512  0.3287
 6840W        W22734  15.247   8.790   3.874  0.0371 -0.0584  0.2199
 6841W        W22735  14.352   1.898  15.534  0.1150 -0.3190  0.2028
 6842W        W22736   1.719   5.180  11.951 -0.0261  0.0238  0.1327
 6843W        W22737  11.867  15.572  13.244 -0.1168 -0.1197 -0.2631
 6844W        W22738  14.199   0.791   5.308  0.2231  0.2231  0.0850
 6845W        W22739   1.896   3.672   6.154  0.4920 -0.1427 -0.0593
 6846W        W22740   7.302  15.650  14.736  0.0371  0.1056  0.0437
 6847W        W22741   3.692  13.929   2.418  0.0027 -0.0663 -0.3509
 6848W        W22742   9.285   8.369   4.411 -0.0514  0.2590 -0.1218
 6849W        W22743   1.069   9.293  16.464 -0.0616 -0.1625 -0.2160
 6850W        W22744   6.417   6.287   5.420  0.3227 -0.0999 -0.1606
 6851W        W22745  15.879  17.726  12.295  0.0194 -0.2031 -0.2221
 6852W        W22746  17.775   8.141  16.849  0.1891 -0.0219 -0.2179
 6853W        W22747  15.872   5.970  16.671 -0.2887 -0.0334 -0.1199
 6854W        W22748  11.918  17.092   4.946 -0.1294 -0.0464  0.0656
 6855W        W22749  14.221  16.255  12.619  0.0963 -0.0261  0.1744
 6856W        W22750   1.040  15.852   1.070  0.2885  0.0765  0.0747
 6857W        W22751   1.422  10.923  15.381  0.0770 -0.1738 -0.2527
 6858W        W22752  11.673  10.462   0.045  0.3416  0.1252  0.2282
 6859W        W22753   1.467   3.411  11.966 -0.0250 -0.2189  0.1378
 6860W        W22754   5.132  11.347   3.872  0.0847  0.2279  0.0693
 6861W        W22755  15.663  13.542   5.996  0.0614  0.1027  0.1076
 6862W        W22756  15.399  13.021  13.625  0.0154  0.2147  0.0829
 6863W        W22757   0.825  11.344   5.712 -0.1499  0.1101  0.0182
 6864W        W22758  14.519   1.499  11.723 -0.0395  0.0131 -0.0184
 6865W        W22759   5.178  10.263  11.801  0.1379 -0.0169  0.1473
 6866W        W22760   5.266  17.725   1.417  0.0065 -0.1291  0.0184
 6867W        W22761   4.491   3.546  14.799  0.1247  0.2330 -0.0038
 6868W        W22762   1.410   9.425  14.310 -0.2823 -0.2117  0.1178
 6869W        W22763   0.324  11.337   5.821  0.1271 -0.0227  0.0999
 6870W        W22764   0.646   2.997  12.150 -0.0742 -0.1429 -0.1508
 6871W        W22765   0.385   1.427   0.723 -0.3874  0.1076  0.3013
 6872W        W22766   6.512  11.648  15.990 -0.3014 -0.0234 -0.0576
 6873W        W22767  17.444   4.632   0.997  0.0739 -0.1773  0.2777
 6874W        W22768   6.552   4.316   1.392 -0.3033 -0.1854  0.1229
 6875W        W22769   0.493   0.368   1.432 -0.0488  0.1601 -0.2656
 6876W        W22770   4.560  10.471   2.404 -0.3177  0.0042 -0.0838
 6877W        W22771  11.706   5.294   1.959 -0.1798  0.2615 -0.0892
 6878W        W22772  11.976   5.214  15.276 -0.1680  0.0962  0.0865
 6879W        W22773   3.261   0.911   5.357 -0.1910 -0.0045  0.1571
 6880W        W22774   1.898   0.517   4.528  0.1343  0.0626  0.3325
 6881W        W22775  14.411  14.795  12.273  0.1845  0.3727  0.3467
 6882W        W22776   6.582   9.243   3.044 -0.0768  0.0633 -0.0770
 6883W        W22777   8.114   7.728   0.062  0.1776  0.0854 -0.1981
 6884W        W22778   7.672   4.984   3.796 -0.2689 -0.0083  0.2827
 6885W        W22779   1.079  16.892  15.799 -0.2117 -0.0018  0.1605
 6886W        W22780  14.732  10.296  14.934  0.1076  0.0444  0.1236
 6887W        W22781  13.448  14.360  15.458  0.0081 -0.1441  0.2470
 6888W        W22782  14.518  11.797  12.426  0.2231 -0.1795 -0.0589
 6889W        W22783  10.027   7.403   5.640  0.2328  0.1658  0.1409
 6890W        W22784  14.868   0.950   2.298  0.2395 -0.2035 -0.1606
 6891W        W22785  13.506   6.037   5.356  0.0169 -0.2761 -0.0070
 6892W        W22786   4.701  14.587  15.443 -0.1557  0.0663 -0.0495
 6893W        W22787  14.319   2.727  15.400  0.0560  0.0717  0.1148
 6894W        W22788  15.847   4.844  11.377 -0.0021 -0.1639 -0.0076
 6895W        W22789   2.193   2.249  15.276  0.0454  0.1500 -0.1839
 6896W        W22790  12.913   4.861  11.874  0.0029 -0.2158 -0.0480
 6897W        W22791  16.871  14.858   3.848 -0.0337  0.0239  0.0582
 6898W        W22792   1.493   7.649   4.135 -0.0366 -0.1055  0.1971
 6899W        W22793   6.455  14.915  14.900 -0.2057 -0.0432  0.1068
 6900W        W22794   6.126  12.521   1.684  0.1766  0.0667  0.0845
 6901W        W22795   1.163  10.424   1.013 -0.0478 -0.1255  0.0613
 6902W        W22796  14.582  11.826   3.891  0.2209  0.1077 -0.0804
 6903W        W22797  14.603   0.123  12.943  0.0780  0.2452 -0.1889
 6904W        W22798   5.136  13.693   2.588  0.0563  0.0443  0.0978
 6905W        W22799   1.350  15.434   4.377 -0.4413  0.1836  0.0774
 6906W        W22800   3.025   6.333   1.483  0.2187  0.6413 -0.0619
 6907W        W22801   6.884   0.681  12.061  0.0641 -0.1405  0.0814
 6908W        W22802   4.027   8.003  13.409  0.3977 -0.0416 -0.0073
 6909W        W22803   8.901   8.610   1.508  0.1924  0.0236 -0.0212
 6910W        W22804   0.087  14.148   1.910 -0.0195  0.0163 -0.0988
 6911W        W22805  15.828  14.378   5.876  0.2798  0.3913  0.0119
 6912W        W22806  14.284  12.290  12.476 -0.0705 -0.2007 -0.0895
 6913W        W22807  16.912   0.995   2.325 -0.1211  0.0303  0.0337
 6914W        W22808  12.953   5.631  13.076 -0.1874  0.1028 -0.0234
 6915W        W22809  16.022   6.725   3.456  0.2228  0.0718  0.2122
 6916W        W22810  11.678   0.955  13.600  0.1969  0.3002 -0.3060
 6917W        W22811  10.164   0.750  14.003 -0.1037  0.4449 -0.1310
 6918W        W22812   4.331  11.655   4.954 -0.1647 -0.0745  0.1101
 6919W        W22813  16.752  10.987  16.293  0.3699  0.5859 -0.0252
 6920W        W22814   6.734  13.547   2.019 -0.1131  0.0775  0.2284
 6921W        W22815  11.939   8.914  12.380  0.0185 -0.0993 -0.1071
 6922W        W22816   8.871  14.801   0.200 -0.3517  0.2653 -0.1090
 6923W        W22817  15.324  17.803  13.480  0.2510 -0.1134 -0.2156
 6924W        W22818   4.018  12.313  12.712 -0.2069 -0.0239 -0.0265
 6925W        W22819  13.302   1.888  13.349 -0.0365 -0.1276 -0.1443
 6926W        W22820  13.727  13.052   6.002 -0.0207 -0.0442  0.0362
 6927W        W22821   5.673   6.620  13.567 -0.0127  0.0421  0.1054
 6928W        W22822  15.144   6.507   5.356  0.2554  0.0137  0.0112
 6929W        W22823   9.921   2.340  12.184  0.0848  0.0207  0.5631
 6930W        W22824  17.181   3.913  16.141 -0.2208  0.0638 -0.0370
 6931W        W22825  11.014  16.399  14.788  0.1486 -0.0921  0.1904
 6932W        W22826  16.502   5.915  14.907  0.0938 -0.1557  0.0157
 6933W        W22827  16.466   9.522  14.634 -0.1533  0.1065  0.0005
 6934W        W22828   5.844   6.243  14.427  0.0193 -0.1928  0.0063
 6935W        W22829   6.112   5.128   4.820  0.0457 -0.0815 -0.2060
 6936W        W22830   9.203  16.328  13.570 -0.0774 -0.1408 -0.0402
 6937W        W22831  10.236  10.446  13.642  0.0657  0.1935  0.1491
 6938W        W22832   1.885   8.694  15.567  0.1201  0.2048 -0.1787
 6939W        W22833  12.972  13.812   2.081 -0.2727 -0.2918  0.0899
 6940W        W22834   1.785   8.076   3.944 -0.0051  0.2665 -0.0838
 6941W        W22835   2.556   6.781   4.749  0.1851 -0.0346  0.2315
 6942W        W22836   5.253  12.018  14.593 -0.3694 -0.2468  0.1641
 6943W        W22837   4.792  13.741   2.212 -0.3078 -0.0293 -0.1706
 6944W        W22838  13.970  13.853  13.878  0.0232 -0.0144  0.3617
 6945W        W22839   7.543   2.103  13.266  0.0610 -0.0675 -0.1926
 6946W        W22840   6.962   1.663   3.427  0.1098  0.2047  0.0519
 6947W        W22841  16.967   9.566   0.039 -0.1497  0.0372 -0.1688
 6948W        W22842  14.552   7.719   1.069  0.1684  0.0399 -0.0659
 6949W        W22843  11.764   9.026  15.301 -0.0168 -0.0918 -0.2279
 6950W        W22844   1.774   2.928   2.292  0.1943 -0.3936 -0.3592
 6951W        W22845  15.790   7.034  12.909 -0.1656 -0.2937  0.0901
 6952W        W22846   7.038   5.582  14.024  0.2367  0.2219  0.2822
 6953W        W22847   7.540  13.479  16.859 -0.0558  0.0452 -0.0648
 6954W        W22848  13.954  15.405   4.384 -0.0344 -0.2591  0.0270
 6955W        W22849  11.835   8.686  14.663  0.0197 -0.0332 -0.1438
 6956W        W22850  11.280  17.093  15.281 -0.1483  0.0983 -0.0793
 6957W        W22851   5.617   5.316  13.028  0.0052  0.1838 -0.1255
 6958W        W22852   0.089   6.926   3.370 -0.1445  0.3012  0.0925
 6959W        W22853  16.435  17.006  11.490 -0.1551 -0.2160  0.1990
 6960W        W22854   5.761   9.617   0.609  0.0081  0.0435  0.1046
 6961W        W22855   3.720   4.547   5.548 -0.0106 -0.1293 -0.0533
 6962W        W22856   2.613  17.716  15.888  0.0508  0.2554  0.1276
 6963W        W22857  15.948  11.523  11.963 -0.5177 -0.1877 -0.0264
 6964W        W22858   7.407  10.427  16.214  0.0539  0.1362  0.0980
 6965W        W22859  13.911   9.204   5.378 -0.1005 -0.0666 -0.3783
 6966W        W22860   2.126  14.953   0.247 -0.1244 -0.0038  0.0044
 6967W        W22861   5.048  14.268   2.651  0.0680 -0.1576  0.0972
 6968W        W22862   5.563   3.522   5.383  0.0351 -0.1608  0.1063
 6969W        W22863  10.379   1.332  14.918  0.1934 -0.0698  0.1081
 6970W        W22864   9.441   1.182   1.171  0.1404  0.1275 -0.2838
 6971W        W22865  10.221  14.146   3.941 -0.1342  0.1146 -0.1119
 6972W        W22866  14.451   4.632  14.634  0.1754  0.0485  0.2079
 6973W        W22867   5.124  16.642  16.461 -0.0825  0.0614 -0.0238
 6974W        W22868   7.523  13.626  13.568 -0.2287  0.3839 -0.1284
 6975W        W22869  14.389   1.225  16.815  0.0709  0.1300  0.4091
 6976W        W22870   8.845  14.489   2.072 -0.1094  0.0240 -0.0962
 6977W        W22871   8.411  13.809  13.354 -0.0310  0.0765  0.0567
 6978W        W22872   4.040   1.336   4.260  0.0540  0.2238  0.0620
 6979W        W22873   2.667  16.708  16.268  0.2484 -0.2614 -0.1079
 6980W        W22874  15.164   3.755  14.997 -0.4533  0.2249  0.0955
 6981W        W22875  15.413  13.577   4.924  0.2937 -0.1860 -0.3415
 6982W        W22876  12.243   9.980   1.831  0.1884  0.0558 -0.0576
 6983W        W22877   5.494   9.806  14.513  0.2030 -0.2108 -0.1406
 6984W        W22878   8.528   1.657  11.749 -0.1990 -0.2803 -0.2061
 6985W        W22879   6.175   9.006   3.256  0.1975  0.1959 -0.0418
 6986W        W22880   8.802   5.735   4.855  0.1344  0.0800  0.1168
 6987W        W22881  14.083   1.321   1.984 -0.1412  0.0887  0.0594
 6988W        W22882  12.735   4.551   3.377 -0.3062  0.2068 -0.1734
 6989W        W22883  11.743  17.017   1.620  0.2603  0.1271 -0.0314
 6990W        W22884   5.288   0.169  13.473 -0.4259 -0.2766 -0.1416
 6991W        W22885   8.262  11.777   2.310 -0.4228 -0.1882  0.0439
 6992W        W22886  15.312   5.302   4.249  0.0787  0.0214  0.0788
 6993W        W22887   2.654   4.085   4.517 -0.1186 -0.1472  0.1277
 6994W        W22888   5.531   1.834  16.467 -0.2497 -0.1824 -0.0024
 6995W        W22889  12.537   2.023   1.651  0.1627 -0.2069  0.1546
 6996W        W22890  13.078   8.878  15.463  0.1780 -0.0034  0.1999
 6997W        W22891  17.839   5.504  15.098 -0.3222 -0.1678 -0.1282
 6998W        W22892   5.810  15.717  14.361  0.2218  0.0125 -0.1218
 6999W        W22893   5.278   8.480   0.057 -0.0197  0.1794  0.1693
 7000W        W22894  15.077  13.919   4.258  0.1709 -0.2434  0.0580
 7001W        W22895  12.760  13.025   4.692 -0.3116 -0.1015  0.1944
 7002W        W22896  13.235  15.978   3.232  0.0754 -0.0503 -0.0935
 7003W        W22897  11.053   0.937   4.018  0.0317 -0.2601  0.2388
 7004W        W22898   1.090   5.555   2.652  0.3784 -0.0440  0.0902
 7005W        W22899  10.894   8.090  15.151 -0.1197 -0.1021  0.0611
 7006W        W22900   4.683   2.433  13.499 -0.2851 -0.0300  0.1240
 7007W        W22901   2.062  10.254  12.740  0.1703 -0.2602  0.0074
 7008W        W22902   9.275  15.646   1.226  0.0736  0.2437 -0.1518
 7009W        W22903   5.133  14.509  13.782 -0.2800 -0.0193  0.1962
 7010W        W22904  10.742   7.900  14.667 -0.0502 -0.2478 -0.0062
 7011W        W22905  14.322  13.030   3.531 -0.1988 -0.3808 -0.1564
 7012W        W22906  10.375   4.260  15.588 -0.2054 -0.0505 -0.1562
 7013W        W22907  17.817  14.605   1.812 -0.0126  0.0234 -0.2878
 7014W        W22908   0.580   6.320  15.437  0.2020 -0.2466 -0.0278
 7015W        W22909   6.822  15.114  15.752 -0.1877 -0.0534 -0.3245
 7016W        W22910  12.624   6.929  14.115  0.3453  0.2404 -0.1900
 7017W        W22911   6.345   7.849  13.303 -0.3325 -0.0665 -0.0250
 7018W        W22912   8.097   6.687  12.160  0.2597  0.3089 -0.1307
 7019W        W22913  13.414   5.640   2.560 -0.2827  0.1990 -0.2805
 7020W        W22914   6.504   5.147  15.202  0.0630 -0.2855 -0.2586
 7021W        W22915  15.989   4.226  16.583 -0.3486  0.0708  0.0881
 7022W        W22916  14.412  11.283  14.254 -0.1846 -0.1479  0.2515
 7023W        W22917   2.075   9.225  12.172 -0.0676 -0.1122 -0.1071
 7024W        W22918  13.812   6.396   4.014 -0.1668 -0.0497 -0.2277
 7025W        W22919   5.196  16.035  15.930 -0.1234  0.0636 -0.1947
 7026W        W22920  14.383  15.055   1.993 -0.4022 -0.1674  0.2069
 7027W        W22921   0.172   7.831  14.803 -0.3139 -0.1486  0.2344
 7028W        W22922  17.496   4.299   1.685  0.0106  0.0565  0.1263
 7029W        W22923  16.511   4.648  16.647 -0.1713 -0.0147  0.3446
 7030W        W22924  13.697  12.895   2.203 -0.0983  0.1980  0.1752
 7031W        W22925  10.918  13.316  12.456 -0.1463 -0.0319 -0.0841
 7032W        W22926   4.755  11.367   1.213  0.0867 -0.0930 -0.2968
 7033W        W22927   3.625  16.032   4.429 -0.2127  0.2204  0.3995
 7034W        W22928  17.756   3.543   4.483 -0.0065  0.3490 -0.0304
 7035W        W22929  16.093  11.186   6.270 -0.0237  0.3755 -0.3930
 7036W        W22930  17.814   2.416  13.179 -0.3536 -0.1137  0.1813
 7037W        W22931  16.241   2.989  16.638  0.1142  0.0620  0.0161
 7038W        W22932   9.335   3.471  14.234 -0.3338 -0.0274 -0.0191
 7039W        W22933   1.586   2.993  13.661 -0.0670  0.1231  0.1042
 7040W        W22934   9.068  10.518  15.047 -0.0070  0.3627 -0.5158
 7041W        W22935   9.423   1.987  16.570  0.1004 -0.0819  0.0685
 7042W        W22936   7.796  11.895  16.920 -0.2783 -0.1474  0.4212
 7043W        W22937   8.367   3.509   0.634  0.0505 -0.2164  0.0939
 7044W        W22938   1.407  12.018  14.272  0.1085 -0.0503  0.0616
 7045W        W22939  17.822  14.823   4.991  0.2454  0.0673  0.0472
 7046W        W22940   8.191   5.640   3.746  0.0969  0.1211 -0.1345
 7047W        W22941   1.033   2.497   5.026  0.1322 -0.3913 -0.0177
 7048W        W22942  10.379  12.452   2.594  0.2030 -0.0951  0.1396
 7049W        W22943   4.574   3.901   1.447  0.1396 -0.0489 -0.0170
 7050W        W22944   9.926   5.061   4.873  0.0243 -0.0682  0.0839
 7051W        W22945   8.617   1.254  14.590 -0.3369  0.0609  0.0268
 7052W        W22946   8.827   0.579  11.623 -0.0499 -0.0244 -0.3499
 7053W        W22947  14.407   8.207  12.396 -0.3010  0.0164  0.0682
 7054W        W22948  12.783   8.999  15.059 -0.1405 -0.1506  0.0152
 7055W        W22949  12.379   3.757  16.509  0.0760  0.0575 -0.2955
 7056W        W22950   1.996  13.004   2.503  0.0300 -0.1824  0.1994
 7057W        W22951   0.840  17.681  14.731  0.1816  0.0565  0.1243
 7058W        W22952   9.468   9.458   5.894 -0.2562  0.3042 -0.2407
 7059W        W22953  13.393  13.605   1.693  0.4373  0.0591 -0.3623
 7060W        W22954  17.589  16.023   1.790  0.2564 -0.1416  0.0942
 7061W        W22955  17.062  12.166  12.146  0.0191  0.0161  0.0596
 7062W        W22956  11.977  13.422   6.313  0.1872 -0.1185  0.2645
 7063W        W22957   8.518   4.984  12.685 -0.0295 -0.0174 -0.0381
 7064W        W22958  17.464  15.257   2.947  0.1311  0.1454  0.0733
 7065W        W22959   4.559   4.627  16.839 -0.0932 -0.0826 -0.1684
 7066W        W22960   9.867   8.371   1.661 -0.0822 -0.0503  0.1890
 7067W        W22961   3.365   1.320  13.665 -0.0079  0.2411  0.0847
 7068W        W22962  10.001  14.951  15.930 -0.0990 -0.2960  0.2428
 7069W        W22963   5.364   8.861   2.338  0.0487  0.2610 -0.1401
 7070W        W22964   1.532  12.772   0.766 -0.1478 -0.2039  0.0069
 7071W        W22965   6.738  16.309   2.743  0.1062 -0.1119  0.0547
 7072W        W22966  11.562  17.491   3.165  0.0537 -0.2894 -0.0530
 7073W        W22967  10.544   2.207  14.900 -0.2083 -0.0957  0.1537
 7074W        W22968   8.190   5.514   5.660  0.3082 -0.2051  0.1519
 7075W        W22969   2.914  14.073   1.240 -0.0569  0.1426 -0.1085
 7076W        W22970  11.516   5.931  11.382  0.2861  0.3465 -0.1621
 7077W        W22971   2.422  10.440   3.266 -0.0784  0.3050  0.2005
 7078W        W22972   1.135  12.908   6.450 -0.3099 -0.2695 -0.0170
 7079W        W22973   2.741   3.032  14.620  0.1310 -0.2845 -0.3665
 7080W        W22974   6.291   0.711  10.354 -0.0112 -0.0910  0.1745
 7081W        W22975  15.362  13.462   0.099  0.0071  0.1324 -0.0971
 7082W        W22976   8.835  15.901   2.153 -0.2019 -0.1111  0.0727
 7083W        W22977   3.357  15.250   0.770  0.0036 -0.2951  0.0948
 7084W        W22978   6.462   8.687   4.210  0.2040 -0.0121  0.0791
 7085W        W22979  14.803   7.311   5.198 -0.1508 -0.0829 -0.1647
 7086W        W22980  12.301   7.847  16.793  0.3527 -0.0159  0.2046
 7087W        W22981   3.477   4.056   4.354  0.0731  0.3125 -0.2147
 7088W        W22982   6.938   0.937  15.639  0.1097 -0.2624  0.1171
 7089W        W22983   4.325  12.746   0.653  0.0909 -0.2139  0.1624
 7090W        W22984  14.381  10.462   2.790  0.0597 -0.2559 -0.2537
 7091W        W22985   1.745   5.684  15.744 -0.2825  0.0150 -0.0807
 7092W        W22986   5.449   7.422   4.869  0.0685 -0.0651 -0.1740
 7093W        W22987   8.794  13.129   4.195  0.5416  0.0471  0.0308
 7094W        W22988   9.574  14.466  15.582 -0.1307  0.0592  0.1868
 7095W        W22989  16.561  11.795  14.136  0.1830  0.0757 -0.0436
 7096W        W22990  16.773  17.093   3.047 -0.2700 -0.1479 -0.5522
 7097W        W22991   4.826   4.596  12.623  0.1375 -0.3055  0.1035
 7098W        W22992  13.257   5.043  15.654  0.0840 -0.0269  0.0409
 7099W        W22993  17.736  10.214  13.711 -0.3326 -0.0317  0.1080
 7100W        W22994  14.515   7.458   2.838  0.6158 -0.1427  0.1817
 7101W        W22995   4.446  14.784  13.457  0.1259 -0.0524  0.0483
 7102W        W22996  17.540   9.537   1.919 -0.1793  0.1005  0.3207
 7103W        W22997   9.808  17.576  15.622 -0.1492  0.0731  0.2052
 7104W        W22998   7.639   7.741  11.552  0.0590 -0.0624 -0.0680
 7105W        W22999  13.097  15.614  14.442 -0.0702 -0.2372 -0.0965
 7106W        W23000  12.115   8.756  13.820 -0.1296 -0.6091  0.1461
 7107W        W23001  16.913  13.116  16.117  0.0534  0.0151  0.0658
 7108W        W23002  17.086  13.098  13.747 -0.0316  0.1450 -0.2718
 7109W        W23003  16.019  17.844   2.125 -0.2533 -0.2666 -0.0548
 7110W        W23004  10.385  13.201   5.596 -0.1742  0.3263 -0.0311
 7111W        W23005  10.896  12.144  13.285  0.0855  0.1027  0.3491
 7112W        W23006   7.429   8.963   1.945  0.1547 -0.5239 -0.1783
 7113W        W23007  15.078   7.260  15.106 -0.1096  0.1202  0.2663
 7114W        W23008  13.870  16.000   3.887  0.1219 -0.1781  0.0330
 7115W        W23009   9.269   7.509   4.914  0.2177 -0.0022  0.0004
 7116W        W23010   4.605  10.093   3.419 -0.0657 -0.0503 -0.1089
 7117W        W23011  17.093  17.107  16.383 -0.2615 -0.0608  0.1081
 7118W        W23012  11.716  17.686   4.786  0.2326 -0.0806 -0.1657
 7119W        W23013   0.865  11.272   2.170  0.0214 -0.1664 -0.1035
 7120W        W23014  11.931  16.010  15.158  0.0129 -0.3764 -0.2680
 7121W        W23015  16.165  17.456  14.958 -0.1108  0.0052 -0.0376
 7122W        W23016  14.379   3.948   2.061 -0.0311 -0.4151  0.1474
 7123W        W23017   1.485  15.712  11.437 -0.0278  0.1626 -0.2687
 7124W        W23018   8.174  10.598   5.123  0.3860  0.0246 -0.1249
 7125W        W23019   6.073   2.488  12.038  0.1623 -0.1298  0.2425
 7126W        W23020   3.073   0.484  15.374 -0.0590  0.1525  0.2986
 7127W        W23021   7.692  12.498  12.632 -0.1012 -0.1536 -0.0245
 7128W        W23022  16.018  12.777   5.867 -0.3262 -0.0873  0.0453
 7129W        W23023   3.128   4.033   5.812 -0.1471 -0.2570  0.1688
 7130W        W23024   6.143  13.133   5.638  0.0388 -0.0914 -0.1949
 7131W        W23025  12.068   2.481   5.171 -0.2691 -0.0417  0.0605
 7132W        W23026  13.533   1.541   0.091 -0.0633 -0.0173 -0.1476
 7133W        W23027   8.876   0.676   3.266  0.3388  0.1124  0.0799
 7134W        W23028   0.321  14.190   2.372  0.0867 -0.0870 -0.1794
 7135W        W23029  12.645   2.504   5.044  0.1903  0.2529  0.1558
 7136W        W23030   3.890  14.494  13.596  0.1664 -0.2462  0.0545
 7137W        W23031  17.418   2.742   1.560 -0.0257  0.5119  0.5285
 7138W        W23032  13.503   0.206  15.718 -0.0990  0.1245 -0.1281
 7139W        W23033  10.282   9.199   2.752  0.0413 -0.1930  0.1988
 7140W        W23034  12.590  15.801   1.292 -0.1075 -0.1291 -0.2530
 7141W        W23035   3.057   6.686   5.491 -0.0390 -0.0738  0.0927
 7142W        W23036  14.082   3.040   4.688  0.1093 -0.1055  0.2587
 7143W        W23037   3.643   7.809   1.648 -0.2095 -0.2366  0.1254
 7144W        W23038   1.415   8.876   2.035 -0.0101 -0.2843 -0.1016
 7145W        W23039  16.898   6.468   2.622  0.1739  0.0672  0.0818
 7146W        W23040  11.607  10.342   3.895 -0.0398 -0.0068  0.1840
 7147W        W23041   8.859   2.692   0.432  0.0554  0.0839 -0.1096
 7148W        W23042  14.751   5.782  13.176  0.1268  0.1050  0.2362
 7149W        W23043   3.404   1.925  14.316 -0.2504  0.3284  0.0019
 7150W        W23044   8.526  14.670  15.642  0.0667  0.0691 -0.0630
 7151W        W23045   7.011   2.307  11.716 -0.1270 -0.0621  0.2091
 7152W        W23046   9.058   8.488   2.464 -0.0187 -0.1611 -0.3539
 7153W        W23047   2.354   8.115   0.818 -0.2129 -0.0273  0.0541
 7154W        W23048   0.357   7.464  14.504 -0.0058  0.1412  0.0354
 7155W        W23049  10.200   5.504  11.114  0.0860  0.0317  0.2857
 7156W        W23050   0.536   6.580  16.605  0.0135  0.0524 -0.3312
 7157W        W23051  14.632  13.254   4.935 -0.1008 -0.0974 -0.2027
 7158W        W23052   3.923   9.151  14.860 -0.0382 -0.1103 -0.2134
 7159W        W23053   8.769   9.173   3.047 -0.2226  0.0053  0.0106
 7160W        W23054  13.798   5.089   4.723 -0.1485 -0.1855 -0.1103
 7161W        W23055   0.122   9.534  16.459 -0.0782 -0.0021  0.0369
 7162W        W23056  10.736   4.095   1.636  0.1502  0.1300 -0.2320
 7163W        W23057   4.576  12.148   1.590 -0.2027  0.0204 -0.0412
 7164W        W23058  12.400  17.100  11.606  0.0826 -0.1122 -0.0426
 7165W        W23059  14.329   0.131  16.003 -0.2191  0.2238 -0.0260
 7166W        W23060  17.203  14.648  14.705 -0.1303  0.5620  0.2538
 7167W        W23061   5.058  17.413   1.843 -0.3427 -0.1287 -0.1554
 7168W        W23062  13.945   0.152   1.740  0.3209  0.0880 -0.0018
 7169W        W23063   0.632  16.524  11.782 -0.0316 -0.0170  0.0478
 7170W        W23064   2.650  11.961  11.852  0.1909 -0.1115 -0.0400
 7171W        W23065   6.409   6.805   3.357 -0.2179  0.3210 -0.0924
 7172W        W23066  13.649  15.204  15.847  0.0294  0.3936 -0.0689
 7173W        W23067   9.481  14.927  15.820 -0.0018  0.0877  0.2259
 7174W        W23068   4.927   3.092   2.777 -0.4653  0.1562 -0.4043
 7175W        W23069   3.399   3.607   4.550  0.0662 -0.3712 -0.1004
 7176W        W23070  16.898   0.864   0.791 -0.1340 -0.0501 -0.0528
 7177W        W23071   1.012   1.595  12.274 -0.0905 -0.2090 -0.0438
 7178W        W23072   8.449   2.834   2.005  0.2227 -0.0646 -0.1956
 7179W        W23073   3.872  11.694   5.268 -0.1163  0.0740 -0.1446
 7180W        W23074   2.931  13.811   2.340  0.2285 -0.1846 -0.2115
 7181W        W23075   9.054  13.130  14.673  0.2521 -0.0424 -0.0080
 7182W        W23076   5.667  13.680  12.730  0.0583  0.1664  0.3390
 7183W        W23077   7.722  11.675  12.691  0.0173 -0.0865  0.0929
 7184W        W23078   4.266  13.564   1.744 -0.0228 -0.1854  0.0753
 7185W        W23079   2.037  15.155  11.537  0.2355 -0.0754 -0.1464
 7186W        W23080  17.266  14.310  14.336  0.2764  0.1317 -0.3640
 7187W        W23081  15.165   6.394  12.065 -0.2939 -0.1473 -0.2996
 7188W        W23082   5.939  14.756  14.851 -0.2834  0.0952 -0.1366
 7189W        W23083   8.994  17.064  15.506 -0.6135 -0.0282 -0.0127
 7190W        W23084   8.175   4.941  13.038 -0.0680  0.1280 -0.2219
 7191W        W23085   7.683  13.990  16.818 -0.0672  0.0667 -0.1018
 7192W        W23086   0.364   4.923   3.389  0.1745  0.0612 -0.3629
 7193W        W23087  17.627   6.413  12.143 -0.0462  0.0065  0.3364
 7194W        W23088  15.892   8.249  12.410  0.2182  0.0824  0.0118
 7195W        W23089   2.391  10.912  15.478  0.0317 -0.1714 -0.1524
 7196W        W23090  14.996   5.135  15.263  0.1686 -0.0345 -0.2628
 7197W        W23091   9.703   0.577   1.594  0.2370 -0.0029 -0.2400
 7198W        W23092   1.462   4.672  15.880  0.0264  0.1267  0.0948
 7199W        W23093  12.216  10.538   3.090 -0.1006 -0.1718  0.1417
 7200W        W23094   3.929  12.986  16.455  0.0973  0.0780 -0.2216
 7201W        W23095   3.493  15.326  13.053  0.0751 -0.0287  0.1015
 7202W        W23096   8.427  12.229  13.918  0.1455 -0.1151 -0.2424
 7203W        W23097  14.831   8.529   3.868  0.2507  0.0332 -0.0532
 7204W        W23098  15.553  14.828   3.182  0.1206  0.0860 -0.0905
 7205W        W23099   9.881   5.667   2.730 -0.2362 -0.1287 -0.0333
 7206W        W23100   1.663   4.458   0.700 -0.1006  0.2225 -0.1878
 7207W        W23101   2.795  15.523   0.115 -0.1416  0.0758  0.2226
 7208W        W23102  12.681  14.212   1.792  0.0029  0.0587 -0.0708
 7209W        W23103   6.781   5.790  13.254 -0.0237 -0.3743  0.3655
 7210W        W23104   0.791  17.755   1.717  0.0017 -0.6064  0.2302
 7211W        W23105   1.612   2.264  12.460 -0.2648  0.0616 -0.0298
 7212W        W23106  15.191  16.717   4.111 -0.0081 -0.0045 -0.0112
 7213W        W23107   5.936   3.910   4.677 -0.0076  0.2865  0.2879
 7214W        W23108  15.103   1.512   3.592 -0.4087  0.2169  0.2840
 7215W        W23109   3.462  10.110   3.586  0.1341 -0.4611  0.1945
 7216W        W23110  12.273   4.714   3.654  0.0392  0.3148  0.1466
 7217W        W23111   6.399   4.020   4.879 -0.0951 -0.1376 -0.2551
 7218W        W23112   3.578   0.446   1.933  0.3382 -0.4710  0.2652
 7219W        W23113  14.412   2.305  13.922 -0.1935 -0.0625  0.2421
 7220W        W23114   6.106   1.285   1.075  0.0739 -0.1321 -0.2979
 7221W        W23115  10.423   4.346  12.478 -0.3206 -0.1672 -0.0997
 7222W        W23116   9.879  11.011  16.116  0.0083  0.2270  0.1644
 7223W        W23117  17.841  13.137   0.876 -0.1416 -0.0497  0.2113
 7224W        W23118  13.924  12.655   3.234 -0.1486  0.1586 -0.1303
 7225W        W23119  14.006   5.547   1.758  0.4114  0.1218  0.2385
 7226W        W23120  16.650   5.824  16.056 -0.2994  0.1412  0.0289
 7227W        W23121   7.008   4.421   1.810  0.3354  0.1292 -0.0229
 7228W        W23122   1.942   3.441  14.816  0.1714 -0.1094 -0.1003
 7229W        W23123  14.097   9.112  13.421  0.1276  0.0224  0.0118
 7230W        W23124   9.809   3.007   4.387 -0.2376  0.1974 -0.4607
 7231W        W23125   4.367   5.235  16.923 -0.0248 -0.0784 -0.3234
 7232W        W23126   5.266   5.574  12.377 -0.1468  0.0791  0.1328
 7233W        W23127   4.031   9.485   3.356  0.1011 -0.1523 -0.0613
 7234W        W23128   4.627   6.175   0.069  0.0136 -0.4339  0.1111
 7235W        W23129  10.515   0.395  15.753  0.2903 -0.2464  0.1719
 7236W        W23130  16.021   4.720  16.394 -0.2003  0.0406  0.0390
 7237W        W23131  12.221   8.013   5.496  0.0899  0.1969  0.0742
 7238W        W23132  14.535   0.243   3.666 -0.2464  0.0052 -0.1553
 7239W        W23133  10.421   3.508  16.869  0.1657  0.1792  0.0125
 7240W        W23134   2.618   3.934  13.867  0.2777 -0.1177  0.2029
 7241W        W23135   1.742   8.924  12.360  0.1653  0.2499  0.0079
 7242W        W23136  15.550  14.269   1.789  0.0824 -0.0754 -0.3399
 7243W        W23137   4.127  17.645   3.469  0.0347  0.1322 -0.1258
 7244W        W23138  13.906   0.971   3.223 -0.1219 -0.0349 -0.2446
 7245W        W23139  15.728   0.185  15.899  0.1977  0.0266  0.2412
 7246W        W23140   0.873   4.785  12.012 -0.3484  0.0262  0.1002
 7247W        W23141   6.709   4.781  14.497 -0.0594  0.0967  0.1918
 7248W        W23142  11.822  13.850  16.819  0.0868  0.0561  0.2620
 7249W        W23143  15.812   0.491  14.600 -0.1439 -0.0916 -0.0127
 7250W        W23144  13.044   6.445  11.942  0.2148  0.0594  0.0335
 7251W        W23145  15.530  15.017  15.344 -0.0939  0.0359  0.2234
 7252W        W23146  14.587   2.631  13.557  0.0485 -0.1482  0.2521
 7253W        W23147  12.865  11.255  16.587  0.2098  0.0751 -0.2440
 7254W        W23148  10.486   6.825  15.005  0.0391 -0.0906  0.1293
 7255W        W23149   5.360   1.764   4.442 -0.0044  0.1554 -0.2574
 7256W        W23150   3.629   5.148   3.931  0.2478  0.0778 -0.0814
 7257W        W23151   6.805   6.129   3.750 -0.1389 -0.0267  0.0178
 7258W        W23152   2.608   3.104  16.659 -0.1734  0.0629  0.2782
 7259W        W23153   0.651   0.793   3.533 -0.1485 -0.1704 -0.0637
 7260W        W23154   4.950   8.458  13.729 -0.0510 -0.0846 -0.1509
 7261W        W23155   7.768  11.978  12.269 -0.0897  0.0334 -0.0325
 7262W        W23156   4.001   8.547  12.769 -0.0860  0.0497 -0.1466
 7263W        W23157  14.433  12.828   4.069 -0.1693 -0.1127 -0.3793
 7264W        W23158  11.230   0.031  13.802  0.0418  0.0204 -0.0220
 7265W        W23159   2.435   6.356  16.874  0.1539 -0.2400 -0.4870
 7266W        W23160  14.351   2.036  16.330  0.0250 -0.2614  0.1582
 7267W        W23161  11.707   9.903  16.467  0.0408 -0.1016 -0.0798
 7268W        W23162  17.431   6.672  11.272 -0.1115 -0.0253  0.1890
 7269W        W23163   8.900  14.124   0.758  0.1340 -0.2316  0.2592
 7270W        W23164  10.633  14.223   0.078 -0.0865 -0.2035  0.0937
 7271W        W23165   3.241   2.788  14.757 -0.1874  0.0560  0.2708
 7272W        W23166   8.727   5.852  15.416 -0.1107 -0.2507  0.4544
 7273W        W23167   0.206  11.723  14.604  0.1289  0.1773  0.0522
 7274W        W23168  16.229  15.345  12.230  0.1456  0.0817  0.0737
 7275W        W23169   5.528   3.559  13.472 -0.1279 -0.2874  0.2072
 7276W        W23170  16.552   7.544  13.416  0.0589  0.0570 -0.0162
 7277W        W23171   0.358  11.084   3.574  0.2507 -0.1312  0.1063
 7278W        W23172   5.935  11.046  12.585  0.0656  0.2592  0.1491
 7279W        W23173   1.334  14.654   2.451  0.0079 -0.0819  0.2896
 7280W        W23174   4.622  14.302  14.883 -0.0319  0.0054 -0.0886
 7281W        W23175  16.919  10.159   5.139  0.1013 -0.1373  0.2395
 7282W        W23176  12.668  17.537  13.608 -0.0301  0.0273 -0.0620
 7283W        W23177  16.278   0.865  13.946 -0.1322 -0.2223  0.1362
 7284W        W23178  15.284   1.706  13.966  0.0008  0.0300  0.2480
 7285W        W23179  17.436   0.727  10.277  0.0662  0.0934 -0.1808
 7286W        W23180   0.503  13.589  13.883 -0.0128  0.3400  0.0324
 7287W        W23181   2.146  17.368  12.461 -0.5118 -0.0386  0.0983
 7288W        W23182   1.265  11.474  13.121  0.0347  0.0483  0.0416
 7289W        W23183  12.930   5.165  15.166  0.1007 -0.0565  0.1863
 7290W        W23184   2.049  16.375  14.915  0.0579 -0.2039 -0.4720
 7291W        W23185  14.566   5.894   2.926 -0.0456 -0.1010 -0.2732
 7292W        W23186  17.514   4.467  11.414  0.2231  0.2992 -0.0618
 7293W        W23187  11.185   5.549  10.482  0.2519 -0.1414 -0.1748
 7294W        W23188  17.734  10.244   2.927  0.0409 -0.0539 -0.0816
 7295W        W23189  10.674  13.815   6.083 -0.0797  0.3174  0.1154
 7296W        W23190   9.552   5.657  13.112 -0.3721 -0.1822  0.1146
 7297W        W23191  12.066  14.182  15.071 -0.0014  0.0098  0.2998
 7298W        W23192   6.754   4.958  12.380  0.1110 -0.1006 -0.1861
 7299W        W23193  10.477   5.317  14.979 -0.1313  0.0125 -0.0465
 7300W        W23194   0.544  14.518   1.068  0.1409 -0.0961  0.3169
 7301W        W23195  12.630  11.580   2.164 -0.0966 -0.4472  0.1955
 7302W        W23196  11.079  14.229   5.097  0.2143 -0.0465 -0.3680
 7303W        W23197   7.113   8.881  13.842 -0.0060  0.1071  0.2574
 7304W        W23198   8.351   7.334   1.831 -0.2584 -0.1053 -0.1052
 7305W        W23199  13.460   9.864  11.708 -0.3045 -0.2389 -0.3424
 7306W        W23200   4.380   6.430  13.841 -0.2481  0.3166 -0.0957
 7307W        W23201   6.261  13.313   5.046  0.0729  0.0594  0.0175
 7308W        W23202  16.877  16.330   5.185 -0.0838 -0.1148 -0.1619
 7309W        W23203   4.083  11.962  16.034  0.1069  0.2867  0.2080
 7310W        W23204   4.755  16.092  12.794  0.0870  0.0283 -0.0316
 7311W        W23205   8.337  14.645  16.560  0.2773  0.2243 -0.0868
 7312W        W23206  17.436   4.681   5.838  0.4980  0.0404 -0.0931
 7313W        W23207   6.963  10.247  13.082  0.0973  0.0518 -0.3302
 7314W        W23208   4.787   2.558   5.921  0.4780  0.2962 -0.1453
 7315W        W23209   7.936   0.605   6.524  0.2107 -0.0790  0.2693
 7316W        W23210   3.748  17.564  12.593  0.2612 -0.3021  0.0860
 7317W        W23211  17.662  17.735   3.802  0.2169  0.1640 -0.1113
 7318W        W23212   0.510   5.915   4.306 -0.3138 -0.0403 -0.1309
 7319W        W23213  13.708   4.508   4.882 -0.1218 -0.0234  0.1387
 7320W        W23214  11.782  13.300   1.950 -0.0595 -0.3748 -0.2165
 7321W        W23215  10.099  17.410   1.739  0.1108 -0.2194 -0.0752
 7322W        W23216   7.352   9.081  15.510  0.0333 -0.3507 -0.0162
 7323W        W23217  17.605  17.468   2.838 -0.2085 -0.0799 -0.1628
 7324W        W23218  14.687   3.551  14.567 -0.2996  0.1645 -0.0429
 7325W        W23219   7.877  12.533   6.047 -0.1264 -0.4528 -0.1561
 7326W        W23220  12.216  11.047   4.098  0.1306  0.2208 -0.0605
 7327W        W23221   3.347   6.438   2.105  0.2990 -0.1448  0.2699
 7328W        W23222  15.428  13.699  15.663 -0.0817  0.1129 -0.0390
 7329W        W23223   8.712   2.185  15.482 -0.0390  0.0229  0.0986
 7330W        W23224   5.838   5.730   4.435 -0.0841 -0.1649  0.1635
 7331W        W23225   6.310   5.177  16.923  0.1320 -0.0910 -0.3006
 7332W        W23226  13.428   6.518   4.473  0.0845 -0.2082 -0.2575
 7333W        W23227   0.289   4.281  16.362  0.1532  0.0564 -0.1740
 7334W        W23228  11.408  14.307   4.653  0.0457  0.4564 -0.2143
 7335W        W23229  16.595   3.659  15.545  0.1430 -0.0065  0.1455
 7336W        W23230   3.305   6.978   0.828 -0.2040  0.1578 -0.0152
 7337W        W23231   4.107  12.877   1.081 -0.0698  0.1802  0.3616
 7338W        W23232   9.594   9.531   2.155 -0.0217  0.0208 -0.0272
 7339W        W23233  13.413   6.909  13.559  0.2013  0.3395 -0.0964
 7340W        W23234   7.285  11.443   4.165 -0.0845 -0.0440 -0.0442
 7341W        W23235  13.602  14.074  14.960  0.2316 -0.2640  0.1032
 7342W        W23236   9.213   5.133   2.161 -0.0275 -0.3680  0.0256
 7343W        W23237   6.864   7.710  14.501 -0.1841 -0.1165  0.0087
 7344W        W23238   6.437   6.728   0.841 -0.0640  0.0092  0.0228
 7345W        W23239  13.420   0.390  12.588  0.1298  0.1748  0.1317
 7346W        W23240   3.774  12.508   1.280 -0.1300 -0.2270 -0.0257
 7347W        W23241   1.844   4.412   1.551  0.1631 -0.0712  0.0990
 7348W        W23242   5.774  17.497   1.972  0.2227 -0.1361 -0.0380
 7349W        W23243   3.591   4.037   2.388 -0.0931  0.3022  0.0906
 7350W        W23244  12.701  17.216  16.174 -0.0037 -0.0927  0.0296
 7351W        W23245  17.539  13.103  13.584  0.1524  0.1595  0.2196
 7352W        W23246  12.870  13.560  12.468 -0.1008 -0.0784 -0.3492
 7353W        W23247   6.288   6.866  13.109  0.2506 -0.1102 -0.0898
 7354W        W23248   3.081   4.055   2.645  0.1471  0.1929  0.0478
 7355W        W23249   5.321   4.235   4.132 -0.2697  0.0176  0.1851
 7356W        W23250   5.812  17.650   1.280 -0.1452  0.0594  0.2194
 7357W        W23251  13.461   3.465   4.350 -0.0058 -0.3320 -0.3465
 7358W        W23252   0.641  17.517  11.553 -0.2933 -0.0658  0.4441
 7359W        W23253  15.713  11.557   4.200 -0.1566 -0.1080  0.0553
 7360W        W23254  16.987  14.769   3.300 -0.1353  0.0807  0.0820
 7361W        W23255   0.891  10.406  13.710  0.0840  0.1815  0.0455
 7362W        W23256   8.549   7.450   0.046  0.0706  0.1783  0.0714
 7363W        W23257   5.511  17.358   1.582 -0.2182 -0.0805  0.0658
 7364W        W23258  15.175   2.166  16.827 -0.3053 -0.2312 -0.1622
 7365W        W23259   4.833   2.805   1.393 -0.1666  0.0388 -0.2044
 7366W        W23260  12.713  16.333   4.780 -0.1022  0.1529  0.0498
 7367W        W23261   7.552   5.832  12.748 -0.2164  0.4469  0.3708
 7368W        W23262  11.789  10.802   4.226 -0.1695 -0.0019 -0.0652
 7369W        W23263   9.992  12.947  13.286  0.0338  0.0982  0.0970
 7370W        W23264   2.478  10.128  13.204  0.0112  0.2445  0.2454
 7371W        W23265  14.333   3.269  13.805 -0.0796  0.0434 -0.1500
 7372W        W23266   6.912   8.283   3.439  0.2547  0.0335 -0.1425
 7373W        W23267  16.478  16.508   4.191 -0.2483 -0.0690  0.0007
 7374W        W23268   6.979  12.955  12.320  0.1326 -0.1856  0.0804
 7375W        W23269   4.713   9.394  11.632  0.0035  0.0387  0.1113
 7376W        W23270   4.658   6.204   3.947 -0.0080 -0.0215  0.1756
 7377W        W23271   5.156   4.734  13.783 -0.0163  0.0430 -0.0822
 7378W        W23272   9.955  10.728   1.035  0.0671  0.0699 -0.1596
 7379W        W23273  16.817   8.286  13.293  0.0306  0.3470 -0.0865
 7380W        W23274  14.827   3.666   0.855 -0.2370  0.1360  0.2177
 7381W        W23275  17.054  12.581  15.474 -0.0564  0.0198  0.0259
 7382W        W23276  14.281  10.242   1.020 -0.0195  0.1543  0.0737
 7383W        W23277  15.728   9.489  11.779 -0.0296  0.3509  0.2026
 7384W        W23278   4.126  17.450  15.810 -0.1237 -0.0320  0.3930
 7385W        W23279  16.707  10.547   2.275 -0.1603  0.3687 -0.0534
 7386W        W23280   4.257  10.354   4.515 -0.3368 -0.3418 -0.2169
 7387W        W23281   5.735   7.007   4.721 -0.0593  0.0010 -0.1134
 7388W        W23282  13.593   0.236  12.148 -0.2982 -0.0152  0.1687
 7389W        W23283  15.378  17.307   3.940 -0.2608 -0.0429 -0.0016
 7390W        W23284  10.175   3.233   5.390 -0.2353 -0.1221 -0.3444
 7391W        W23285   4.858   6.818  12.975 -0.2560 -0.2722 -0.0551
 7392W        W23286   9.208   2.446  13.253 -0.0408 -0.1825  0.2032
 7393W        W23287  15.363  16.950   3.622  0.3151 -0.1649  0.1375
 7394W        W23288   8.759   7.138  11.955 -0.0126 -0.3291 -0.1676
 7395W        W23289  15.560   8.048   0.194 -0.2131  0.0016 -0.1290
 7396W        W23290   9.737  12.943   2.791 -0.0451  0.2219  0.1713
 7397W        W23291  14.303  10.749   2.410  0.0751  0.0668 -0.2784
 7398W        W23292   1.607   7.397  12.361  0.0190  0.1707 -0.0422
 7399W        W23293  15.434  13.803  13.347 -0.1393  0.0381 -0.0554
 7400W        W23294   2.190  10.527  16.918 -0.1592 -0.0552 -0.1867
 7401W        W23295  15.871  16.089  11.865  0.3592 -0.0435  0.0320
 7402W        W23296  12.470  12.019  16.813  0.0554  0.3143 -0.0517
 7403W        W23297   3.346   1.894  13.770  0.1238  0.1368 -0.1925
 7404W        W23298  12.555  11.281   5.839 -0.0607  0.0872  0.0344
 7405W        W23299   6.820  10.062   3.488 -0.0822  0.0172  0.2260
 7406W        W23300   5.715   4.512   2.829 -0.1288  0.1696 -0.0309
 7407W        W23301   5.851   1.194   0.266 -0.0469  0.1286 -0.1727
 7408W        W23302  14.321  13.758  12.586  0.2709 -0.0430  0.2323
 7409W        W23303   5.759  17.803  12.027 -0.1440 -0.1197  0.1265
 7410W        W23304   2.308  13.399   3.538  0.1672 -0.2360  0.0614
 7411W        W23305  16.360  16.035  11.914 -0.1566  0.0618 -0.0652
 7412W        W23306  14.161   6.498  15.892  0.0192  0.0628 -0.0750
 7413W        W23307  10.246  16.364   1.622 -0.1354  0.2089 -0.0706
 7414W        W23308   5.608   1.663  13.066  0.2782  0.0960 -0.2249
 7415W        W23309   6.680   5.971   0.825  0.0527 -0.3462 -0.1320
 7416W        W23310   6.819  17.222   2.237 -0.1784  0.1807  0.0912
 7417W        W23311   0.110   6.423  15.227  0.1396  0.0845 -0.2222
 7418W        W23312   9.577   6.194  15.695  0.0474 -0.0615 -0.0538
 7419W        W23313   3.664   8.414  15.620 -0.1247 -0.1906 -0.1085
 7420W        W23314   5.919   0.917  13.975  0.1718 -0.3424  0.0521
 7421W        W23315  10.539  10.554  13.011  0.0369  0.1228 -0.0743
 7422W        W23316  10.580  13.716  15.428  0.0305 -0.0120  0.1577
 7423W        W23317  12.669   9.355   3.740  0.2899 -0.3392  0.0606
 7424W        W23318  11.707  17.310   3.632 -0.1512  0.3609 -0.0367
 7425W        W23319   0.205  13.080   6.002 -0.1079 -0.1057 -0.0095
 7426W        W23320   0.777   9.098   4.526 -0.0767  0.1811  0.2299
 7427W        W23321  15.138  15.614  11.639  0.1545 -0.1103 -0.0465
 7428W        W23322  11.904  10.804   1.464 -0.0087  0.2526 -0.1920
 7429W        W23323   1.826   6.104  11.906 -0.0125  0.1932  0.0803
 7430W        W23324   6.072  14.816   4.326  0.0466 -0.1066  0.2998
 7431W        W23325   0.058   1.004  11.419  0.1791 -0.0213  0.0590
 7432W        W23326   4.073  11.594   0.072 -0.3019  0.0603 -0.0641
 7433W        W23327   1.936   7.116  15.293  0.0328 -0.0202 -0.1492
 7434W        W23328  17.075   9.538   5.170 -0.2079  0.0003 -0.4360
 7435W        W23329   5.277   6.816   5.618 -0.1906  0.0865 -0.0914
 7436W        W23330  10.920  13.873   2.081  0.1411  0.1577  0.1084
 7437W        W23331   6.050   5.421   6.519 -0.1352 -0.0063 -0.0780
 7438W        W23332  12.483  15.071  14.891  0.0497 -0.0879 -0.2717
 7439W        W23333   1.578  10.781   4.312  0.1458 -0.0121 -0.0757
 7440W        W23334   9.245   5.448   4.676 -0.1666  0.2768  0.2033
 7441W        W23335   6.890   6.002  15.483  0.1632 -0.0470 -0.1279
 7442W        W23336  15.005  10.327  14.161 -0.1540 -0.2855  0.0348
 7443W        W23337  16.549  15.505  14.608 -0.0637 -0.1213  0.2178
 7444W        W23338   4.064   0.656   1.928 -0.2085 -0.2169  0.0067
 7445W        W23339   2.824  11.827  14.367 -0.0130 -0.0034  0.4735
 7446W        W23340  14.122  17.586   0.080  0.1948  0.1498  0.1274
 7447W        W23341  16.341   5.109  16.509 -0.0611  0.0291  0.1393
 7448W        W23342  12.176   7.350   1.929 -0.0814  0.2225  0.0118
 7449W        W23343  11.307  16.267   2.001 -0.1971 -0.2227 -0.1180
 7450W        W23344   0.285   8.814  14.473 -0.1396  0.1517 -0.0173
 7451W        W23345   9.926   2.796  15.247 -0.1461  0.1327 -0.0225
 7452W        W23346   1.719   4.270  15.801  0.2567  0.0721  0.0899
 7453W        W23347   6.845   6.691   1.113  0.0913 -0.0668 -0.0124
 7454W        W23348  15.952  11.097   4.215 -0.4337  0.0175  0.1930
 7455W        W23349  17.112   8.581   5.172 -0.0731 -0.1911 -0.1952
 7456W        W23350   3.351  12.659   5.943  0.0134 -0.0849  0.2162
 7457W        W23351  10.869  10.511  12.274  0.0055 -0.2818 -0.0897
 7458W        W23352  11.120   5.384  15.529 -0.2406  0.3606  0.0120
 7459W        W23353  14.213  14.333   6.763  0.0402  0.0754  0.0171
 7460W        W23354   1.361  11.109  10.823  0.0377  0.3876 -0.0725
 7461W        W23355  15.831  15.537   4.765 -0.0249  0.0057  0.0454
 7462W        W23356   4.027  13.387  12.289 -0.1109  0.0950  0.0126
 7463W        W23357  12.325   3.273   0.764  0.0739  0.0699 -0.0546
 7464W        W23358  14.510  14.415   1.610  0.2425  0.2409  0.0341
 7465W        W23359   9.126  11.082  15.831  0.1255  0.3965 -0.1655
 7466W        W23360  17.395   8.203  14.198  0.0552 -0.0238  0.0843
 7467W        W23361   9.187  15.584  14.269  0.0470  0.1258  0.0009
 7468W        W23362   2.203  16.494   4.116 -0.1514 -0.1434  0.1205
 7469W        W23363  16.998  15.153  16.736 -0.3466  0.0119  0.2122
 7470W        W23364   7.190  17.817  13.875 -0.0367 -0.0694  0.0155
 7471W        W23365  14.970   7.778  11.586 -0.0861 -0.1476 -0.1539
 7472W        W23366   5.756   9.410   1.044  0.1459 -0.0165 -0.0079
 7473W        W23367  11.942  12.282   3.811 -0.2016  0.0540 -0.2798
 7474W        W23368  17.422   4.934  11.976 -0.0267  0.3461  0.0696
 7475W        W23369  16.935  13.864  16.625  0.1523  0.2467  0.2157
 7476W        W23370   5.729  15.553  16.289 -0.2096  0.0145 -0.1350
 7477W        W23371   5.302  16.191  16.414  0.2188 -0.1800 -0.2774
 7478W        W23372   6.246  16.079  11.022  0.2075  0.3481 -0.1546
 7479W        W23373   5.186  10.207  14.768  0.0483 -0.2048 -0.1341
 7480W        W23374   0.502   7.698  12.801 -0.1498 -0.1529 -0.0126
 7481W        W23375   2.657   9.183  14.248  0.3239 -0.0204  0.2616
 7482W        W23376   4.437  16.406   4.495 -0.0866 -0.1761  0.2976
 7483W        W23377  13.728   6.372  15.739 -0.1808  0.2776 -0.2478
 7484W        W23378   2.518  15.760   1.515 -0.1480 -0.2147  0.2384
 7485W        W23379   1.607   8.235  13.562 -0.0888  0.2289 -0.0861
 7486W        W23380  13.892  11.580  15.996 -0.0229  0.0180 -0.0993
 7487W        W23381   0.740  13.886  14.522  0.0418 -0.2462  0.0180
 7488W        W23382   7.491  14.005   5.235 -0.2402 -0.2526 -0.1429
 7489W        W23383   9.880   7.665  12.117 -0.3886 -0.1419  0.2136
 7490W        W23384   2.741   3.758   2.835  0.2626 -0.1012 -0.0846
 7491W        W23385   2.423  14.180  16.761 -0.0458 -0.1819  0.3228
 7492W        W23386   3.003   5.065   5.731  0.1559  0.1468  0.1290
 7493W        W23387  12.088   9.552   2.940 -0.1507 -0.0508  0.0313
 7494W        W23388   1.258   1.082  11.610 -0.0603 -0.0187 -0.2506
 7495W        W23389  11.141  13.935   6.172  0.1669 -0.3755  0.2265
 7496W        W23390   2.272   7.852   5.140 -0.2346 -0.0154 -0.0861
 7497W        W23391   1.359  15.599  13.673  0.1136 -0.1187 -0.2239
 7498W        W23392   6.777   2.809   4.250 -0.1626 -0.2099 -0.0293
 7499W        W23393   0.455  16.922   3.058  0.1097  0.2753 -0.2675
 7500W        W23394   4.818   3.692  16.747  0.1266  0.0157  0.2036
 7501W        W23395   4.365   4.812  12.397 -0.0724 -0.1048 -0.0053
 7502W        W23396  16.261   6.201   4.367  0.0618 -0.3981  0.0089
 7503W        W23397  15.989   3.066  11.935  0.0486  0.1180 -0.1890
 7504W        W23398   0.711   5.515   4.494 -0.0259 -0.0718  0.1511
 7505W        W23399   5.321   1.840   3.314  0.0811 -0.0152 -0.0546
 7506W        W23400   9.539  14.767   4.617  0.0194 -0.2166 -0.0526
 7507W        W23401   0.867   1.442   2.799 -0.2784 -0.4881  0.1462
 7508W        W23402  10.849   9.285   0.043 -0.1228 -0.1820  0.1874
 7509W        W23403  16.742   2.152  15.975  0.2099 -0.0521  0.0595
 7510W        W23404  16.902   6.145  14.644 -0.1555  0.0023  0.0502
 7511W        W23405  15.094   4.420   1.200  0.0565 -0.1538  0.1674
 7512W        W23406   8.505   1.973  13.692 -0.1222  0.1223 -0.0897
 7513W        W23407   8.500  15.262  12.918  0.3576  0.2206 -0.0259
 7514W        W23408   0.230   7.366  12.222 -0.2258  0.1737 -0.2793
 7515W        W23409   7.645  12.869   0.084 -0.0835 -0.1947 -0.1605
 7516W        W23410  17.134   6.550   2.062 -0.1618 -0.2307 -0.0413
 7517W        W23411  17.568   6.447   1.093  0.1925  0.2030  0.0311
 7518W        W23412  13.010   7.611  14.682 -0.1369 -0.0853  0.1448
 7519W        W23413   1.766   2.010  15.068  0.1074 -0.0975 -0.1165
 7520W        W23414  11.844   7.096  14.948  0.0049 -0.0351  0.4604
 7521W        W23415  14.096  16.171   1.309 -0.0365  0.0173 -0.1748
 7522W        W23416   6.171  12.358  11.300 -0.0160 -0.0306 -0.1474
 7523W        W23417  15.444  10.278  15.849  0.0767 -0.0965  0.0672
 7524W        W23418   7.238   1.371   4.424 -0.2253 -0.0827  0.0479
 7525W        W23419   4.832  13.632  15.823  0.1255 -0.3524  0.2347
 7526W        W23420  15.071   6.810   0.017 -0.3995  0.2153 -0.3116
 7527W        W23421  11.409  11.240  12.250 -0.1185 -0.0590  0.4276
 7528W        W23422   9.771   1.076  11.375 -0.0398 -0.2214 -0.3897
 7529W        W23423   4.535   4.187   3.028 -0.0956 -0.0128 -0.0724
 7530W        W23424  14.905   3.138  14.240 -0.2277 -0.2668  0.0227
 7531W        W23425  15.478  13.529  14.266  0.2121 -0.0078  0.0211
 7532W        W23426   2.592  16.401   0.529 -0.0800 -0.1335 -0.3264
 7533W        W23427   8.987  10.409   2.430  0.2580 -0.0150  0.4669
 7534W        W23428   8.577   5.724   4.047 -0.2556  0.0304 -0.0088
 7535W        W23429  12.405   6.776  13.727 -0.2665  0.1785 -0.0405
 7536W        W23430  14.632  13.319  12.523  0.3790  0.1085  0.0282
 7537W        W23431  14.151   0.282   0.154 -0.1998  0.2465  0.1168
 7538W        W23432   9.976   9.227   0.498  0.0228  0.0260  0.0935
 7539W        W23433   2.457   2.463   2.815  0.2359  0.2959  0.0023
 7540W        W23434  16.660  16.565  15.508 -0.3652 -0.0283  0.2918
 7541W        W23435   9.559  13.462  12.898  0.0072  0.1110 -0.1248
 7542W        W23436   8.373   0.453  15.959  0.0527  0.0224 -0.2541
 7543W        W23437  11.391   0.661  15.375  0.2630  0.0903 -0.0188
 7544W        W23438   4.567   2.694   1.995 -0.0663 -0.0484  0.0050
 7545W        W23439  10.326   3.037  13.493  0.3661 -0.0466  0.1824
 7546W        W23440  17.249  17.171   2.680  0.0225  0.2965 -0.3276
 7547W        W23441  10.706  12.010  15.374 -0.2598  0.1734  0.0634
 7548W        W23442   1.402  10.110   1.313 -0.4284  0.0320 -0.1282
 7549W        W23443   8.855  10.184   1.926  0.1484  0.0152  0.3963
 7550W        W23444   9.501   3.094  12.252 -0.1913 -0.2056  0.3144
 7551W        W23445   7.128   8.406   2.440 -0.2575 -0.0552  0.0545
 7552W        W23446  12.592   5.365   2.136 -0.3491  0.0611 -0.2788
 7553W        W23447  14.751  14.035  14.941 -0.1812 -0.0387  0.0662
 7554W        W23448  16.289   3.208  13.938 -0.3329  0.2342 -0.0059
 7555W        W23449   0.967  14.968   5.041  0.2962  0.0936  0.1213
 7556W        W23450  17.662   8.039  12.578 -0.0526 -0.2378  0.0268
 7557W        W23451  11.694   4.354  14.032  0.0261  0.2455  0.1223
 7558W        W23452   4.222   2.784   3.590 -0.2401  0.0648 -0.1733
 7559W        W23453   6.677   5.371   0.232  0.0900  0.1609 -0.0109
 7560W        W23454  13.094  10.394  16.556  0.1527  0.2519 -0.1677
 7561W        W23455  10.792  15.183  15.437  0.2029  0.1869  0.0279
 7562W        W23456   6.128   9.165   0.719  0.0643 -0.1260  0.0423
 7563W        W23457   5.201  11.549  14.289  0.0783  0.1918  0.0474
 7564W        W23458  10.633  11.293   0.293  0.1367 -0.1436 -0.2126
 7565W        W23459  12.328  14.675  11.917  0.3595  0.0343 -0.1337
 7566W        W23460  12.086   3.163  14.771  0.1537  0.0788  0.0256
 7567W        W23461   5.909   9.987   4.944  0.1048 -0.0600 -0.1896
 7568W        W23462  15.042   5.716   4.460  0.1054  0.2702  0.1788
 7569W        W23463  13.929  15.369  11.966  0.0506  0.0664  0.2584
 7570W        W23464  13.111  14.176   5.594  0.1093  0.2542  0.0031
 7571W        W23465  15.135  17.034   2.173 -0.1374 -0.0487  0.2488
 7572W        W23466   5.234  14.913   3.292 -0.4636 -0.1898  0.2077
 7573W        W23467  17.571   5.614   4.978 -0.2086 -0.3267 -0.0400
 7574W        W23468   0.983  17.445  16.541  0.0692  0.0221  0.1648
 7575W        W23469   2.328  14.731  16.672 -0.1120  0.0423 -0.2344
 7576W        W23470  16.443   0.233   0.666  0.1016  0.0878 -0.0846
 7577W        W23471  14.748  12.893   0.774 -0.1975  0.1065 -0.2416
 7578W        W23472  13.569  10.905  14.881 -0.1254  0.2177  0.0021
 7579W        W23473  15.181   9.916   4.484 -0.0638  0.0064 -0.0486
 7580W        W23474   5.328  17.605  14.266  0.1729  0.0833 -0.1060
 7581W        W23475  13.277   4.196   4.615  0.0156 -0.1061 -0.0783
 7582W        W23476  11.262   4.088  15.063 -0.2422 -0.2750  0.2828
 7583W        W23477   7.217  11.444   0.466 -0.2374  0.2061  0.0389
 7584W        W23478  11.108  11.619   1.514  0.1035 -0.1107  0.2280
 7585W        W23479   5.929  15.037   1.658 -0.1305  0.1093  0.1864
 7586W        W23480   5.513   9.938  15.408 -0.2963  0.1168 -0.2208
 7587W        W23481   2.963  11.127  14.094 -0.0632  0.1930 -0.1474
 7588W        W23482   5.518   0.728  14.252  0.0820  0.2503 -0.2611
 7589W        W23483   2.245   6.169   5.584  0.2731 -0.3135 -0.0396
 7590W        W23484   1.978   2.005   3.314  0.1326  0.3039 -0.1541
 7591W        W23485   9.653  16.872   1.169  0.3439 -0.1913  0.1477
 7592W        W23486  14.428  13.676   2.185 -0.0806  0.0974 -0.2678
 7593W        W23487  15.750  12.380   0.661 -0.1569  0.1439 -0.0520
 7594W        W23488  11.381   8.272  16.426 -0.0804  0.2540 -0.1911
 7595W        W23489   7.815  16.222  16.867  0.1388  0.0364 -0.2364
 7596W        W23490   0.262   7.872   1.369 -0.0846 -0.1517 -0.1349
 7597W        W23491  14.139   4.978  13.906 -0.0119 -0.0192  0.0957
 7598W        W23492   0.388   3.903   2.455 -0.2772 -0.0444  0.0375
 7599W        W23493  13.264   3.130  11.401 -0.1656  0.0949  0.1557
 7600W        W23494  16.632   4.609  15.534 -0.0935  0.2955 -0.1877
 7601W        W23495  15.948   0.539  13.744 -0.0384  0.3318 -0.1577
 7602W        W23496  14.210   9.884  15.339  0.1133 -0.1471 -0.1072
 7603W        W23497  11.391  16.535  16.674  0.1449  0.0185 -0.0669
 7604W        W23498   6.990   0.188  13.406  0.0375 -0.0579  0.1853
 7605W        W23499  10.013   6.496  13.172  0.0660  0.0289  0.1629
 7606W        W23500   8.665   6.062  11.026  0.1099  0.0271  0.3144
 7607W        W23501   9.966   8.153  14.196  0.0041  0.2498  0.0202
 7608W        W23502  10.253  13.109  16.070 -0.1966  0.1169 -0.2245
 7609W        W23503  10.916  11.994  14.776  0.0126  0.1493 -0.0128
 7610W        W23504  10.460  11.890  14.666  0.0021  0.1940 -0.1144
 7611W        W23505   7.280   1.462  13.928 -0.0549  0.0890  0.1768
 7612W        W23506  16.141   6.593  14.286  0.1734 -0.0063  0.3516
 7613W        W23507   8.574   6.648  14.322 -0.2463  0.1226  0.0111
 7614W        W23508   1.623  15.155   0.529  0.3577 -0.2498 -0.2919
 7615W        W23509   5.178  13.391  14.504 -0.1276 -0.0798 -0.1936
 7616W        W23510   6.412   2.536  15.679 -0.0901  0.0066 -0.2773
 7617W        W23511   6.214   5.963   1.209  0.1863  0.0578 -0.4266
 7618W        W23512  16.962   2.391  11.123  0.0242 -0.0700 -0.0793
 7619W        W23513   2.583   3.440   0.071  0.1842 -0.0070 -0.3764
 7620W        W23514   2.247  17.655   4.833  0.1145 -0.3777  0.1177
 7621W        W23515  11.468   0.450   0.324 -0.1089 -0.1218  0.1316
 7622W        W23516   7.368  10.037   4.470  0.0681 -0.1956  0.1054
 7623W        W23517   9.533  11.269   5.311  0.0857  0.1238  0.0218
 7624W        W23518   1.049  14.423  15.233 -0.0853  0.1670 -0.2549
 7625W        W23519   5.539  12.681  16.406  0.2836 -0.2005 -0.2313
 7626W        W23520  12.036   8.071  13.898 -0.3081  0.2270  0.0405
 7627W        W23521   4.815  10.949   5.045  0.3114  0.0438 -0.0480
 7628W        W23522   8.952  16.060   0.955 -0.3044 -0.0434 -0.0500
 7629W        W23523   2.332   3.893   2.512 -0.1529  0.0906  0.2695
 7630W        W23524   3.374   4.779  16.597 -0.0959 -0.2593 -0.0643
 7631W        W23525  14.222   5.557   1.308 -0.2179  0.2705  0.3876
 7632W        W23526   8.750   9.563  15.702  0.0065  0.1680  0.0075
 7633W        W23527  13.705   2.858   0.648  0.3894 -0.1810  0.0239
 7634W        W23528   4.552   5.128   5.592  0.2310 -0.1720 -0.0490
 7635W        W23529   1.483   7.521   5.331  0.1938  0.0370  0.0656
 7636W        W23530  12.553  11.973   2.700  0.0857 -0.1493 -0.0299
 7637W        W23531  15.711   7.938  11.905  0.1322  0.0761  0.1120
 7638W        W23532  12.200   4.397   3.275 -0.0529 -0.0086  0.2139
 7639W        W23533   6.812   8.475   0.895  0.1689 -0.0850  0.3453
 7640W        W23534  10.840  14.546   3.375  0.2206 -0.1051 -0.2137
 7641W        W23535   9.173   7.379   4.277 -0.1378  0.4850  0.0936
 7642W        W23536   2.542   1.040   5.988 -0.2283  0.1556 -0.0881
 7643W        W23537   0.559   0.443   1.990  0.3008  0.0035  0.2983
 7644W        W23538  13.136  10.710   1.647 -0.0158 -0.4043 -0.2436
 7645W        W23539  12.718   3.922  11.633  0.2967 -0.1178 -0.2813
 7646W        W23540   0.175   4.978  13.740 -0.2848 -0.1405 -0.0919
 7647W        W23541   2.433  13.815  14.744 -0.1789 -0.1681 -0.1749
 7648W        W23542   7.898   6.205  15.519 -0.0452 -0.2202 -0.0706
 7649W        W23543   0.322  10.521  11.889 -0.2464  0.1867 -0.1121
 7650W        W23544   1.512   1.789  12.166  0.1957 -0.0112 -0.0667
 7651W        W23545  16.370   1.976  15.634 -0.0567  0.1704 -0.4891
 7652W        W23546  13.114  17.708  12.723 -0.3684  0.0347  0.2706
 7653W        W23547   8.261  11.343   4.406 -0.1081 -0.1366 -0.0126
 7654W        W23548   6.488  12.485   4.493  0.2837  0.2769  0.0339
 7655W        W23549  13.168  13.468  13.416 -0.4684 -0.2702 -0.3685
 7656W        W23550   0.193   9.877   2.683  0.0812  0.7737 -0.2055
 7657W        W23551   4.188   7.025   3.763 -0.1315 -0.0791  0.1176
 7658W        W23552   8.715   1.442   5.923  0.1593 -0.1182 -0.4442
 7659W        W23553   2.998  15.467   4.050 -0.1459 -0.2354  0.0771
 7660W        W23554   0.553   0.580   4.141 -0.0858 -0.3424  0.2245
 7661W        W23555   0.067   0.192  15.703  0.2220  0.0255 -0.0976
 7662W        W23556  17.182   8.093  14.933  0.1823  0.1016  0.0824
 7663W        W23557   1.438  16.095  13.866 -0.1379 -0.0138  0.0928
 7664W        W23558   5.419   5.089  12.565 -0.0661 -0.0939  0.0004
 7665W        W23559   0.577   0.228  14.542  0.1003  0.1359  0.3017
 7666W        W23560   0.000   7.074   2.331 -0.3300  0.0144  0.0705
 7667W        W23561  10.274  14.380   1.503  0.1047  0.0439 -0.0085
 7668W        W23562   4.930   7.746   1.230 -0.0686 -0.3622 -0.0592
 7669W        W23563   8.394   5.140  14.614  0.1526 -0.0594  0.2425
 7670W        W23564  14.833   1.544  13.762  0.1259 -0.0775 -0.1874
 7671W        W23565  11.921   6.582   0.618 -0.0925 -0.3705  0.1259
 7672W        W23566  10.643   3.922  11.774  0.0702 -0.3962  0.2759
 7673W        W23567   2.186   3.662  13.644  0.1922 -0.1149  0.1288
 7674W        W23568   2.385  17.563  14.305  0.1330  0.0287 -0.0134
 7675W        W23569  11.951   3.377  12.079 -0.3425  0.3087  0.0996
 7676W        W23570  12.612   2.700  13.136 -0.0238 -0.1914 -0.0418
 7677W        W23571  13.637  11.836   3.489  0.2010 -0.1452 -0.0756
 7678W        W23572  13.563  15.141  13.989  0.0733 -0.3011 -0.0123
 7679W        W23573   0.404   1.838  15.426  0.4843 -0.1227 -0.3227
 7680W        W23574   4.056  17.223   3.041 -0.0362 -0.4595  0.0349
 7681W        W23575  13.806   8.844   0.143 -0.0227  0.0956 -0.2707
 7682W        W23576   3.024  16.561  14.929  0.2117 -0.0746  0.2121
 7683W        W23577  12.090  16.221  11.522  0.0263 -0.0881  0.0544
 7684W        W23578  13.887   2.021  11.176 -0.2867 -0.0388 -0.1229
 7685W        W23579  10.427   3.979   2.794  0.0325 -0.0369  0.3514
 7686W        W23580   5.135  10.754   0.512  0.1290  0.2054  0.3737
 7687W        W23581   2.304   0.744   5.051  0.0116  0.0815 -0.1661
 7688W        W23582   7.733  14.054   4.512  0.1065 -0.0888 -0.0530
 7689W        W23583  12.106   4.498   4.052 -0.0343 -0.2103  0.0443
 7690W        W23584  15.764  15.732  15.275  0.2586  0.1029  0.0978
 7691W        W23585   1.399  14.021   2.979  0.1399  0.1577 -0.0023
 7692W        W23586   8.354   3.465   6.201 -0.1790 -0.1985  0.1030
 7693W        W23587  14.464  17.376   4.305  0.0783 -0.0475  0.0997
 7694W        W23588   7.890   3.705   2.535 -0.2453 -0.1063  0.1234
 7695W        W23589  14.446   4.821   0.578  0.3865  0.2867  0.1270
 7696W        W23590   6.819   7.760  13.393 -0.0721 -0.0272 -0.0862
 7697W        W23591   6.029  16.170  14.891 -0.1218  0.1010  0.1259
 7698W        W23592  11.513   0.990  10.710  0.0377 -0.0402 -0.1688
 7699W        W23593  12.486  17.112  16.767  0.0846  0.1984  0.1278
 7700W        W23594  14.142   8.771  13.800 -0.0338 -0.1445 -0.0738
 7701W        W23595  15.030  10.528   6.457 -0.1924  0.0419 -0.3473
 7702W        W23596  14.486  13.722  15.945  0.1083  0.4136 -0.2461
 7703W        W23597   3.025   2.839   3.565  0.0753  0.0345  0.0433
 7704W        W23598  12.689   2.750  15.444 -0.2701  0.0993 -0.1140
 7705W        W23599   5.466  12.577  16.914  0.1879 -0.0320  0.2327
 7706W        W23600   7.821   9.740  16.709  0.0764 -0.1850 -0.0024
 7707W        W23601   3.723  14.235   1.600 -0.0808  0.1391  0.1430
 7708W        W23602   6.922   3.954  15.817  0.5040  0.1467 -0.1186
 7709W        W23603  10.482  11.042   2.534  0.0325 -0.1247  0.1051
 7710W        W23604  15.454  11.961   4.035 -0.1463 -0.2276 -0.3860
 7711W        W23605   5.901  17.212  11.995 -0.0079 -0.0870 -0.1056
 7712W        W23606   6.961   8.795   6.171  0.3376  0.3592 -0.0636
 7713W        W23607   9.997  11.230  13.712 -0.2519 -0.1298  0.2503
 7714W        W23608   0.690   5.514   6.141 -0.2405 -0.2015 -0.2380
 7715W        W23609   2.458   7.400  16.033 -0.2196  0.2084 -0.1013
 7716W        W23610   9.336   7.974  12.765 -0.0332  0.0311 -0.0799
 7717W        W23611  15.173   4.974   5.129  0.0138  0.0172  0.1628
 7718W        W23612   0.804  11.657   2.449  0.0671 -0.2481  0.2408
 7719W        W23613   4.174  11.553   1.314  0.0164 -0.2402  0.0395
 7720W        W23614  10.906  13.321  15.444  0.0830  0.0393 -0.0367
 7721W        W23615   4.203  12.835   2.964  0.2184 -0.1966  0.3171
 7722W        W23616  13.877  17.467  12.803 -0.2511  0.2516 -0.3087
 7723W        W23617   6.747   6.417   1.738  0.1118  0.0253  0.1600
 7724W        W23618   6.706   6.944  15.060 -0.0834  0.1551 -0.3272
 7725W        W23619  13.263   8.586  16.307 -0.1155 -0.1219  0.0627
 7726W        W23620   4.982  13.138   3.363  0.0348  0.1398  0.0632
 7727W        W23621   2.598  16.255   5.191 -0.1438  0.1569  0.0164
 7728W        W23622  12.413  13.347  16.624 -0.3308  0.1589  0.2309
 7729W        W23623   0.715   4.727  15.705  0.0242 -0.0868 -0.3590
 7730W        W23624   8.984  14.665  16.546  0.0323 -0.0308  0.0190
 7731W        W23625   9.361   9.615   4.146 -0.1706 -0.0817 -0.0766
 7732W        W23626  15.274   3.654   5.016 -0.1189  0.0580  0.1530
 7733W        W23627  10.951  12.347   2.687 -0.1672  0.3632 -0.0304
 7734W        W23628   6.463  14.077   5.479 -0.3148  0.1600 -0.2757
 7735W        W23629   7.406   1.224   1.667 -0.0860 -0.1580 -0.0642
 7736W        W23630  10.961   4.184  13.713 -0.0050 -0.4861  0.0019
 7737W        W23631   6.278   6.238   4.985  0.0830  0.2840 -0.0126
 7738W        W23632   1.926  14.667   5.281  0.2977  0.2103 -0.1241
 7739W        W23633   6.285  12.570   6.212 -0.0182  0.2689 -0.1856
 7740W        W23634   0.763  11.956   2.886 -0.0775  0.0152  0.2307
 7741W        W23635   2.262   9.291   5.247 -0.3278  0.0641  0.2173
 7742W        W23636   1.771  12.078   1.890  0.1194 -0.1849  0.1891
 7743W        W23637  10.902  10.096  11.926  0.0286 -0.0142  0.0650
 7744W        W23638   5.943   7.978   1.362  0.0789  0.3175 -0.0772
 7745W        W23639   1.921   8.047  16.222  0.0352  0.1227 -0.2127
 7746W        W23640  13.354   6.723  12.631 -0.1848 -0.1580  0.1708
 7747W        W23641   6.228   5.737  16.867  0.0396  0.0183 -0.0586
 7748W        W23642   8.914  17.780  15.695 -0.0027  0.2110 -0.0982
 7749W        W23643  11.870   4.344  11.591  0.2031  0.0375  0.3535
 7750W        W23644  14.045   8.382  16.737 -0.0907 -0.3034  0.0402
 7751W        W23645   9.769  15.820  13.231 -0.0902  0.0782 -0.0698
 7752W        W23646  12.991   6.428   0.275  0.1637 -0.1384  0.0644
 7753W        W23647  12.925   5.738   1.442 -0.2058  0.1711 -0.1320
 7754W        W23648   4.920  11.888   4.950  0.0819  0.0611  0.0837
 7755W        W23649   5.805   9.669   2.706  0.1132 -0.1286  0.0571
 7756W        W23650  16.163   5.138  12.069  0.0804  0.1386 -0.4460
 7757W        W23651   3.739  13.326   6.370 -0.2128  0.1297 -0.1378
 7758W        W23652  14.510  17.307  16.823 -0.2338  0.1674 -0.1048
 7759W        W23653   2.719   2.151  15.191  0.0345 -0.4167  0.2995
 7760W        W23654   1.723  11.664   4.807  0.1275  0.0026 -0.1458
 7761W        W23655   4.392  11.230  16.000  0.3994 -0.1319  0.2032
 7762W        W23656  12.547  14.429  12.279 -0.0933 -0.1017  0.1399
 7763W        W23657  16.122  14.564   4.922 -0.0854 -0.1208  0.2260
 7764W        W23658   3.227  15.518  15.729  0.1131 -0.0162  0.1074
 7765W        W23659  16.507   0.435   4.523  0.1720 -0.0060  0.1639
 7766W        W23660   1.229   9.241   2.353  0.2332  0.3066  0.0047
 7767W        W23661  13.609  13.899   3.021 -0.2248  0.3773  0.0057
 7768W        W23662   5.719  15.404   5.377  0.2460  0.3300 -0.1974
 7769W        W23663   5.238   8.336  12.758 -0.1623  0.0482 -0.0104
 7770W        W23664   7.159   1.045  16.111 -0.0094 -0.0076 -0.1394
 7771W        W23665   1.867   1.971   0.026  0.2233  0.1009  0.2346
 7772W        W23666   5.848  15.810  13.485  0.1623  0.1621  0.1829
 7773W        W23667  13.487   5.702   1.537 -0.0182  0.2564 -0.3759
 7774W        W23668   3.177   4.391   3.591 -0.4203 -0.0735 -0.0705
 7775W        W23669   2.121   6.028  13.679  0.1752  0.0022  0.2251
 7776W        W23670  13.862  15.153   6.143 -0.3338  0.1088  0.3895
 7777W        W23671  12.467   8.356   1.397 -0.1946  0.0308 -0.0562
 7778W        W23672   2.392   1.502  16.407  0.0416 -0.0391  0.2514
 7779W        W23673   0.279   6.005  13.337 -0.0627  0.1999  0.2585
 7780W        W23674   1.941   7.589  15.096 -0.1356  0.0687 -0.0095
 7781W        W23675  14.312  17.657   3.447  0.1496  0.0668 -0.0862
 7782W        W23676   7.127  13.654   6.151  0.1513  0.0520  0.0857
 7783W        W23677   6.491  13.041   2.312 -0.0927  0.1517  0.2031
 7784W        W23678  14.045  11.297   6.126 -0.2147  0.2071 -0.1837
 7785W        W23679   7.899   1.345   2.611 -0.0884  0.0751  0.1509
 7786W        W23680   1.942   5.696   1.991 -0.0198 -0.0122 -0.3397
 7787W        W23681  13.958   6.664  14.555  0.0802  0.0081  0.3186
 7788W        W23682  10.198  13.578  16.919 -0.0904 -0.0850  0.2437
 7789W        W23683  10.517   3.944  13.518  0.0631 -0.0360  0.2046
 7790W        W23684  16.931   2.057   4.523 -0.0789  0.1731  0.0809
 7791W        W23685  13.598  15.811   2.455 -0.1879 -0.2450 -0.2869
 7792W        W23686  14.298  17.032   1.680 -0.2570  0.1001 -0.1121
 7793W        W23687  11.838   4.187   0.858 -0.1355 -0.3040 -0.0680
 7794W        W23688   4.596   7.253  16.204  0.1993  0.0835  0.0087
 7795W        W23689   2.175   7.346  16.708 -0.0678 -0.2358 -0.0334
 7796W        W23690  11.072   3.444  16.352 -0.2530  0.0647 -0.0907
 7797W        W23691   4.295   7.905  14.863 -0.2255 -0.2537 -0.2154
 7798W        W23692  10.480  13.300   3.454  0.2008 -0.1119 -0.1654
 7799W        W23693  17.602   2.658   3.934 -0.0050  0.0645  0.1697
 7800W        W23694   0.109  17.808   1.350 -0.3565  0.0164  0.3844
 7801W        W23695   0.705   8.824   0.598 -0.3468  0.2104 -0.0163
 7802W        W23696  17.678  11.336  16.126  0.1456 -0.0081  0.0174
 7803W        W23697  14.851   3.118  13.725 -0.1416 -0.0840 -0.1159
 7804W        W23698   5.569   7.925   4.951  0.2004 -0.0565  0.0012
 7805W        W23699   5.072   9.282  12.821 -0.1244 -0.2304 -0.0107
 7806W        W23700   6.027  11.948  16.250 -0.0793 -0.1217  0.1018
 7807W        W23701   3.625   3.010  13.078 -0.2367 -0.0500 -0.0896
 7808W        W23702  12.562  16.154   4.241  0.0468 -0.0147  0.4236
 7809W        W23703   2.963   0.714  14.378 -0.1276 -0.0471  0.2690
 7810W        W23704   2.510   4.905  12.666 -0.0205 -0.1525 -0.1215
 7811W        W23705  17.134   8.110  12.808  0.0381  0.0609  0.0823
 7812W        W23706  15.391  16.330   2.788  0.2272 -0.2126  0.1860
 7813W        W23707   0.906   9.791  12.005 -0.1572 -0.4597  0.1017
 7814W        W23708  13.377   3.366  12.376  0.1634 -0.1539  0.1640
 7815W        W23709   7.157   6.936  15.510 -0.2099 -0.0660  0.0696
 7816W        W23710  11.095   2.362  16.824 -0.1788  0.1457 -0.1867
 7817W        W23711   7.418   3.688   6.601 -0.3258 -0.0883  0.0903
 7818W        W23712   1.229   9.736   4.360 -0.0467 -0.0592 -0.1220
 7819W        W23713  10.762   1.951  16.906  0.6541 -0.0468  0.1020
 7820W        W23714   5.119  10.402   0.164 -0.0464 -0.1555 -0.3096
 7821W        W23715   7.576  14.655  15.695  0.0392  0.2041  0.1713
 7822W        W23716  17.303   8.900  12.195 -0.2250 -0.1142  0.0047
 7823W        W23717   4.919   7.876   3.657  0.4694  0.1487  0.1585
 7824W        W23718   8.946  10.096   4.911 -0.1535  0.0434 -0.3715
 7825W        W23719  11.060   8.702  16.333 -0.0793 -0.3615  0.0529
 7826W        W23720   0.522   8.108   0.966 -0.0945  0.1051 -0.3464
 7827W        W23721   8.746   9.952   5.997 -0.0996  0.0380 -0.0137
 7828W        W23722   5.904  11.637   5.407  0.3486  0.1760  0.1802
 7829W        W23723  12.874   2.710   3.998  0.0647  0.1134  0.1419
 7830W        W23724  12.851   8.828   3.703  0.0682 -0.3177 -0.0590
 7831W        W23725   4.881   7.216   2.546 -0.1027 -0.4085  0.0770
 7832W        W23726  15.859   8.018   1.010  0.0427  0.2642  0.0617
 7833W        W23727  14.578   9.734  15.742  0.1415  0.1330  0.0523
 7834W        W23728  13.637  11.063   1.280 -0.1678 -0.2897  0.0570
 7835W        W23729   1.248   9.315   4.724  0.0773  0.1348 -0.0737
 7836W        W23730   1.846   6.285   5.260 -0.1788  0.2824  0.1644
 7837W        W23731   7.260   3.672   4.830  0.2262  0.1097 -0.2880
 7838W        W23732  10.453   8.436  13.398  0.2636 -0.4400 -0.3349
 7839W        W23733   1.627  10.434   3.722  0.2364 -0.3853  0.0541
 7840W        W23734   1.146  15.869   4.375  0.1380 -0.1547  0.3686
 7841W        W23735   6.200   4.415   3.533  0.3209 -0.2528  0.2132
 7842W        W23736   2.092  12.605  11.390 -0.0284  0.2274  0.0708
 7843W        W23737  16.951   0.594   3.517 -0.1517 -0.0931  0.0632
 7844W        W23738   6.276   7.360   5.485 -0.2369  0.0358  0.0669
 7845W        W23739   3.163   0.184   2.058  0.0103 -0.0341  0.0884
 7846W        W23740   2.984  13.852  14.071 -0.1076  0.0020 -0.2101
 7847W        W23741   0.925  17.280  12.049  0.0881 -0.0671 -0.2289
 7848W        W23742  13.467   3.338  16.449  0.0376 -0.1187 -0.0654
 7849W        W23743  16.835  13.300   6.488  0.0297 -0.2166 -0.0092
 7850W        W23744  10.094   2.928   3.922 -0.0134  0.0962  0.0504
 7851W        W23745  11.356   2.098   3.938 -0.1235 -0.2455  0.1489
 7852W        W23746   8.912  12.433   4.857  0.0832 -0.0687  0.3139
 7853W        W23747  16.611   4.680   0.269  0.0993 -0.1778 -0.2350
 7854W        W23748   4.865  13.732   3.639  0.0321  0.1421  0.1676
 7855W        W23749   3.704  12.737  13.095 -0.2972  0.0931  0.0906
 7856W        W23750   2.479  11.572   2.609  0.0891  0.1610  0.2880
 7857W        W23751  10.200   9.951   1.033 -0.1621 -0.2181 -0.2490
 7858W        W23752   9.170  15.614   5.331  0.1944 -0.1064 -0.4882
 7859W        W23753  17.285  10.166  15.891  0.1379  0.2394 -0.0052
 7860W        W23754   9.901  17.207   3.750 -0.0040 -0.3816  0.1153
 7861W        W23755   8.550   4.050   1.462 -0.3562  0.2473 -0.3274
 7862W        W23756  12.285   6.043  12.138  0.0878 -0.2057  0.2534
 7863W        W23757   4.990   6.574   4.628 -0.3237 -0.2292  0.1911
 7864W        W23758   3.515   5.355   0.344  0.2331  0.0543  0.0366
 7865W        W23759  12.198  15.953  13.211  0.0793  0.0530  0.0880
 7866W        W23760   3.721   5.130  16.726  0.0120  0.0420  0.0738
 7867W        W23761  11.206   1.230   0.899  0.0180 -0.1784  0.1431
 7868W        W23762  17.751   3.001  13.213 -0.0181  0.0810  0.1386
 7869W        W23763  12.842   5.614   5.229 -0.0474  0.1465  0.2166
 7870W        W23764   4.961  11.356   1.777  0.2643  0.1469  0.0382
 7871W        W23765  12.219  11.876   0.980  0.1347 -0.2479 -0.0984
 7872W        W23766   1.394  13.046  15.249  0.0339 -0.2798 -0.0453
 7873W        W23767  12.073   5.377   0.157  0.2485 -0.1452  0.0268
 7874W        W23768   1.348   9.284  15.073  0.1339  0.0003 -0.0655
 7875W        W23769   8.474  17.294   0.084 -0.0677 -0.2519 -0.3782
 7876W        W23770  16.685   8.611  14.452 -0.3079  0.2389 -0.1458
 7877W        W23771   9.366   2.533  12.278  0.3364  0.0137 -0.0364
 7878W        W23772   0.899   1.106  12.484  0.3303 -0.1700  0.2458
 7879W        W23773   0.891   0.350   2.787 -0.1725 -0.0698 -0.0010
 7880W        W23774  11.110  11.803   2.859  0.2119  0.1190 -0.0051
 7881W        W23775  12.645   1.306   1.195 -0.1546 -0.3897 -0.1322
 7882W        W23776  11.487  12.173  16.085 -0.2334 -0.4902 -0.4063
 7883W        W23777   4.875  14.069  13.987  0.0084 -0.0933 -0.3565
 7884W        W23778   9.257  11.524   2.425 -0.1163  0.3411 -0.1132
 7885W        W23779   7.909   5.615  12.966  0.2119  0.0607  0.1209
 7886W        W23780   0.008  11.756  15.127  0.0198 -0.0151 -0.1366
 7887W        W23781   6.930   7.528   4.811  0.1092  0.2381 -0.2298
 7888W        W23782   9.508   4.911  14.236  0.2441 -0.1791  0.3165
 7889W        W23783  14.975   2.748  12.665  0.2785 -0.1503  0.0546
 7890W        W23784   6.296  17.803   5.527 -0.1010  0.0760  0.1228
 7891W        W23785  10.063   1.024  15.318  0.2013  0.1262  0.1536
 7892W        W23786  13.004   8.288  13.693 -0.3223  0.2392 -0.2778
 7893W        W23787   6.662  15.383  12.055  0.1498 -0.2164  0.2369
 7894W        W23788  13.860  16.091  13.203 -0.1215 -0.3128 -0.2539
 7895W        W23789  17.173  17.816   0.992  0.2320 -0.3519 -0.2563
 7896W        W23790   3.839   8.373   0.877 -0.1336  0.1433  0.0718
 7897W        W23791  12.983  11.338   3.875  0.1541 -0.0290 -0.2275
 7898W        W23792  11.059  17.826  14.281 -0.1330  0.2478 -0.1632
 7899W        W23793   4.254   9.562   1.331 -0.0816  0.4550 -0.1047
 7900W        W23794  10.009  12.674  12.187 -0.0860 -0.2472 -0.3379
 7901W        W23795  11.892  11.746   6.251 -0.0755  0.0401  0.0695
 7902W        W23796   4.235   4.825  11.293 -0.2007 -0.2321  0.1132
 7903W        W23797  10.224   4.576  15.221 -0.4986  0.0732  0.1391
 7904W        W23798   5.271   9.863   0.195  0.1884 -0.0066 -0.2320
 7905W        W23799  12.437  11.088  16.362 -0.0781 -0.0801 -0.0476
 7906W        W23800   4.637  13.047   2.930 -0.2818 -0.2086  0.0618
 7907W        W23801   6.430  11.378   4.582  0.0167  0.0968 -0.0133
 7908W        W23802   0.740   0.965   2.748 -0.0282  0.0772 -0.1051
 7909W        W23803   1.541   4.732  13.023 -0.0451  0.1296  0.3008
 7910W        W23804  13.377   9.928  14.957 -0.1536 -0.0303 -0.2799
 7911W        W23805   2.547  14.950   2.523  0.1515 -0.0073 -0.1280
 7912W        W23806  15.420   2.098  10.904 -0.0537  0.0590 -0.0036
 7913W        W23807   6.729   9.641  12.169 -0.2249 -0.1058 -0.2615
 7914W        W23808  11.975  10.475  12.557  0.0041  0.0836  0.1816
 7915W        W23809   1.891  17.308  15.009 -0.1387  0.1004  0.1375
 7916W        W23810  14.603   2.639  13.022  0.0087 -0.3461  0.0786
 7917W        W23811  17.725   6.417   4.230  0.1654  0.1076  0.0651
 7918W        W23812   6.274   2.582  14.006  0.0308 -0.0549 -0.0393
 7919W        W23813  14.333   7.475   5.279  0.1092 -0.2307 -0.2150
 7920W        W23814   7.743   5.369  11.601  0.2653 -0.0620 -0.1026
 7921W        W23815   5.929  10.236  15.326 -0.1521  0.3399  0.1848
 7922W        W23816   1.295  15.315  16.855  0.1857 -0.2273 -0.0530
 7923W        W23817   6.677  17.706  14.494 -0.0998 -0.0548  0.0974
 7924W        W23818  16.178   0.472   2.885 -0.1667 -0.1771  0.2598
 7925W        W23819  15.641  11.472   2.581  0.2582  0.1812 -0.2761
 7926W        W23820   7.961   5.093   5.725  0.0443 -0.1717  0.2068
 7927W        W23821   6.523  10.316   0.860 -0.0078  0.0347  0.1314
 7928W        W23822  14.748  14.522   4.782  0.2135  0.1743  0.1546
 7929W        W23823  11.847   6.603   5.258  0.0181  0.3768  0.1115
 7930W        W23824   3.719  10.179  12.366  0.0771 -0.0956  0.1278
 7931W        W23825  16.384  12.640   2.594  0.0812  0.1577  0.4191
 7932W        W23826  15.139   8.808   5.173 -0.0600 -0.0986  0.0160
 7933W        W23827   4.036   6.404   2.735  0.0991 -0.1241 -0.3435
 7934W        W23828   5.856  17.446  16.786 -0.1974 -0.1076  0.0410
 7935W        W23829  16.611   1.890   2.235 -0.1695  0.4341  0.0816
 7936W        W23830  13.970  11.594   2.160  0.1359 -0.1078  0.0774
 7937W        W23831  13.160  13.522  14.989 -0.0417 -0.3053  0.0066
 7938W        W23832  13.832   1.621   0.514 -0.0322  0.1260  0.0752
 7939W        W23833   3.530   9.037  12.262  0.0052  0.0715 -0.2270
 7940W        W23834  10.328  15.351  15.944 -0.1692 -0.2202 -0.0598
 7941W        W23835   1.782   8.014   4.466  0.1949 -0.1841 -0.1083
 7942W        W23836  13.890   3.916  14.983 -0.1545 -0.1821  0.2059
 7943W        W23837   3.720  12.592  16.734 -0.0129 -0.3033 -0.0002
 7944W        W23838   1.706   9.731  12.783  0.0711  0.2159  0.0567
 7945W        W23839  12.101   0.630   5.417  0.3624 -0.1913 -0.0437
 7946W        W23840  15.198   7.398   5.944 -0.0814 -0.2641 -0.1181
 7947W        W23841   4.229   1.391   5.762 -0.1824  0.2139  0.0051
 7948W        W23842   3.844  15.353   1.681  0.0931  0.3116  0.0190
 7949W        W23843  16.058   8.413  15.698  0.0179  0.0997  0.1016
 7950W        W23844   2.186  13.528   3.009  0.2289 -0.2389 -0.2561
 7951W        W23845  10.096   2.962   1.231 -0.0896 -0.1560 -0.2017
 7952W        W23846   7.333   9.408   1.744 -0.2491  0.0969 -0.1333
 7953W        W23847  14.766  11.571  12.905  0.0380 -0.1349  0.1083
 7954W        W23848  11.567  14.617  15.705  0.1944  0.0006  0.1625
 7955W        W23849   4.399  12.460   5.341 -0.3261  0.1077  0.0661
 7956W        W23850  13.557  14.768  12.497 -0.1733 -0.1447  0.0492
 7957W        W23851  14.954   6.843  15.559  0.1745 -0.4692 -0.0356
 7958W        W23852   3.384  11.157   3.745 -0.4080 -0.4294 -0.3148
 7959W        W23853   0.332  10.852  14.242 -0.0188 -0.3403  0.1860
 7960W        W23854  10.460   5.520   2.613 -0.1892 -0.2639 -0.1762
 7961W        W23855   9.709   4.400   4.232 -0.0492  0.0775  0.1381
 7962W        W23856   9.050   3.639   2.182  0.0350 -0.1760 -0.2618
 7963W        W23857   6.284  13.118  13.012  0.1522  0.1061  0.0741
 7964W        W23858   3.761   4.419  12.971  0.0083  0.1362  0.3321
 7965W        W23859   8.788  12.518   5.695  0.1354 -0.1975  0.0233
 7966W        W23860  17.749  12.190  13.485 -0.3034 -0.2366 -0.0658
 7967W        W23861  14.083   2.271  15.379 -0.0870  0.2758  0.0981
 7968W        W23862   2.126  11.389   0.661  0.3028 -0.1714  0.0649
 7969W        W23863  13.957  11.214   1.687  0.0593  0.1156  0.1078
 7970W        W23864   8.790   8.765  13.507  0.1032  0.2451  0.0630
 7971W        W23865   3.602   9.776   1.577  0.1956 -0.1348  0.0805
 7972W        W23866   3.812   6.840   4.154 -0.2153  0.1683 -0.0712
 7973W        W23867  10.335  13.999  15.013 -0.2140  0.2005 -0.0488
 7974W        W23868  15.714   2.446   0.206  0.1371  0.0568  0.1709
 7975W        W23869   8.897   6.324  12.609 -0.4541 -0.0108 -0.0171
 7976W        W23870   2.149  17.174  12.966  0.1993 -0.0655 -0.0004
 7977W        W23871   1.503   9.451   5.686 -0.0257 -0.2535 -0.4481
 7978W        W23872   6.591   6.762  16.629  0.1731  0.5720  0.1462
 7979W        W23873   1.892  10.428   3.199  0.2084 -0.0836  0.2570
 7980W        W23874   7.143   9.135   3.944 -0.1823  0.1087 -0.2223
 7981W        W23875  17.276   9.984  16.757  0.4105 -0.0396 -0.1466
 7982W        W23876  10.198  11.659   2.919 -0.0742 -0.1606 -0.2886
 7983W        W23877  11.662   1.956  16.471  0.2451 -0.1344 -0.4142
 7984W        W23878  16.790  11.159   5.073 -0.1793  0.0905 -0.0055
 7985W        W23879   6.761  16.168   0.909 -0.2269  0.0154 -0.2677
 7986W        W23880   0.095  10.277   3.376  0.0470 -0.0447  0.1421
 7987W        W23881  16.497  15.963  13.193 -0.0999  0.0785  0.0243
 7988W        W23882  17.139   2.157   0.798 -0.3734  0.0946 -0.1929
 7989W        W23883   7.312   6.024   5.802 -0.0087  0.0547 -0.1186
 7990W        W23884   0.484  11.213   1.696  0.0021  0.1069 -0.0242
 7991W        W23885  11.323  13.556   2.156  0.2204  0.0337 -0.2341
 7992W        W23886   3.765   8.932   5.238 -0.0360  0.1798  0.1218
 7993W        W23887   6.538  15.233  16.287 -0.1752 -0.0751 -0.1536
 7994W        W23888  11.455   0.156  13.286  0.1621  0.2636 -0.2266
 7995W        W23889  13.374   9.624   4.378 -0.1952 -0.0274 -0.0420
 7996W        W23890   4.240   1.408  16.718 -0.2642  0.1966  0.0104
 7997W        W23891   8.448  13.418   5.987  0.1192  0.1612  0.0080
 7998W        W23892  10.918  12.423   5.760 -0.1580 -0.2986 -0.2275
 7999W        W23893  10.898  16.456  12.655  0.1082 -0.0249  0.4624
 8000W        W23894  13.714   6.231  15.270  0.3480 -0.0376 -0.0971
 8001W        W23895   4.119  17.813   0.936  0.0083  0.0752 -0.0048
 8002W        W23896  15.778  16.652  14.299 -0.1322  0.3801  0.0161
 8003W        W23897   8.253  12.065  15.008  0.1953  0.2031  0.1005
 8004W        W23898   0.061   0.947   5.237 -0.0125  0.0961 -0.0620
 8005W        W23899  14.413  10.779   3.317 -0.3245  0.1480  0.3816
 8006W        W23900   3.609  10.899  14.762  0.0245 -0.0999  0.1883
 8007W        W23901  16.750   2.197   5.996 -0.0294  0.2605  0.1455
 8008W        W23902  13.211  12.145  13.726 -0.2509 -0.0343  0.0048
 8009W        W23903   7.991   7.718   3.690 -0.3528  0.0370 -0.0626
 8010W        W23904  15.974  16.630   0.884  0.1334  0.1410 -0.1289
 8011W        W23905   0.777  13.247   0.517 -0.3543  0.1342  0.0655
 8012W        W23906   8.290   2.721   4.296 -0.0869  0.1607  0.1766
 8013W        W23907   1.134   5.563   5.852 -0.1735 -0.3049 -0.0047
 8014W        W23908  12.086  11.755   1.451 -0.0032 -0.0697  0.0232
 8015W        W23909   7.099   2.441  12.221  0.2932  0.1153  0.1138
 8016W        W23910   3.003   3.254   4.535 -0.0523  0.1772 -0.1708
 8017W        W23911   6.442  12.791  12.074 -0.0001 -0.0325 -0.0014
 8018W        W23912   9.786   1.866   1.742  0.0789  0.1749 -0.3502
 8019W        W23913  10.650   5.223  15.518 -0.0825  0.0774 -0.0975
 8020W        W23914  16.170   0.477   4.117  0.1963 -0.0329  0.0847
 8021W        W23915  16.181   1.654   2.165 -0.0542  0.3199  0.1991
 8022W        W23916   9.872   9.246  16.865  0.1626 -0.0241  0.0857
 8023W        W23917  11.712   2.775   2.826  0.0152 -0.1315 -0.1383
 8024W        W23918   6.759  12.407  14.022 -0.0872  0.3584 -0.1641
 8025W        W23919   2.076  16.510   1.427  0.2007  0.1867  0.2918
 8026W        W23920   7.979  16.428   0.670 -0.4015  0.1810  0.0085
 8027W        W23921  10.895   4.753   1.482  0.0988 -0.2469  0.0644
 8028W        W23922   8.756  15.598  13.354  0.2977  0.4242 -0.3751
 8029W        W23923   5.062  17.081  14.885 -0.1280  0.0211  0.2759
 8030W        W23924  17.517   6.573   3.367 -0.0971 -0.0109 -0.1154
 8031W        W23925   7.253  15.576  12.637 -0.2916 -0.0635  0.0006
 8032W        W23926  15.091  16.658   1.153  0.2867 -0.2566  0.0376
 8033W        W23927   9.313   3.983   1.880  0.2487  0.0244 -0.1001
 8034W        W23928   0.779   4.674   5.378  0.0218 -0.3643  0.0244
 8035W        W23929  17.634   9.387  15.800  0.4016 -0.2396  0.1370
 8036W        W23930   5.612   8.400   1.300  0.0139  0.1151 -0.1155
 8037W        W23931  11.139   0.654   4.390 -0.0481 -0.0142  0.1508
 8038W        W23932   8.169   2.147   3.373 -0.0001 -0.2867  0.4096
 8039W        W23933  16.613  12.084   1.860 -0.0152  0.1869 -0.2269
 8040W        W23934   6.066   1.122  16.684 -0.1048 -0.2245 -0.0992
 8041W        W23935   0.136  10.198   6.139 -0.0445  0.0930 -0.1367
 8042W        W23936   4.407  17.479   5.685  0.1547  0.1034  0.1845
 8043W        W23937   5.492   0.125  12.944 -0.1302 -0.0304  0.3589
 8044W        W23938   7.403  15.780  12.185  0.1021 -0.2102 -0.0594
 8045W        W23939   4.924  11.329  16.758 -0.0171  0.1493 -0.3124
 8046W        W23940   9.841   0.046  16.029  0.1266  0.1089 -0.2424
 8047W        W23941   5.089  16.170  13.869 -0.5780 -0.1922 -0.2659
 8048W        W23942  14.773  16.266  15.026 -0.0044  0.1094  0.0972
 8049W        W23943  16.745  16.395  12.895 -0.2164 -0.0232  0.1613
 8050W        W23944  17.156  12.507   4.978  0.1327 -0.0349  0.0242
 8051W        W23945  13.033  17.044   5.185 -0.1239 -0.0427  0.1665
 8052W        W23946   5.101  13.751   5.281 -0.1315 -0.3329  0.1362
 8053W        W23947  13.037   2.303  13.913 -0.0804  0.1756  0.2963
 8054W        W23948   5.677   7.511   5.279 -0.1329  0.0817  0.1984
 8055W        W23949  15.155   7.998  12.226 -0.0551 -0.1795 -0.2623
 8056W        W23950  14.939   9.865  16.065  0.4450  0.2214 -0.3288
 8057W        W23951   2.429   5.256   2.575  0.0948 -0.0135 -0.0564
 8058W        W23952   9.188  12.850   0.441 -0.1088  0.0346  0.1538
 8059W        W23953   4.841   0.688  13.328 -0.0738 -0.2415  0.0109
 8060W        W23954  10.790   7.439  16.556 -0.1978  0.3297 -0.0397
 8061W        W23955   7.854  10.199   5.131 -0.0513 -0.1814 -0.1734
 8062W        W23956   2.942   8.168  14.125  0.2924  0.0310 -0.1569
 8063W        W23957   4.011  15.036  14.522  0.0452 -0.0569 -0.3524
 8064W        W23958   0.951   3.399  11.922  0.0355 -0.1381 -0.0653
 8065W        W23959  12.247   0.590  15.949 -0.2299 -0.0593  0.0082
 8066W        W23960   8.271  16.783   5.379  0.0209 -0.0840  0.4902
 8067W        W23961  11.331   6.751  15.225 -0.1083 -0.1902 -0.1901
 8068W        W23962   4.644   8.938   5.482  0.0891 -0.0252 -0.2522
 8069W        W23963   3.690   6.929   5.892  0.0380 -0.0465  0.0014
 8070W        W23964  11.916   4.813   2.002  0.2614  0.0806 -0.1920
 8071W        W23965  16.643  14.225  15.197  0.1199  0.3815  0.0077
 8072W        W23966  17.270   4.451  16.359 -0.2529  0.5493  0.0527
 8073W        W23967   7.293   0.597  16.745 -0.1420  0.0033  0.0718
 8074W        W23968   6.161   2.977  11.787  0.2600  0.3091 -0.5033
 8075W        W23969   1.864   4.339  11.635 -0.0066 -0.0138  0.4102
 8076W        W23970   0.333   3.956   3.080 -0.2024 -0.2677 -0.1000
 8077W        W23971  10.811   4.914   2.007 -0.1847 -0.0317  0.0491
 8078W        W23972  13.171  16.442  12.696  0.1330 -0.1394  0.2084
 8079W        W23973   6.900  11.730   3.142 -0.1708 -0.2778 -0.0407
 8080W        W23974  14.389   9.927  14.691  0.1950 -0.2872 -0.1535
 8081W        W23975   7.614  14.798  12.771  0.1522 -0.0185 -0.0741
 8082W        W23976  17.103  11.481  12.549 -0.2102 -0.1080 -0.2207
 8083W        W23977  15.049   7.172  11.641 -0.3875 -0.0732 -0.2875
 8084W        W23978   8.102   8.530   4.981 -0.0944 -0.1059 -0.1146
 8085W        W23979   6.503  10.367   4.242  0.0822  0.1981  0.0582
 8086W        W23980  14.709   2.319   4.744  0.0233 -0.0759 -0.0001
 8087W        W23981  17.473  16.224   2.302  0.0525 -0.3817 -0.0529
 8088W        W23982   2.209   8.299  13.465  0.0943 -0.4482  0.0084
 8089W        W23983   4.745  17.064   5.663 -0.0075  0.1367 -0.2652
 8090W        W23984  11.361   4.695   1.445 -0.4129 -0.1503 -0.0870
 8091W        W23985  17.282  11.220   1.955  0.2996 -0.3381 -0.1188
 8092W        W23986   2.570  14.596  14.141  0.3470 -0.0517  0.2705
 8093W        W23987   0.356  14.511   4.922 -0.0091 -0.0669  0.0516
 8094W        W23988  15.439  11.346  13.541  0.2489  0.2857 -0.1608
 8095W        W23989   6.058  13.222  15.526 -0.2436 -0.1508  0.1596
 8096W        W23990  15.431  17.643   3.317  0.2371 -0.2657 -0.1710
 8097W        W23991   4.994   3.243   0.477 -0.0066  0.0367  0.2169
 8098W        W23992   6.450   4.656   4.130  0.0731  0.3011 -0.0192
 8099W        W23993   6.162   1.663   4.333 -0.1902  0.1085  0.1373
 8100W        W23994  12.804  15.453  16.722 -0.1724 -0.2135  0.1710
 8101W        W23995  14.273   5.105   4.961 -0.0253 -0.2536  0.1989
 8102W        W23996   1.260  14.986   3.650  0.1204 -0.0338 -0.2011
 8103W        W23997  15.292   7.181  12.105 -0.1795 -0.0691  0.1202
 8104W        W23998  13.753   2.585  16.737  0.2347 -0.0328  0.2509
 8105W        W23999   8.947  12.841  15.807  0.1254 -0.2215 -0.1933
 8106W        W24000   6.802  14.042  11.383  0.1883 -0.0559 -0.3794
 8107W        W24001  17.434   5.662  16.747  0.1411 -0.0008  0.0771
 8108W        W24002   3.493   6.087  11.692  0.1801  0.2277 -0.0366
 8109W        W24003  15.189   9.373  15.332  0.1698 -0.1045  0.1883
 8110W        W24004   1.128  12.584   2.402 -0.1733 -0.3728 -0.1158
 8111W        W24005  13.140   3.824  12.786 -0.2508 -0.1245  0.1483
 8112W        W24006  15.006  14.419   5.507  0.0398  0.4624  0.1460
 8113W        W24007   7.187  12.716   1.855 -0.1287  0.0002 -0.0513
 8114W        W24008   5.150  12.074  12.948 -0.1141 -0.1312 -0.0012
 8115W        W24009   1.129   5.820   3.083 -0.0868 -0.0821  0.3535
 8116W        W24010  10.166  15.150   1.903 -0.2306 -0.1440  0.1994
 8117W        W24011  11.420   5.337   2.531 -0.0538 -0.0139 -0.2618
 8118W        W24012  14.336   5.937   1.692 -0.1994 -0.1544  0.0871
 8119W        W24013   8.075  13.433   2.818  0.1527  0.1360 -0.0381
 8120W        W24014  16.299   1.328  12.329 -0.0741 -0.1570  0.4349
 8121W        W24015  11.551   0.576  12.684 -0.2106 -0.2919 -0.3464
 8122W        W24016   1.880   8.602   1.245 -0.1698  0.2165 -0.3354
 8123W        W24017  13.469  16.367   4.004 -0.2243 -0.2281 -0.3396
 8124W        W24018   7.580  13.621   4.847 -0.0271  0.3436 -0.3064
 8125W        W24019   7.059  15.799  13.820 -0.2860  0.1069  0.1961
 8126W        W24020   0.212  15.585  16.495  0.0177  0.0937  0.0276
 8127W        W24021  14.149  10.206   3.249 -0.2055 -0.0836 -0.2577
 8128W        W24022   9.918   8.764   0.291  0.0567  0.2304 -0.2422
 8129W        W24023  15.804   8.183   2.434 -0.1742  0.0803  0.1392
 8130W        W24024   6.454  11.212   1.832  0.3857 -0.1922  0.1648
 8131W        W24025   8.447   5.702  14.368  0.1674  0.0615 -0.1945
 8132W        W24026   2.660   8.573  12.542 -0.2345 -0.1824  0.0839
 8133W        W24027   3.258   0.393  12.148  0.0952 -0.1278  0.0060
 8134W        W24028  13.867   8.536   0.571  0.0795 -0.0498  0.0516
 8135W        W24029   8.563   2.704  15.557 -0.4062 -0.1515 -0.1357
 8136W        W24030   2.339  11.103   3.851  0.0510 -0.1675  0.2190
 8137W        W24031   1.293  10.179  13.296  0.0359  0.1230  0.0389
 8138W        W24032   7.121   8.544   1.948  0.1598  0.0254 -0.0113
 8139W        W24033   0.310   4.660  16.026  0.3492  0.2793 -0.1335
 8140W        W24034   1.987   2.409   3.030 -0.1315  0.1547  0.2227
 8141W        W24035   1.693  15.820   4.159  0.3902  0.2031 -0.2212
 8142W        W24036   2.358  16.296   5.710  0.2771 -0.1394 -0.0182
 8143W        W24037  15.700  15.248   3.923  0.1259  0.0442  0.0347
 8144W        W24038   7.161  15.148  13.985 -0.1682  0.7182 -0.1858
 8145W        W24039   4.605   2.089  13.858 -0.2620  0.0117 -0.0600
 8146W        W24040   7.049   5.112   2.033  0.0852  0.0116 -0.2193
 8147W        W24041  14.872  15.467   0.058 -0.1795  0.1598 -0.3351
 8148W        W24042   7.514  16.397   4.945  0.4865  0.5418 -0.0032
 8149W        W24043  11.862  12.020   5.451 -0.2081  0.0205  0.0599
 8150W        W24044   4.046   9.303  12.199 -0.4429 -0.0099 -0.3287
 8151W        W24045   8.407  15.094   3.730 -0.2831  0.1223  0.0841
 8152W        W24046  15.738   3.239  15.433  0.1572  0.0486 -0.1320
 8153W        W24047  14.212   2.083   3.596 -0.2866  0.1061 -0.1448
 8154W        W24048   8.440  13.182   0.274 -0.0535  0.0132 -0.0340
 8155W        W24049   2.866   6.253   4.837  0.1544  0.0177 -0.2533
 8156W        W24050   9.010   0.904  11.955 -0.0565 -0.4156 -0.0527
 8157W        W24051   3.301  17.631   3.973 -0.0372  0.4729  0.1722
 8158W        W24052   2.388  12.064   5.489  0.0211 -0.0364  0.0313
 8159W        W24053   6.707  13.817  12.577 -0.0268 -0.3010  0.2187
 8160W        W24054  14.942   3.892  11.296  0.0163 -0.0854 -0.0092
 8161W        W24055   0.624   4.923  11.242 -0.0702  0.0322 -0.1274
 8162W        W24056  15.896  12.252   3.980  0.1806 -0.2312 -0.3374
 8163W        W24057   0.502   2.432  10.393 -0.2293  0.1778 -0.2129
 8164W        W24058   7.869  11.783   0.888  0.0776 -0.1077  0.0440
 8165W        W24059  12.056   9.586  16.195 -0.0871  0.0177 -0.2370
 8166W        W24060  10.897   7.834   5.843  0.2324 -0.1708  0.0308
 8167W        W24061   7.218   1.957   1.131  0.0046 -0.2486 -0.0475
 8168W        W24062   5.457   0.510  12.065 -0.0944  0.0492 -0.2832
 8169W        W24063   8.565  10.603  14.506  0.0543 -0.1166  0.0590
 8170W        W24064  11.259  11.554   4.646  0.1793  0.0070  0.1503
 8171W        W24065  11.994   5.113  16.442  0.3678  0.1754  0.0560
 8172W        W24066   1.297  13.174   3.092  0.0421  0.1857  0.0313
 8173W        W24067   4.255  10.081   2.593 -0.2040  0.2745 -0.1830
 8174W        W24068  15.192  13.511  13.746  0.0565  0.0918 -0.1888
 8175W        W24069   9.037  11.615  16.125 -0.2104 -0.1020 -0.0292
 8176W        W24070  13.077   0.231  11.834  0.0707 -0.1399 -0.1800
 8177W        W24071   1.357   5.265  14.424  0.3356  0.0796 -0.0631
 8178W        W24072   5.549   2.666   1.829 -0.2937 -0.1101 -0.0591
 8179W        W24073   0.450  11.939   5.075  0.0097  0.0564 -0.1664
 8180W        W24074   6.712  15.483   1.001 -0.0349  0.0528  0.0805
 8181W        W24075  13.421   4.257  15.553  0.1342 -0.0089  0.0251
 8182W        W24076  16.335  13.584   5.569  0.1745 -0.0756 -0.0042
 8183W        W24077  17.263  11.203   0.669 -0.1219  0.1594  0.2474
 8184W        W24078  13.977   8.318  12.210 -0.2016  0.0219 -0.0103
 8185W        W24079  11.637   4.099  12.309 -0.0809 -0.3493 -0.1043
 8186W        W24080   9.423  14.636   1.664  0.2878 -0.3891 -0.4981
 8187W        W24081   8.709   4.911  15.056  0.2508 -0.1226 -0.0636
 8188W        W24082   3.698  14.950   2.113  0.0493  0.0315 -0.3969
 8189W        W24083  12.872   0.109  11.383 -0.2954 -0.1469 -0.0486
 8190W        W24084   9.757  12.606  15.092  0.2556 -0.0861  0.1177
 8191W        W24085   7.138  10.474   4.876 -0.1950  0.1094 -0.1849
 8192W        W24086  17.517   3.564   2.453 -0.3216 -0.1022 -0.0757
 8193W        W24087  11.073   8.780  12.809 -0.0050 -0.0469  0.1031
 8194W        W24088   5.661   4.616  13.666 -0.0776 -0.2252  0.3197
 8195W        W24089   7.742  17.053   3.219  0.2240 -0.2210  0.1121
 8196W        W24090   0.572  16.305   5.597  0.0967  0.2683 -0.0356
 8197W        W24091  12.248  13.868   4.528  0.2858  0.0332 -0.1052
 8198W        W24092  15.361  10.779  15.662 -0.0774 -0.0254 -0.1929
 8199W        W24093  14.298  14.473  16.175 -0.0645  0.1308 -0.0102
 8200W        W24094  15.128  12.277  12.960 -0.0677  0.0230  0.0310
 8201W        W24095  10.597   3.461  13.649  0.0256  0.1561  0.0022
 8202W        W24096  12.836   7.928  12.568  0.2028 -0.0103 -0.2026
 8203W        W24097   9.941   6.867   0.624  0.3555 -0.0263 -0.1765
 8204W        W24098  17.492   1.777   4.896 -0.1520 -0.0401  0.1200
 8205W        W24099   0.151  13.589  13.046 -0.1400 -0.0428 -0.1329
 8206W        W24100  16.547   0.159  15.529 -0.0846  0.2418  0.0245
 8207W        W24101  12.014  10.099  12.923  0.0356 -0.2051 -0.2425
 8208W        W24102   4.884  12.769  13.590 -0.0492 -0.0421  0.4021
 8209W        W24103  16.625  15.325  13.515  0.0176  0.1092  0.0442
 8210W        W24104  11.315   4.072   2.253  0.0998 -0.2904  0.1896
 8211W        W24105   0.352  14.425   1.522 -0.0564 -0.0062 -0.4076
 8212W        W24106   7.143   0.232   6.055  0.1859  0.2457 -0.1358
 8213W        W24107  12.069  14.799   2.668 -0.0062  0.0629 -0.2643
 8214W        W24108  11.230   2.951  14.728  0.2271 -0.1973 -0.5879
 8215W        W24109   8.276   1.108   1.403 -0.2083 -0.1845 -0.1317
 8216W        W24110  11.372   0.027  11.923 -0.0511 -0.2186 -0.2565
 8217W        W24111   8.988  16.613  13.068 -0.3312 -0.0123  0.4360
 8218W        W24112   4.037   2.642  12.322 -0.0456  0.3847  0.2864
 8219W        W24113  13.863   4.152   1.503  0.0938  0.1135  0.2978
 8220W        W24114   4.778  14.567  14.193  0.1225  0.0102  0.1510
 8221W        W24115   0.533   1.196   4.998 -0.0144  0.0874  0.1659
 8222W        W24116   1.878   2.469  16.866  0.3576 -0.2517 -0.2534
 8223W        W24117   6.571  10.551   1.266 -0.0344 -0.0247  0.3170
 8224W        W24118  11.552   3.311   2.785  0.1342  0.0810  0.2892
 8225W        W24119   0.665   1.736   3.201  0.2861 -0.0530 -0.0151
 8226W        W24120   1.344  11.336   5.766 -0.0589  0.0369 -0.2380
 8227W        W24121  13.310  15.053   1.777 -0.3063  0.0081  0.1861
 8228W        W24122  12.883   6.811  15.632  0.0562  0.3565  0.1779
 8229W        W24123  10.842   4.349  12.733  0.0808 -0.0871 -0.1295
 8230W        W24124   4.075  17.782  12.878 -0.1964 -0.1281  0.2823
 8231W        W24125  16.669  15.606   0.707  0.0904 -0.0321 -0.1025
 8232W        W24126  15.873  11.616   0.121  0.0191  0.1493  0.0928
 8233W        W24127   3.748   8.478   5.053 -0.1452  0.0935 -0.1788
 8234W        W24128  11.869  11.290  15.188  0.3018 -0.0469  0.0744
 8235W        W24129   9.083  15.420   3.845  0.1057  0.1182 -0.2084
 8236W        W24130   2.076   1.751  14.731  0.2448 -0.0610 -0.0848
 8237W        W24131  10.637   5.755   1.161 -0.0516 -0.1282  0.0107
 8238W        W24132  16.213  12.715   1.695 -0.1644  0.0457 -0.2087
 8239W        W24133   2.584  11.449  16.176 -0.1978  0.0951 -0.1415
 8240W        W24134   7.725  15.260  14.109  0.0898 -0.0031  0.0386
 8241W        W24135   9.676  15.435   3.847  0.0762 -0.0863 -0.0343
 8242W        W24136   1.669   8.742  16.449 -0.1700  0.3872  0.0116
 8243W        W24137  11.756   5.875   0.012  0.0890  0.0772 -0.0100
 8244W        W24138  10.486   4.597   1.671  0.3486 -0.0518 -0.1986
 8245W        W24139   8.442   6.295  12.387  0.0357  0.0688  0.1517
 8246W        W24140  16.789  14.064  12.175  0.0203  0.0470  0.0863
 8247W        W24141  17.543   9.459  16.284  0.0017  0.1776  0.0339
 8248W        W24142  10.333  10.305  15.797  0.0189  0.0162 -0.3222
 8249W        W24143   2.608   8.665  16.632  0.2772 -0.2204 -0.0412
 8250W        W24144   4.072   5.028   5.466  0.1276  0.1236  0.3846
 8251W        W24145  10.004  15.357  16.449  0.3073  0.2028  0.0988
 8252W        W24146  11.284   9.104  13.232  0.0064  0.2176  0.2040
 8253W        W24147   6.068   0.771  15.227 -0.1509 -0.0339 -0.2632
 8254W        W24148   1.412   3.763   2.409  0.0441  0.4836 -0.0275
 8255W        W24149  10.901   8.403   3.726 -0.3574  0.2785  0.2034
 8256W        W24150  16.810  11.933  12.614 -0.1076 -0.0354  0.0435
 8257W        W24151  14.608   4.618  12.445  0.0593 -0.1508  0.1595
 8258W        W24152  12.471  16.693   0.999 -0.1820 -0.2023  0.0264
 8259W        W24153   8.612   5.877  13.822 -0.0830 -0.0083  0.1837
 8260W        W24154  14.446  12.445  13.496 -0.1215  0.3791 -0.0721
 8261W        W24155   0.038   3.704  16.603  0.0812  0.3302  0.0118
 8262W        W24156   1.331  10.415   3.218  0.1796 -0.0852  0.0680
 8263W        W24157  13.719  13.711   2.048  0.0466 -0.0553 -0.1193
 8264W        W24158   9.720  16.191   0.380  0.0897 -0.0213  0.1902
 8265W        W24159  14.011  13.630   4.789 -0.2568  0.0918  0.0062
 8266W        W24160   1.363  17.132  16.767 -0.0930  0.1019 -0.0105
 8267W        W24161   4.229   8.620   1.327 -0.0837  0.0661 -0.2490
 8268W        W24162   0.055  12.469  15.223  0.0745  0.1975 -0.1580
 8269W        W24163   7.307  17.180  16.874  0.0508  0.1275  0.0133
 8270W        W24164   7.308   6.621   3.268 -0.0778 -0.2411 -0.0183
 8271W        W24165   7.526   0.529  11.651 -0.1459  0.1334  0.3231
 8272W        W24166  14.437   3.826  11.230  0.2851  0.2315 -0.1283
 8273W        W24167  15.221  12.068   0.829 -0.0755  0.0911  0.0120
 8274W        W24168   1.686   3.468   2.004  0.0029 -0.1495  0.2708
 8275W        W24169   0.738  17.603   2.859 -0.0801  0.1386  0.0575
 8276W        W24170   9.790   2.016   5.649 -0.0337 -0.0371 -0.1029
 8277W        W24171   5.100  16.301   0.513  0.2209  0.0816 -0.5302
 8278W        W24172  13.711   3.383  11.411 -0.1069 -0.0490  0.3306
 8279W        W24173   5.670   7.583   3.092 -0.1458 -0.0121  0.1277
 8280W        W24174  14.869   7.045  14.599 -0.0260  0.0419  0.2885
 8281W        W24175   7.626  16.977   3.766 -0.1886  0.2249  0.0865
 8282W        W24176  15.208  14.284  13.459  0.3839  0.0097  0.1227
 8283W        W24177  16.074  11.728  13.999 -0.2796  0.0259  0.0943
 8284W        W24178  15.422   5.056   1.292 -0.0110 -0.0278 -0.3059
 8285W        W24179   4.213   3.060  15.636  0.0441 -0.1386  0.3567
 8286W        W24180  15.453  17.090  15.480 -0.3974  0.2458 -0.2166
 8287W        W24181   9.604   9.472  15.470  0.1407 -0.0954 -0.1662
 8288W        W24182  15.416   7.755  15.474  0.4662 -0.2553 -0.2220
 8289W        W24183   6.611  16.754   4.562  0.0873 -0.2571 -0.3171
 8290W        W24184   7.742   1.350   5.718  0.2664 -0.1952 -0.0552
 8291W        W24185   7.030   4.201   2.639 -0.1430 -0.1969  0.3109
 8292W        W24186  13.697   5.141   0.205  0.1300  0.0416  0.1484
 8293W        W24187  12.581   2.398   0.443  0.0673 -0.1609 -0.0360
 8294W        W24188   6.440  11.324  13.941 -0.2687 -0.2452  0.3769
 8295W        W24189   5.891  11.746   2.887  0.0461 -0.0435 -0.2119
 8296W        W24190   9.378  16.757   2.049 -0.5240 -0.1686 -0.1695
 8297W        W24191  13.949   1.832  15.839 -0.2169  0.0209  0.3201
 8298W        W24192  16.700  12.662   3.684 -0.2983  0.2099  0.0891
 8299W        W24193  11.788  13.260   3.939 -0.1483  0.0119  0.3349
 8300W        W24194   4.649  10.360   0.047  0.2401 -0.1870 -0.0712
 8301W        W24195   0.788   3.444  16.902  0.1344 -0.2512 -0.2027
 8302W        W24196  12.853  14.792   1.132  0.0612  0.3388  0.0175
 8303W        W24197  16.728  13.671   3.674 -0.4568 -0.0746 -0.1017
 8304W        W24198  16.993   2.358   4.974 -0.0950  0.0188  0.0646
 8305W        W24199  14.175  11.715  14.147  0.1616 -0.1654 -0.3379
 8306W        W24200   9.590   7.215   0.531 -0.2677  0.2318 -0.1464
 8307W        W24201   4.406   9.663   2.356  0.0885  0.0349  0.0564
 8308W        W24202   5.928  17.204   3.093  0.1492  0.3430 -0.0916
 8309W        W24203  16.391  10.740  14.361 -0.0020  0.0045  0.1717
 8310W        W24204   2.436  14.976  15.221  0.2416  0.3466  0.1221
 8311W        W24205  12.097  10.469  15.867 -0.1154  0.1007 -0.2848
 8312W        W24206   8.004   4.088   4.859  0.0843 -0.0491 -0.1752
 8313W        W24207   8.541   8.316   5.215  0.0694 -0.0644  0.0081
 8314W        W24208   8.407   9.226  14.511 -0.0824  0.0571  0.2593
 8315W        W24209  10.865  10.133   3.527  0.1680 -0.0923  0.2064
 8316W        W24210   6.230   0.515   4.196  0.0658  0.1248 -0.0866
 8317W        W24211   8.525  16.836  16.666  0.0486 -0.2121  0.0890
 8318W        W24212  17.333  17.836   4.167 -0.0045 -0.1669 -0.1010
 8319W        W24213  16.093  15.261   4.335  0.1148  0.1040 -0.1148
 8320W        W24214   0.037   6.835  14.876 -0.0378 -0.0075 -0.0804
 8321W        W24215  15.550   3.395   2.722  0.1488  0.0746 -0.2337
 8322W        W24216  10.958   4.463   2.858 -0.1261 -0.1358  0.4143
 8323W        W24217   3.603   0.801   3.590 -0.0477 -0.1961  0.1591
 8324W        W24218   3.789   6.979   3.360 -0.1234 -0.1451  0.0278
 8325W        W24219   1.551   1.694   3.835  0.2647  0.1199 -0.0239
 8326W        W24220  10.923  13.479   6.416 -0.0716 -0.0359 -0.1090
 8327W        W24221   6.918   0.258  11.636 -0.0624 -0.1098  0.1926
 8328W        W24222  10.788  14.449   1.409 -0.1876  0.0387  0.0767
 8329W        W24223   4.726  14.222  16.039  0.0241  0.2203  0.0412
 8330W        W24224   8.759  11.191   3.585  0.0031  0.1091 -0.0489
 8331W        W24225  17.090  11.575  13.581  0.2670 -0.4341  0.1101
 8332W        W24226  10.864  13.387   4.381 -0.1386 -0.1631  0.3245
 8333W        W24227   8.891  12.413   2.297 -0.0630 -0.2354 -0.1608
 8334W        W24228   9.442  17.432   2.601 -0.1212 -0.0256 -0.0087
 8335W        W24229  16.671   3.870  16.818 -0.1592 -0.1070  0.1386
 8336W        W24230  14.684   4.685  15.845 -0.0161  0.0699  0.1742
 8337W        W24231   7.215   9.893   5.890  0.0170 -0.2256  0.0065
 8338W        W24232   4.803   4.079   4.222 -0.1298  0.0432  0.2270
 8339W        W24233   3.906   2.824   4.903 -0.2205 -0.0763 -0.0900
 8340W        W24234   5.792   9.842   3.226  0.0155 -0.1136 -0.0190
 8341W        W24235   9.785  15.037   4.140  0.0006 -0.0681 -0.1035
 8342W        W24236   8.502   9.699   5.649 -0.0782  0.4506  0.0850
 8343W        W24237  12.529   9.836   0.695  0.2009  0.0278 -0.2788
 8344W        W24238   8.261  13.319   3.832  0.2365 -0.0898  0.0698
 8345W        W24239   6.014  12.939  16.190 -0.1736 -0.2193  0.1682
 8346W        W24240   0.761   7.229   4.548  0.0427 -0.0100 -0.1242
 8347W        W24241   7.847  11.984  15.324  0.1954  0.1404 -0.2556
 8348W        W24242   0.645   7.162  15.254 -0.0238  0.1781 -0.1684
 8349W        W24243   2.503   2.905  13.252  0.3421  0.2982 -0.3420
 8350W        W24244  16.080  15.892  12.291 -0.2134  0.0034  0.0887
 8351W        W24245  17.116  15.154  13.897 -0.0602  0.1012  0.1056
 8352W        W24246  15.284  15.733  15.485  0.2343 -0.0298  0.0663
 8353W        W24247   4.907   4.218   1.224  0.0213  0.0412  0.3046
 8354W        W24248   5.396   5.329   4.021 -0.1232  0.1338  0.1289
 8355W        W24249   5.700  14.658   3.451  0.2199 -0.3355  0.0066
 8356W        W24250   5.114   5.099  12.940 -0.1428  0.0243 -0.1493
 8357W        W24251   8.910  13.905   1.277  0.0152 -0.1597  0.3318
 8358W        W24252   0.897  12.890   4.726 -0.0030 -0.2299 -0.5172
 8359W        W24253  16.739   0.943  15.335  0.0186  0.1171 -0.2478
 8360W        W24254   6.412   0.740  14.826 -0.1519  0.0119  0.2962
 8361W        W24255   9.109  10.673   2.825  0.0506  0.0932  0.2448
 8362W        W24256  11.074   1.515  14.554 -0.0929 -0.0755  0.3471
 8363W        W24257  13.864  16.751  14.120 -0.2542  0.2073 -0.0333
 8364W        W24258  13.031   2.821   2.608  0.1051  0.1672 -0.2459
 8365W        W24259   4.887   7.152   0.153 -0.1388  0.2742  0.2633
 8366W        W24260   4.724   9.397  16.423  0.2292 -0.0173  0.1000
 8367W        W24261  12.103   6.753  12.821  0.0803  0.0460  0.2847
 8368W        W24262   4.456   9.077  14.675 -0.1898  0.1738  0.1862
 8369W        W24263  11.967  15.176   4.681 -0.1156 -0.3566  0.0522
 8370W        W24264  13.692   5.406  12.528  0.1002  0.0553  0.1157
 8371W        W24265   4.889   8.227   2.054 -0.0352 -0.1186 -0.1540
 8372W        W24266  10.315   8.269   5.320 -0.3340 -0.0728 -0.0730
 8373W        W24267  12.218   2.752  13.502 -0.0606  0.3629  0.3152
 8374W        W24268  13.604   8.295   0.214  0.0317 -0.1205 -0.0163
 8375W        W24269   1.181  11.208  14.014  0.1106  0.0127 -0.2410
 8376W        W24270   6.691   1.806   3.039 -0.3924 -0.1248  0.2020
 8377W        W24271   0.256  15.076   0.817  0.3753 -0.1733  0.0688
 8378W        W24272  12.165   0.530   4.329 -0.0365 -0.1532  0.0230
 8379W        W24273  13.736   7.532  14.725  0.3811  0.1702  0.3170
 8380W        W24274   6.785   8.675  15.714  0.0230 -0.3055  0.1701
 8381W        W24275   8.244  16.227   4.499 -0.3228 -0.0210  0.0503
 8382W        W24276  14.289   3.007  15.764 -0.0814  0.1881 -0.2884
 8383W        W24277   6.842   5.098   3.542 -0.0808 -0.0245 -0.0562
 8384W        W24278  17.531   1.794  12.521  0.1372  0.1075  0.0130
 8385W        W24279  14.303  16.392   5.259  0.0649 -0.2426 -0.2216
 8386W        W24280   1.852  17.818  12.173  0.1507 -0.0213 -0.2334
 8387W        W24281   9.380   5.885  12.168  0.2569  0.0254  0.2237
 8388W        W24282   5.659  12.680   2.987  0.0925 -0.1825 -0.0284
 8389W        W24283   1.517   7.352  15.098 -0.0034  0.1538  0.2850
 8390W        W24284  13.531   1.887  16.119  0.1147 -0.0264  0.3998
 8391W        W24285   3.575   3.575  14.282  0.0666  0.0851 -0.0046
 8392W        W24286  16.109   3.740   4.597 -0.1086 -0.3391 -0.0047
 8393W        W24287   4.885   9.758  10.483  0.0375  0.1692 -0.0586
 8394W        W24288   0.734  14.984  15.885  0.1115 -0.0777  0.1888
 8395W        W24289   7.845  15.787  13.349 -0.1522  0.1939 -0.1298
 8396W        W24290  11.825  10.612   5.550 -0.2770 -0.1775 -0.0356
 8397W        W24291  17.044  15.291   4.036  0.1029 -0.0809 -0.0341
 8398W        W24292   7.105   3.700   5.317  0.2143  0.1658  0.2985
 8399W        W24293   7.180  14.351  15.341  0.0625  0.0273 -0.0046
 8400W        W24294  14.746   9.449  16.284  0.3827  0.4906  0.2912
 8401W        W24295  15.685   5.026  16.611 -0.0207  0.0025 -0.0784
 8402W        W24296  16.464   4.903  14.913 -0.4142 -0.1043  0.1168
 8403W        W24297   6.369   6.599   2.603 -0.2000 -0.0676  0.0657
 8404W        W24298   8.131   5.169   1.426  0.1967 -0.3461 -0.3548
 8405W        W24299  10.446  10.800  15.989 -0.1504  0.1385  0.1728
 8406W        W24300   2.397   5.111  13.805 -0.0636 -0.0123 -0.3486
 8407W        W24301  16.477   9.598   0.915 -0.0372  0.1300 -0.1622
 8408W        W24302   8.941   4.421   0.143  0.2932  0.1685  0.0364
 8409W        W24303  15.947  10.794   1.204 -0.2829  0.1424 -0.2409
 8410W        W24304  16.898   8.254   5.563  0.0752 -0.4813 -0.0119
 8411W        W24305   0.337  12.615   5.835  0.1356 -0.0202 -0.0420
 8412W        W24306   7.701  17.388  16.086  0.0033  0.2434 -0.0004
 8413W        W24307  11.116   3.982  13.274  0.2518  0.0759  0.0285
 8414W        W24308   6.441  16.623  14.854 -0.2633  0.2516 -0.5329
 8415W        W24309  10.101   1.804   2.182  0.3569  0.2347  0.2570
 8416W        W24310   6.052  16.208   0.887  0.0800 -0.0878 -0.0912
 8417W        W24311   4.421  17.146  13.408 -0.0210  0.0646  0.0625
 8418W        W24312  17.086   8.556  16.669 -0.1143 -0.3111  0.0115
 8419W        W24313   9.063   1.752  16.294 -0.1860  0.1019  0.1172
 8420W        W24314   1.919  12.451   0.641 -0.1426 -0.0957  0.0771
 8421W        W24315  10.222  14.611   3.453  0.1177 -0.2693 -0.0078
 8422W        W24316  11.756  13.847   4.040  0.3018 -0.1549 -0.1198
 8423W        W24317  13.445  14.892   2.950 -0.3775  0.0769  0.0678
 8424W        W24318  12.993  12.761  16.022  0.1325  0.4189 -0.1303
 8425W        W24319   9.579   9.629  16.367  0.2116 -0.0617 -0.2985
 8426W        W24320  13.356  13.657  14.470  0.1553  0.1330  0.2115
 8427W        W24321   1.427   6.020   4.006 -0.3368  0.0235 -0.0268
 8428W        W24322  12.812   6.925   1.243  0.2026  0.1668 -0.0672
 8429W        W24323  17.491   2.432   2.436 -0.1659  0.1121 -0.0876
 8430W        W24324   4.672   2.047   0.401  0.0824 -0.0123 -0.1412
 8431W        W24325   2.576   8.199  16.768 -0.1613  0.3749 -0.0354
 8432W        W24326   4.438   9.641   1.799 -0.0422  0.1861  0.0155
 8433W        W24327   3.448  16.528   4.863  0.0149 -0.2786  0.0920
 8434W        W24328  14.048  17.797   3.026 -0.1001  0.1223  0.2900
 8435W        W24329   8.919  16.293   1.510  0.0984  0.3465 -0.1688
 8436W        W24330   2.397   4.710  12.121  0.1446 -0.0013  0.2820
 8437W        W24331  11.163   4.531  11.545  0.4612  0.3923 -0.0474
 8438W        W24332   3.931   0.599  13.539  0.2400 -0.1426  0.0364
 8439W        W24333   2.218   6.537   3.422  0.2969  0.0051 -0.1661
 8440W        W24334   7.206  15.560   5.124  0.1122 -0.0320 -0.0363
 8441W        W24335  13.137   1.499   1.322 -0.1221 -0.4081  0.0673
 8442W        W24336  10.405   3.728   0.495 -0.1290 -0.1283 -0.4636
 8443W        W24337  15.308  14.406   3.504 -0.1408  0.2988  0.0892
 8444W        W24338  13.590   3.069  13.004 -0.0136  0.0134  0.0185
 8445W        W24339   7.091   9.726   5.374 -0.0233 -0.0330 -0.1104
 8446W        W24340   2.652  11.946   3.401  0.3209  0.0788 -0.0461
 8447W        W24341   6.515  17.562   1.906  0.2574  0.0262 -0.1221
 8448W        W24342   8.464   9.537  11.870  0.1257  0.2836 -0.1796
 8449W        W24343  16.744   8.223  12.231  0.0518  0.1083 -0.3143
 8450W        W24344   1.507   5.546  16.163  0.0676 -0.1159 -0.0080
 8451W        W24345  11.423   9.651  14.636 -0.0403 -0.0221  0.0519
 8452W        W24346   9.610   7.178  12.796 -0.1930  0.0834 -0.0118
 8453W        W24347   9.661  13.369   2.474  0.0044  0.1873  0.1325
 8454W        W24348   0.184  13.031  13.550  0.0114  0.0783 -0.0228
 8455W        W24349  17.577  11.363  12.882  0.2952  0.2882  0.1722
 8456W        W24350   1.592   5.257  11.067 -0.1318  0.1988 -0.0006
 8457W        W24351   0.009   7.128  15.896 -0.2800  0.0307 -0.2294
 8458W        W24352   8.104   7.991   1.288  0.0241  0.2278  0.3075
 8459W        W24353   7.503   3.229  13.629 -0.2212  0.0190 -0.1112
 8460W        W24354  15.092   1.296   4.016 -0.2018  0.1195 -0.1115
 8461W        W24355   7.777   5.205   0.527 -0.5843 -0.0855 -0.0919
 8462W        W24356   2.638   1.446  14.936 -0.1989  0.3657  0.2476
 8463W        W24357   2.509   4.913   5.206  0.0011  0.1694 -0.2861
 8464W        W24358   7.756   7.843   2.248 -0.0902 -0.2170 -0.1387
 8465W        W24359  10.074  11.946   2.480  0.1176 -0.0686  0.4330
 8466W        W24360   6.467  12.386  16.756 -0.1406  0.2607  0.0056
 8467W        W24361  10.689  14.348  14.833 -0.0614  0.2250  0.0314
 8468W        W24362   6.473  13.541   0.030 -0.1121  0.1375  0.1264
 8469W        W24363   7.939   5.201  15.246  0.1946 -0.2041 -0.1260
 8470W        W24364   8.158  12.599  13.669 -0.0218  0.0051 -0.2380
 8471W        W24365   4.256  14.354  16.318 -0.0663  0.0122  0.2301
 8472W        W24366   5.171   8.656  14.762  0.0847  0.2816  0.0087
 8473W        W24367  13.350  12.610  14.647 -0.1094  0.1656 -0.0917
 8474W        W24368  13.948   9.817  12.832  0.1237 -0.4761  0.0594
 8475W        W24369   9.481   2.271   6.064 -0.0298  0.3025  0.0146
 8476W        W24370   4.819  10.323  13.107  0.0242  0.0287 -0.3086
 8477W        W24371   3.024   1.916  13.207 -0.1979  0.0143  0.3805
 8478W        W24372   2.282  17.623  15.364  0.2651  0.0319 -0.0874
 8479W        W24373   6.480   1.436   1.425 -0.1339 -0.4429  0.1545
 8480W        W24374   3.300   1.787   3.678 -0.2077 -0.5181  0.2964
 8481W        W24375   2.346   6.313   5.089 -0.0461  0.1393  0.4124
 8482W        W24376  17.724  16.270  16.872  0.1805  0.3351 -0.1912
 8483W        W24377  15.824   6.007  15.322 -0.0717  0.2081 -0.1788
 8484W        W24378   9.624  11.457   0.559 -0.3539  0.3272  0.2682
 8485W        W24379  15.410  15.076  12.283  0.0573  0.2431 -0.0175
 8486W        W24380  15.689   7.490   4.021 -0.1066  0.3550  0.1354
 8487W        W24381  15.719   3.646   1.110  0.0225 -0.0870  0.3706
 8488W        W24382   5.909   5.609  16.133 -0.0960 -0.0229 -0.1023
 8489W        W24383   9.334   4.731  16.878 -0.0174  0.1506 -0.1359
 8490W        W24384  10.548  14.085  14.452  0.0702  0.2852  0.0702
 8491W        W24385   4.442   1.235  11.084  0.1470  0.0670  0.1602
 8492W        W24386   6.926   5.375   5.269 -0.1153  0.2948 -0.0334
 8493W        W24387   9.543   3.677   1.111 -0.2835  0.1060  0.0720
 8494W        W24388  15.107  15.449   2.471  0.1413  0.0201  0.3644
 8495W        W24389  13.475  14.714  13.793  0.1091 -0.3178 -0.2132
 8496W        W24390   2.567  14.492  12.215  0.1137 -0.2283  0.0277
 8497W        W24391  15.340   8.231   0.829 -0.0928  0.1226  0.1109
 8498W        W24392   1.361   9.406   5.179  0.1212 -0.0038  0.2686
 8499W        W24393   0.684  15.808   5.474  0.2440  0.0148 -0.0715
 8500W        W24394   6.859  16.977  15.564 -0.1565 -0.2965  0.0167
 8501W        W24395   8.280   0.313  13.328 -0.0105 -0.4817  0.0553
 8502W        W24396   0.969   5.221   4.815 -0.5244  0.3100 -0.1447
 8503W        W24397  10.207  14.293   2.569  0.2327 -0.1525  0.0294
 8504W        W24398   1.742   1.311   5.681  0.0762 -0.1267 -0.1029
 8505W        W24399  12.266   0.997   0.213  0.2393  0.1377 -0.1891
 8506W        W24400  11.136  16.535   3.491 -0.1254  0.1452  0.0170
 8507W        W24401   6.418  14.921   6.075  0.1927  0.2065  0.1192
 8508W        W24402   9.339  14.613  16.195 -0.1327 -0.1389  0.1937
 8509W        W24403   7.903  13.968  13.397  0.0643 -0.2858  0.1213
 8510W        W24404   1.450   4.481  14.820 -0.0155 -0.1880  0.2291
 8511W        W24405   5.962  12.460   0.063 -0.1192  0.0783 -0.0368
 8512W        W24406   8.784  16.371  16.488  0.1805 -0.1247  0.1412
 8513W        W24407   1.093   5.663   0.962 -0.1911  0.0546 -0.0359
 8514W        W24408   6.373   9.593   2.628  0.1345  0.0984  0.2722
 8515W        W24409   3.409   0.493  10.719  0.0020 -0.0481 -0.0966
 8516W        W24410   2.951   1.126  12.804  0.0849  0.1833  0.2579
 8517W        W24411  15.417   1.548   2.665  0.1298  0.1012  0.3377
 8518W        W24412   8.652   5.497  16.321  0.0248 -0.1114 -0.0888
 8519W        W24413  17.637  15.199   3.509 -0.1357 -0.0641 -0.2317
 8520W        W24414  13.372  14.912  15.529 -0.3093  0.1255  0.2202
 8521W        W24415  10.280  10.181  12.699 -0.1349 -0.3059  0.2233
 8522W        W24416   1.132   5.068  15.922  0.1196  0.0294 -0.0920
 8523W        W24417   5.276   9.712   1.220 -0.2207  0.1681 -0.0137
 8524W        W24418  13.114  17.324  13.984 -0.0467 -0.1069  0.1052
 8525W        W24419  17.042   0.540  16.639 -0.1115  0.0032 -0.2485
 8526W        W24420   0.999   8.652   1.534  0.2855 -0.2359 -0.1683
 8527W        W24421  16.838  10.234  12.589  0.1948 -0.1728  0.1480
 8528W        W24422  11.495   4.327  13.310 -0.2370  0.0681 -0.0922
 8529W        W24423  16.142   4.030  15.909 -0.2225 -0.0213  0.0934
 8530W        W24424   2.500   5.164   5.671 -0.0393  0.0578 -0.0910
 8531W        W24425   7.615  10.399   4.717  0.2916  0.0044  0.0290
 8532W        W24426   0.421   5.119   5.992  0.0822  0.3734 -0.0153
 8533W        W24427  15.033   5.889  11.206  0.0182  0.0785  0.0909
 8534W        W24428   5.641   5.669  12.716 -0.0277 -0.0818  0.2095
 8535W        W24429  16.063   5.796   1.190 -0.1713  0.1055  0.0821
 8536W        W24430  17.050   4.422  14.448  0.0426  0.0129 -0.0918
 8537W        W24431  10.706   7.875  16.111  0.0829  0.1219 -0.2064
 8538W        W24432   7.090  11.911   4.821 -0.1156 -0.1670 -0.0134
 8539W        W24433   3.338   4.918   2.702  0.4496  0.3325 -0.0128
 8540W        W24434  15.159   8.817  12.123  0.1659  0.1278 -0.1493
 8541W        W24435   3.142   0.130   5.005 -0.2678 -0.1559 -0.2992
 8542W        W24436   3.022   9.632   5.379 -0.4461 -0.0293  0.2048
 8543W        W24437   7.236   1.446  12.647  0.0807  0.1133  0.0690
 8544W        W24438  14.968  15.105   0.826  0.1672 -0.0069  0.1388
 8545W        W24439   7.634  14.870   4.119  0.0210 -0.0416  0.0581
 8546W        W24440  14.428   4.161   2.541  0.5210 -0.1329 -0.2647
 8547W        W24441   5.934   8.300  11.218 -0.1601 -0.1539 -0.0980
 8548W        W24442   4.112   1.460  14.151 -0.0937  0.0660  0.0874
 8549W        W24443   1.538  11.279   3.791 -0.0220 -0.0957 -0.0842
 8550W        W24444   7.525  14.583   2.773  0.0100 -0.2709 -0.1633
 8551W        W24445  14.736  17.058   5.311 -0.4381 -0.3196 -0.2126
 8552W        W24446  10.429   9.502   2.326  0.0839  0.1997 -0.3207
 8553W        W24447   9.980   5.364   4.044 -0.2380 -0.1619  0.1955
 8554W        W24448  16.066  14.309   0.494  0.1644  0.0533  0.1565
 8555W        W24449   2.556  17.387   5.112  0.3189 -0.1144 -0.0260
 8556W        W24450  10.398  10.956   6.380 -0.0152 -0.0997  0.0223
 8557W        W24451  16.206   7.233   2.796  0.0130 -0.0875  0.2874
 8558W        W24452  14.322  12.982  14.874 -0.0305 -0.1437 -0.1895
 8559W        W24453   0.224  13.006   3.730  0.0072 -0.1168  0.0523
 8560W        W24454   3.924   1.539  15.759  0.1724 -0.0810 -0.3205
 8561W        W24455   4.230  13.583  14.424 -0.1232  0.1163 -0.1061
 8562W        W24456  12.963  11.549   3.065  0.3193  0.0206 -0.1631
 8563W        W24457  11.463   6.598   4.796 -0.0381  0.0840  0.0299
 8564W        W24458   6.166   1.841   1.554  0.0285  0.0321 -0.1343
 8565W        W24459   8.257   8.385  16.858 -0.2457 -0.0534 -0.1069
 8566W        W24460   9.782  17.681   3.581 -0.0686  0.2422  0.0432
 8567W        W24461  10.488   9.510  16.024 -0.0659  0.0810  0.1706
 8568W        W24462   9.336   9.336   1.174  0.2829 -0.1304 -0.1657
 8569W        W24463   6.526   2.832  15.327  0.1507 -0.1447  0.1109
 8570W        W24464  12.211   3.277   4.742 -0.0702 -0.0888 -0.1140
 8571W        W24465  13.197   0.298   2.862 -0.2800  0.0528 -0.1379
 8572W        W24466  11.387   0.924   2.496  0.0789 -0.0241  0.1027
 8573W        W24467  13.214  17.789  12.203  0.1754  0.0768 -0.0878
 8574W        W24468   3.023   3.751   4.789  0.4148  0.0649  0.0230
 8575W        W24469  17.725   1.320   5.625 -0.1876  0.0517 -0.1165
 8576W        W24470   7.790   5.921  16.815 -0.0370  0.1842 -0.1878
 8577W        W24471   0.736  13.534   4.007  0.0163 -0.2763 -0.2380
 8578W        W24472  16.034   0.130  13.381  0.1779 -0.1100 -0.2741
 8579W        W24473   5.369  16.637   2.520 -0.2517  0.2285  0.1318
 8580W        W24474   7.897  16.613  12.280  0.1452 -0.3845  0.0373
 8581W        W24475  14.893   5.073   1.513  0.0565  0.0576  0.0801
 8582W        W24476   8.388   4.127  12.153 -0.1260 -0.1108 -0.0905
 8583W        W24477   2.729   2.865   3.007 -0.2457 -0.0317 -0.0882
 8584W        W24478   7.453   5.826   3.442 -0.2792  0.0083  0.0135
 8585W        W24479  10.223  14.968   2.724 -0.0136 -0.1944  0.1879
 8586W        W24480   5.134  15.313  13.965 -0.0614 -0.0355 -0.0013
 8587W        W24481   1.163   8.718   4.000  0.1431  0.1627  0.0442
 8588W        W24482   1.435   6.769  14.030  0.0147 -0.4250  0.0423
 8589W        W24483  12.129   3.705  14.034  0.0155  0.2226  0.2778
 8590W        W24484  13.285   9.520   5.247 -0.0588  0.1546 -0.4502
 8591W        W24485  13.801   3.903   5.056 -0.1996 -0.2329  0.0833
 8592W        W24486  12.038  10.440   1.841  0.0740  0.0452 -0.1483
 8593W        W24487   3.816  16.603  12.331  0.0085 -0.2384  0.1275
 8594W        W24488  12.006   6.039   6.140  0.2614 -0.0469  0.0700
 8595W        W24489   1.957  13.165  15.156  0.2011  0.1208 -0.2675
 8596W        W24490  16.967   5.949   4.282 -0.1231  0.1832 -0.1321
 8597W        W24491  12.946   9.805  16.765  0.2164 -0.0923 -0.2126
 8598W        W24492  14.502   7.989   2.751 -0.0001  0.3140 -0.3193
 8599W        W24493   9.841  12.072   3.090 -0.0500  0.2473  0.0976
 8600W        W24494   0.212   2.327  16.645 -0.1268 -0.0064  0.0335
 8601W        W24495   3.002   4.021  13.608 -0.2975  0.3168  0.0394
 8602W        W24496   8.438   5.188   4.868  0.1110 -0.0096  0.2749
 8603W        W24497   6.861  11.957  12.726  0.1189  0.0751  0.1161
 8604W        W24498  11.278   6.952  16.875 -0.1700  0.2958  0.0208
 8605W        W24499  11.697  15.023  16.019 -0.1150  0.1133  0.0810
 8606W        W24500   1.251  11.090   4.475 -0.1040 -0.1930  0.0221
 8607W        W24501  12.024  11.636   5.724  0.1438  0.1533 -0.1013
 8608W        W24502  10.092  10.079   4.871 -0.2880 -0.1000  0.0979
 8609W        W24503  16.950   7.773   3.979 -0.1593 -0.0273  0.1809
 8610W        W24504  16.643   3.363   1.723 -0.1519  0.0696 -0.0658
 8611W        W24505   3.788  13.199  15.161 -0.0941 -0.3782 -0.1315
 8612W        W24506   1.851   0.088   0.829  0.1143 -0.0288 -0.1767
 8613W        W24507   2.716   8.970  13.057 -0.1094 -0.2865  0.0777
 8614W        W24508  14.930   1.721  16.213  0.0921  0.1391  0.4247
 8615W        W24509  16.968  10.233   1.982 -0.2087  0.1168  0.0726
 8616W        W24510   0.336  10.794   0.395 -0.1357 -0.1777  0.0725
 8617W        W24511  16.507   2.529  11.202 -0.0111 -0.5831  0.1016
 8618W        W24512   8.079  12.862   2.982 -0.1851  0.0117  0.2322
 8619W        W24513  11.097   3.467  13.428 -0.2331 -0.0023  0.0477
 8620W        W24514  13.747  13.037  13.949 -0.0714 -0.0930 -0.0462
 8621W        W24515  10.528  17.369  15.912 -0.1915 -0.1149  0.3759
 8622W        W24516  17.555   9.895   0.270 -0.0910  0.2160 -0.1714
 8623W        W24517  14.364   1.133  16.287 -0.1941  0.0593  0.3935
 8624W        W24518  16.893  15.737  13.428  0.1372 -0.1091  0.3501
 8625W        W24519   1.778  13.122   2.061  0.3722  0.0930 -0.1661
 8626W        W24520  12.509   8.303  13.811 -0.0738  0.1411 -0.0248
 8627W        W24521   9.785   6.308  12.658  0.4175 -0.0506 -0.3162
 8628W        W24522   8.885   8.435  16.675  0.0272  0.1006  0.2478
 8629W        W24523   4.054   6.710  16.386  0.1424  0.1154  0.0900
 8630W        W24524  14.627   4.144  11.574  0.5610 -0.1716  0.0829
 8631W        W24525   4.987  12.817  12.521 -0.1234 -0.2165 -0.2087
 8632W        W24526  12.371   5.675   3.156  0.0925  0.1103 -0.0120
 8633W        W24527  17.686   6.608  12.743 -0.0373  0.1480  0.2156
 8634W        W24528   2.895  12.811  16.559 -0.0200  0.1227 -0.4792
 8635W        W24529   6.634   1.891   5.276 -0.0336 -0.2861 -0.0485
 8636W        W24530  13.051  14.320  12.991  0.4542 -0.0882 -0.1237
 8637W        W24531  10.736  11.321   4.525 -0.0036  0.1040  0.0277
 8638W        W24532   9.560  16.298  14.526  0.0888 -0.1073  0.1609
 8639W        W24533  15.877   7.935  14.670 -0.0934 -0.2076  0.3404
 8640W        W24534  16.613  10.899   0.608 -0.0545  0.0706  0.1257
 8641W        W24535  16.109  17.326  11.973 -0.0887  0.1113  0.0371
 8642W        W24536   5.699   8.667  12.397  0.1597 -0.2437 -0.1297
 8643W        W24537   5.898  16.460   0.382 -0.1105 -0.0608 -0.2760
 8644W        W24538   8.187  10.199   6.755 -0.0845  0.0236 -0.1948
 8645W        W24539  13.268   4.318   5.079  0.4260  0.0257  0.0478
 8646W        W24540  11.848   2.180   2.824 -0.0269  0.2781 -0.0742
 8647W        W24541   6.562  12.319  11.866 -0.3193 -0.1954  0.1418
 8648W        W24542  15.747   3.790   5.282 -0.3449 -0.1606 -0.0482
 8649W        W24543   9.735  15.286  13.774 -0.1584  0.2070 -0.1644
 8650W        W24544   3.043   5.443   3.185  0.0218 -0.2043 -0.0070
 8651W        W24545   4.133   9.878   0.125 -0.2426 -0.0878 -0.0726
 8652W        W24546  10.131  11.507  14.692 -0.0832 -0.0365  0.0781
 8653W        W24547   7.513   2.735  14.889 -0.1033  0.3024 -0.1731
 8654W        W24548   3.253  16.629  15.756 -0.1396 -0.1945 -0.3349
 8655W        W24549  16.199   5.049  13.911 -0.0760 -0.2487 -0.0807
 8656W        W24550  17.490   2.977  16.772 -0.2307 -0.0106 -0.2086
 8657W        W24551   6.263   9.753   1.924 -0.0273  0.2416  0.0097
 8658W        W24552   6.857  17.071  16.621  0.1023 -0.0683 -0.4906
 8659W        W24553   0.273  12.532   3.970 -0.0743 -0.0058 -0.3115
 8660W        W24554  17.141  17.487  12.785 -0.1040  0.1278 -0.1766
 8661W        W24555  13.076   6.621  14.312  0.2579 -0.1978  0.0054
 8662W        W24556   2.937   9.714  16.649  0.0083 -0.2968  0.2254
 8663W        W24557  14.403  16.161   0.098 -0.2069  0.0888  0.0324
 8664W        W24558   9.665  11.536  11.575 -0.1845 -0.3303  0.0825
 8665W        W24559   2.369  10.297   2.449  0.2143 -0.0056 -0.0375
 8666W        W24560   6.299  11.297   0.435  0.0801 -0.0937 -0.1798
 8667W        W24561  13.825  10.933  16.052 -0.2712  0.0218 -0.1015
 8668W        W24562  12.704   9.832   2.030 -0.0821  0.2289  0.2419
 8669W        W24563   0.213   8.456  12.525 -0.0003 -0.2116 -0.0358
 8670W        W24564   7.427   8.426  13.963 -0.0713 -0.3252 -0.2553
 8671W        W24565   1.097   3.763  11.350 -0.2275  0.0477 -0.0169
 8672W        W24566   5.846   5.477   3.989  0.3715 -0.0633  0.1567
 8673W        W24567   8.987   9.005   2.633  0.0744 -0.1636  0.0843
 8674W        W24568   7.083  11.468  15.963  0.0020  0.1399  0.2715
 8675W        W24569  12.934   8.534   2.401 -0.0272  0.0939 -0.1270
 8676W        W24570  13.925  13.573   0.183 -0.1593  0.0831 -0.2523
 8677W        W24571   6.809  10.851  15.930  0.1459  0.1591  0.2797
 8678W        W24572  13.448  15.918  15.187  0.1382  0.0299  0.1843
 8679W        W24573  17.514   9.570  16.851 -0.1675 -0.2051 -0.4908
 8680W        W24574   1.038   3.669   0.385  0.0687 -0.0171 -0.1273
 8681W        W24575  16.447   8.690  15.631  0.3438  0.0281  0.1801
 8682W        W24576   8.872   0.008   1.999  0.1728 -0.0243  0.2318
 8683W        W24577   6.740   0.153  15.579 -0.0303  0.1037  0.0327
 8684W        W24578   9.105   2.237   1.897  0.2407  0.1029 -0.4049
 8685W        W24579  16.608  11.350   0.843 -0.0347 -0.0748  0.0444
 8686W        W24580   4.328  11.634  12.728 -0.1726 -0.2369  0.0696
 8687W        W24581   0.769   6.372   4.272  0.1985 -0.0927 -0.1070
 8688W        W24582  10.774   3.783  16.639  0.3585  0.1580  0.0749
 8689W        W24583   0.046   2.386  13.700  0.3281 -0.0555 -0.1422
 8690W        W24584  14.648  12.013   5.346  0.0723 -0.0374  0.0773
 8691W        W24585  16.597  15.118  15.427 -0.1105 -0.2052  0.1586
 8692W        W24586  17.252   8.930   2.966  0.1485 -0.0683  0.0727
 8693W        W24587   9.678   5.543  13.904 -0.1910 -0.0756 -0.0237
 8694W        W24588   4.777  10.104  13.992  0.1792 -0.0217 -0.1495
 8695W        W24589  14.709   1.577   3.222  0.0487 -0.1773 -0.1958
 8696W        W24590   6.902   8.122  13.075 -0.3187  0.1191 -0.0838
 8697W        W24591   1.931  13.986   0.218 -0.0576 -0.3376  0.1271
 8698W        W24592   0.683  17.242   4.460  0.0994  0.2446 -0.2498
 8699W        W24593  15.589   8.905  11.777  0.1354  0.2730  0.0568
 8700W        W24594   3.402   3.087  16.307 -0.1377 -0.2000  0.3647
 8701W        W24595  16.853   6.233   3.852  0.0590  0.2726 -0.2911
 8702W        W24596  14.997  10.094   5.168  0.1586  0.0005  0.0359
 8703W        W24597   0.887   8.278  16.570 -0.1862  0.1535 -0.0878
 8704W        W24598  14.502  17.849  11.976  0.0443  0.0513 -0.2621
 8705W        W24599   7.799  12.469   5.557 -0.0680 -0.0288  0.0605
 8706W        W24600   3.279  10.087  12.561  0.1079 -0.0907  0.0482
 8707W        W24601   6.709   3.423  12.554  0.1577 -0.1603 -0.0041
 8708W        W24602   7.401  12.667   5.999  0.1010  0.0197 -0.1602
 8709W        W24603  16.711   1.771   0.906  0.1639 -0.2815 -0.3073
 8710W        W24604   1.228  13.697  11.807  0.0576  0.0557 -0.1429
 8711W        W24605   1.899  12.227   4.805 -0.0252 -0.4508  0.5717
 8712W        W24606  15.670  12.948   2.835  0.0562  0.0096 -0.1482
 8713W        W24607   2.380  12.050  14.266 -0.0019  0.0632 -0.0625
 8714W        W24608   3.896  16.959  11.911  0.0298 -0.0011  0.2652
 8715W        W24609   3.785  13.567   1.563 -0.0277 -0.0859 -0.3109
 8716W        W24610  10.647   9.669   3.521 -0.0894 -0.1161 -0.3350
 8717W        W24611  14.530   0.236   5.159  0.1226 -0.0037 -0.4181
 8718W        W24612   7.384  16.991  13.491  0.0254  0.1576  0.0496
 8719W        W24613   5.350  16.141   2.447  0.2198  0.2175 -0.1516
 8720W        W24614  12.164  12.327   4.976 -0.2060  0.2051 -0.0768
 8721W        W24615  16.968  11.219   4.228  0.1620 -0.2339 -0.0193
 8722W        W24616   3.667   9.689  10.399 -0.3352  0.1524  0.1533
 8723W        W24617  11.761   6.277  16.013  0.0936 -0.1256  0.1916
 8724W        W24618   4.123   1.123  15.913  0.5372 -0.0629 -0.0077
 8725W        W24619   9.155   1.578   3.073 -0.1336  0.0585  0.0885
 8726W        W24620  16.081   4.555   4.903 -0.0674  0.1296 -0.0376
 8727W        W24621   9.018  15.502  16.603 -0.2489 -0.1275 -0.0421
 8728W        W24622  10.224   4.025   1.386  0.0205  0.0673 -0.0027
 8729W        W24623   1.453   2.790   5.103  0.1789 -0.2425 -0.1038
 8730W        W24624  12.040   4.749  11.866  0.0409 -0.0108 -0.3300
 8731W        W24625   1.607   0.103   2.067 -0.0784  0.2512  0.0345
 8732W        W24626   0.581   5.178   5.176  0.2272 -0.0642 -0.0191
 8733W        W24627   0.587  15.009   2.932  0.2200  0.4798  0.2632
 8734W        W24628   6.769   5.750   2.964 -0.0696 -0.0018  0.2067
 8735W        W24629   4.411   0.676  16.137  0.1452  0.2328 -0.0786
 8736W        W24630   1.437   1.301   3.361 -0.1276  0.2848  0.1941
 8737W        W24631   3.695  12.195  16.345 -0.1252 -0.0525 -0.2725
 8738W        W24632   9.222   1.253  11.647 -0.0183  0.2295  0.1311
 8739W        W24633   0.011  17.523  15.114  0.2088 -0.3372 -0.3410
 8740W        W24634   2.195   5.680   2.452 -0.2824 -0.3226 -0.2212
 8741W        W24635   3.835   4.424  11.784 -0.0916 -0.1450  0.1252
 8742W        W24636  15.148   8.863   2.608  0.0701 -0.1852 -0.4249
 8743W        W24637   0.900  12.661   2.899 -0.0966  0.2462  0.1476
 8744W        W24638   0.923   4.115  13.685  0.0705  0.0768  0.3222
 8745W        W24639  16.760   3.313   4.594 -0.0195  0.3799 -0.1101
 8746W        W24640  12.852   0.326   1.310 -0.0355 -0.1324 -0.0489
 8747W        W24641  12.149  11.438   4.932 -0.1952  0.0297  0.1471
 8748W        W24642   0.948  13.013  12.991 -0.1564  0.2875 -0.0664
 8749W        W24643   0.044   5.415  15.599 -0.1707 -0.0246 -0.1604
 8750W        W24644   2.591   1.088  13.259  0.1855  0.0848 -0.0089
 8751W        W24645   6.227   5.166  15.936  0.0723  0.1052 -0.0820
 8752W        W24646   5.174   3.217  12.552  0.1479 -0.2781  0.1778
 8753W        W24647   6.850   8.435  13.955 -0.1236  0.2935  0.1164
 8754W        W24648   7.783   9.341   2.094 -0.0270  0.0531 -0.0736
 8755W        W24649   9.054   5.425  12.165  0.0195 -0.1340 -0.0932
 8756W        W24650  10.166  15.345   3.886 -0.1795 -0.2674  0.1150
 8757W        W24651  13.787   6.966  12.386  0.1551 -0.1326 -0.1118
 8758W        W24652  12.580  14.838   4.005  0.2528 -0.0322 -0.0244
 8759W        W24653   1.520   1.523  15.332  0.1784 -0.0066 -0.2641
 8760W        W24654   4.430  15.664   2.601 -0.2543 -0.0498 -0.0449
 8761W        W24655   3.579  14.691  11.455 -0.0401  0.2088 -0.0095
 8762W        W24656   8.847   3.483   6.043  0.6961 -0.4224  0.1082
 8763W        W24657  16.873  10.913   5.910 -0.0729  0.0436  0.0456
 8764W        W24658  17.242   5.102   1.053  0.0399 -0.0312 -0.1929
 8765W        W24659  15.663  10.355  12.301  0.0762 -0.2159  0.0752
 8766W        W24660   8.798   8.498   4.217 -0.2281 -0.1809 -0.1002
 8767W        W24661  10.577   0.991  12.728  0.2583 -0.0332 -0.0903
 8768W        W24662   2.098  12.051  11.649  0.4972  0.1849  0.0021
 8769W        W24663  11.534   5.925   0.669 -0.3337 -0.0528  0.0200
 8770W        W24664  17.131  12.712   4.489  0.1151  0.2508 -0.1788
 8771W        W24665   6.351  15.262  14.151  0.0010  0.0348 -0.2209
 8772W        W24666   7.249  17.262  13.992  0.0642 -0.0379  0.1307
 8773W        W24667  14.461  15.525   4.550 -0.0553  0.0916 -0.2682
 8774W        W24668   3.708  10.952  15.344 -0.5058  0.1366  0.0551
 8775W        W24669  15.307   1.279  10.275  0.0321 -0.1372  0.4125
 8776W        W24670   8.332   5.503   3.260 -0.1468  0.0505  0.2124
 8777W        W24671  11.995  14.431  11.445  0.0721 -0.0089  0.2032
 8778W        W24672  16.603  14.821   2.528 -0.3268  0.1006 -0.3873
 8779W        W24673  15.799   1.890   5.917  0.1041  0.0370  0.1787
 8780W        W24674   1.718  16.003  14.925  0.4118 -0.1496 -0.3233
 8781W        W24675  11.775   8.760   1.130  0.1083 -0.0756  0.2130
 8782W        W24676   4.757  15.092  13.021 -0.0968 -0.0943 -0.0604
 8783W        W24677  17.693   9.773   4.331  0.0370  0.2066  0.1963
 8784W        W24678   8.712   5.467   4.454 -0.0350  0.3288  0.1874
 8785W        W24679  13.522   2.343  13.743  0.1868 -0.1355 -0.1191
 8786W        W24680   8.238  11.972  15.599  0.1731  0.0812 -0.2314
 8787W        W24681   3.651   6.668  16.039 -0.0587 -0.0188 -0.3980
 8788W        W24682   9.329  12.781  12.317  0.2981 -0.1002  0.2324
 8789W        W24683   7.758  16.384   4.495  0.0221 -0.0772 -0.1029
 8790W        W24684   2.960   8.534  12.944 -0.3308  0.2610  0.1557
 8791W        W24685   2.310  16.345  14.105 -0.2253 -0.1335 -0.1634
 8792W        W24686  10.595  17.785   2.191  0.2457 -0.0864  0.1239
 8793W        W24687   4.485  14.595   1.968  0.1539 -0.0640 -0.0601
 8794W        W24688  11.262  10.610   3.582 -0.0423  0.3504 -0.1382
 8795W        W24689   5.890  14.580  15.376 -0.1043  0.0216 -0.0862
 8796W        W24690   4.226   1.297  11.911 -0.1645  0.0197 -0.0077
 8797W        W24691   6.016   2.903   6.236 -0.2442 -0.3950 -0.3092
 8798W        W24692   0.034  11.028  13.834 -0.2220  0.0308  0.2358
 8799W        W24693   7.772  16.461   1.487 -0.1819  0.3693  0.0252
 8800W        W24694   7.153   2.200  13.552  0.1458  0.2875  0.2397
 8801W        W24695   2.599  16.632   5.515  0.0559  0.2341  0.0997
 8802W        W24696  13.138   1.950   4.427 -0.0225  0.1239  0.1749
 8803W        W24697  12.159  17.251  14.766  0.2727 -0.1306 -0.1959
 8804W        W24698  14.349   8.783   3.732 -0.1139 -0.0772  0.0856
 8805W        W24699  14.033  13.063   3.969 -0.0832 -0.0577  0.0578
 8806W        W24700  10.627   8.446  16.431 -0.1437 -0.0873  0.1006
 8807W        W24701  12.578   9.170  15.476  0.0673 -0.0843 -0.2292
 8808W        W24702   1.329  14.032  16.564  0.1756 -0.1193 -0.2241
 8809W        W24703  14.287   5.540  11.542 -0.2407  0.0450  0.1190
 8810W        W24704  17.452   5.162   5.169  0.3197 -0.2488  0.1778
 8811W        W24705   3.025   9.889   4.949  0.1273  0.0804 -0.1308
 8812W        W24706   6.653   9.383   4.650 -0.0691 -0.0611  0.0316
 8813W        W24707   2.334   8.494  15.030 -0.1963 -0.2234  0.0641
 8814W        W24708   9.197   2.096   5.057  0.1490 -0.0441  0.1993
 8815W        W24709  13.251  13.051  13.729  0.1527  0.1819 -0.2047
 8816W        W24710   9.447  10.223  16.651 -0.0134  0.1464 -0.1363
 8817W        W24711  16.441  16.248  11.021  0.2556  0.2676  0.1852
 8818W        W24712  15.223   5.835  12.077 -0.2546  0.1410 -0.3766
 8819W        W24713  13.001   3.058   3.723 -0.1692 -0.0870  0.1158
 8820W        W24714  10.294  14.850   5.221 -0.1242  0.0869 -0.1298
 8821W        W24715   9.862  10.697   0.487 -0.0668 -0.0111  0.5634
 8822W        W24716   8.172   3.844   3.947  0.1353  0.0161 -0.0138
 8823W        W24717   3.567  12.354   3.487  0.0497  0.1985  0.0862
 8824W        W24718  10.085   7.474  12.890 -0.1081 -0.0156  0.0372
 8825W        W24719  15.473  10.360   1.916 -0.0269  0.0659 -0.2300
 8826W        W24720  16.555  15.980   2.107 -0.0306 -0.1113  0.1332
 8827W        W24721  16.842  13.529   2.720  0.3829 -0.3347  0.2653
 8828W        W24722   6.349   0.615   0.908 -0.0953  0.0280  0.1911
 8829W        W24723  12.000   0.520  16.361 -0.1448  0.2218 -0.1146
 8830W        W24724  11.406  13.741  15.592 -0.0470  0.0259  0.1563
 8831W        W24725  16.156  10.652   4.030  0.0932 -0.0949  0.0553
 8832W        W24726  14.238   0.650  11.236 -0.0991  0.2494 -0.1297
 8833W        W24727  12.420  12.775  16.227 -0.3481  0.1709  0.3837
 8834W        W24728  16.556   9.150   1.701  0.0987 -0.0055  0.1134
 8835W        W24729   4.270   2.492  16.216  0.0060  0.0359 -0.3043
 8836W        W24730   1.719  11.086   0.547 -0.1480 -0.0545 -0.2011
 8837W        W24731  13.594   1.383  14.320  0.1649  0.2417 -0.1311
 8838W        W24732  10.390   9.548  13.750  0.0866  0.1696 -0.1829
 8839W        W24733  12.126   1.179  16.194 -0.0152  0.2220  0.2084
 8840W        W24734  11.465   9.444   5.859 -0.2209 -0.2777  0.1350
 8841W        W24735   6.260  16.637   4.196 -0.0189  0.0014  0.0666
 8842W        W24736   2.469   3.799   5.381 -0.1275 -0.0270  0.1417
 8843W        W24737  16.118   4.534   0.466 -0.0610  0.1585 -0.0444
 8844W        W24738   8.312   7.434   2.861 -0.0149  0.3178 -0.0942
 8845W        W24739  10.798  10.801  12.699 -0.0480 -0.1148 -0.0714
 8846W        W24740  11.791   4.020   2.359  0.2137  0.0932 -0.0789
 8847W        W24741  16.869   8.627  15.917  0.1011 -0.0254  0.1018
 8848W        W24742   5.246   9.439  11.430 -0.1228 -0.2169 -0.0335
 8849W        W24743  10.757   6.541   5.853  0.1928  0.0574 -0.2572
 8850W        W24744  10.096  15.106   3.160 -0.0438  0.0317  0.2971
 8851W        W24745  13.168   1.815   1.749 -0.1727 -0.0007 -0.0270
 8852W        W24746  12.330  14.781  15.984 -0.0476 -0.0133 -0.1487
 8853W        W24747   4.565   9.082  16.873 -0.0614  0.0543  0.3010
 8854W        W24748  10.976  17.696  16.622 -0.1618  0.0291  0.0878
 8855W        W24749   0.665  16.078   0.282 -0.0247 -0.2082 -0.0299
 8856W        W24750   4.794   6.636  11.771  0.2189 -0.1639 -0.3315
 8857W        W24751   7.631   2.356  16.545  0.2168  0.0753  0.0381
 8858W        W24752   9.670   8.320   3.522  0.0589  0.2200 -0.0177
 8859W        W24753   9.645  12.472   1.109 -0.1647  0.2700 -0.2675
 8860W        W24754  10.617   8.932  16.192  0.0922  0.0681 -0.0390
 8861W        W24755   9.979  16.209  16.881  0.3789  0.1115  0.3444
 8862W        W24756  15.174   3.411  14.628  0.2758  0.2833  0.2164
 8863W        W24757  14.999   6.295   4.857 -0.0365 -0.0900 -0.0881
 8864W        W24758   5.137  11.887   2.392 -0.3429 -0.1998  0.1967
 8865W        W24759  17.291  11.641   4.249  0.0984 -0.0491 -0.1632
 8866W        W24760   3.912  16.485   5.691 -0.0203  0.2200  0.0256
 8867W        W24761   9.524  16.988  13.945 -0.2637  0.1942 -0.0285
 8868W        W24762  13.098  15.896   1.369 -0.1732  0.3455  0.1160
 8869W        W24763  16.661   3.996  15.917 -0.1269  0.4274 -0.0953
 8870W        W24764  13.747  14.415   4.182 -0.0636  0.0195  0.0928
 8871W        W24765   5.250  16.862   5.543 -0.0873 -0.1616 -0.1083
 8872W        W24766   0.475  13.840   3.257 -0.0283 -0.0533 -0.4669
 8873W        W24767   1.883  10.031   5.861  0.3057 -0.3071 -0.2686
 8874W        W24768   1.540  14.328   0.102  0.2211  0.1895  0.2097
 8875W        W24769  11.230  15.509   3.251 -0.0677 -0.0698 -0.2185
 8876W        W24770   2.422   0.264   3.426 -0.0262 -0.2893 -0.0242
 8877W        W24771  15.534  10.311   1.076 -0.1064  0.1811 -0.1362
 8878W        W24772  13.913   2.720  15.884 -0.0086 -0.0280  0.2284
 8879W        W24773   8.460  17.838   1.592 -0.0496  0.2213 -0.1901
 8880W        W24774  14.003  15.498  12.481 -0.1751  0.0309  0.0320
 8881W        W24775   9.334   2.986  15.865 -0.0225  0.0235  0.0875
 8882W        W24776  13.681   6.264   1.938  0.0287 -0.2639  0.1161
 8883W        W24777   7.440   4.538   1.414  0.1595 -0.0387 -0.1643
 8884W        W24778   6.876  16.402  14.415 -0.0284 -0.0204 -0.3763
 8885W        W24779  12.093   5.232  11.596 -0.0161  0.1929  0.2527
 8886W        W24780   6.638  12.788   3.941 -0.0427  0.0230 -0.1502
 8887W        W24781   0.029  12.203  13.971 -0.2313  0.0012  0.0106
 8888W        W24782  11.127  16.777   0.660 -0.0717 -0.2722  0.0382
 8889W        W24783   9.945   4.022  12.453  0.2464 -0.0178 -0.2335
 8890W        W24784  16.842  15.549   1.234  0.1191  0.2114 -0.1993
 8891W        W24785   2.194   2.890  15.929 -0.0739 -0.1009 -0.1445
 8892W        W24786  15.479  15.258   3.408 -0.1817  0.1762  0.1525
 8893W        W24787  16.859   6.425   5.190 -0.4309 -0.0166  0.0502
 8894W        W24788  12.684   8.465   0.948 -0.4638  0.1074  0.1675
 8895W        W24789   0.495   7.210   3.131 -0.2260 -0.1825  0.2941
 8896W        W24790   9.629   6.311   4.871  0.0084  0.0984  0.1247
 8897W        W24791  17.833   4.015   0.931  0.2026 -0.1045  0.0355
 8898W        W24792  14.460   3.921   0.304 -0.3942 -0.1936 -0.4160
 8899W        W24793   4.711   4.990   3.265 -0.1278  0.0372 -0.0845
 8900W        W24794  15.220   8.700  14.011 -0.1473 -0.1603  0.0382
 8901W        W24795  17.838   5.279   4.611 -0.0283 -0.1821  0.2578
 8902W        W24796  11.717   0.381  13.617  0.1961  0.0642 -0.3358
 8903W        W24797   8.059   6.366   1.865  0.4266  0.3306  0.2369
 8904W        W24798   0.277   8.409   2.612 -0.0183 -0.0502  0.0081
 8905W        W24799   1.883   4.612  13.377  0.3846  0.3065  0.0747
 8906W        W24800  10.091  10.325   0.731  0.2153  0.2912  0.1513
 8907W        W24801   2.300  15.988   0.594  0.2476 -0.1619  0.1762
 8908W        W24802  15.953  15.125   3.370 -0.1100  0.2472  0.1029
 8909W        W24803  11.282   6.555   2.233 -0.0249  0.3295  0.4000
 8910W        W24804   3.862  17.505  13.221  0.0128 -0.0834 -0.0254
 8911W        W24805   3.581   8.333  12.589 -0.1885 -0.3877  0.1097
 8912W        W24806  13.730  13.055  15.049  0.0263 -0.0700 -0.0028
 8913W        W24807   1.142   3.471   2.098  0.1109  0.0882  0.2081
 8914W        W24808   1.373   8.681   0.324 -0.2483 -0.2110 -0.1426
 8915W        W24809  10.113   8.873   1.415 -0.1056 -0.2562 -0.0391
 8916W        W24810  15.974   6.098   5.443  0.0093  0.0152 -0.0506
 8917W        W24811   0.404  10.846   4.450 -0.0659  0.0566  0.0116
 8918W        W24812  16.292  12.664   5.041  0.2615  0.0112  0.1388
 8919W        W24813   7.746   0.362   2.829 -0.2337  0.0500  0.3457
 8920W        W24814   0.830   1.233  12.963 -0.2755  0.2379 -0.0205
 8921W        W24815  14.990  12.765   0.291  0.0561  0.1098 -0.2271
 8922W        W24816   4.603   7.415  13.044  0.0644 -0.3998  0.1939
 8923W        W24817   2.911   8.024   4.935 -0.1587  0.0631 -0.2250
 8924W        W24818   9.278   7.727  16.220  0.1362 -0.2713  0.0106
 8925W        W24819   6.787   3.345  15.179 -0.1907 -0.2188 -0.3553
 8926W        W24820   7.096   8.886   0.145  0.0998  0.2826 -0.2502
 8927W        W24821  10.323   7.041  12.132  0.0654 -0.0704  0.1020
 8928W        W24822   3.304  16.424  12.150 -0.1245 -0.0650 -0.2768
 8929W        W24823   7.797  15.944  15.318  0.0761 -0.1290  0.0995
 8930W        W24824   0.837   2.922   4.496  0.3212  0.1615  0.1421
 8931W        W24825  12.615   5.958   4.420  0.1426  0.0343 -0.2081
 8932W        W24826   9.668  14.874   3.136 -0.0837  0.1490  0.0603
 8933W        W24827  11.991   6.252   5.640 -0.1824 -0.3182 -0.1905
 8934W        W24828  10.196  13.754   1.226 -0.0626 -0.0217  0.0748
 8935W        W24829  16.559  13.133   1.704  0.1949  0.0121 -0.3994
 8936W        W24830   2.069   2.997  16.525 -0.2711 -0.0635  0.1236
 8937W        W24831  13.630  12.213  14.790  0.2104 -0.0429 -0.2679
 8938W        W24832  10.014  16.607   0.276 -0.1137 -0.3274  0.2799
 8939W        W24833   2.537   7.521  14.938 -0.0755  0.2071 -0.2220
 8940W        W24834  16.043  11.133   2.656  0.0339 -0.0068  0.1731
 8941W        W24835  11.710  16.277   5.267  0.0363  0.1641  0.0658
 8942W        W24836  14.204  17.556  14.307 -0.4441 -0.2182  0.3473
 8943W        W24837   8.270  15.994  15.081 -0.0049  0.1768 -0.0786
 8944W        W24838   3.931   1.315   0.361 -0.0329  0.1790 -0.0811
 8945W        W24839   5.227  10.834   3.578  0.0431  0.0592 -0.0607
 8946W        W24840   7.287   0.046  11.823 -0.1031  0.2148 -0.0722
 8947W        W24841   3.575  15.771   0.810  0.0923 -0.1369  0.1335
 8948W        W24842   2.363  10.474  16.435 -0.0735 -0.0616 -0.1074
 8949W        W24843   8.614   7.998  16.854 -0.3304  0.2048 -0.1265
 8950W        W24844   0.026  16.615  13.016  0.0198  0.1989  0.0129
 8951W        W24845   1.492   4.910  13.543 -0.2845 -0.3449  0.4042
 8952W        W24846   8.650   3.371  12.455  0.0362  0.0658  0.2350
 8953W        W24847   6.270   3.866  13.525 -0.1949  0.0622  0.0828
 8954W        W24848   1.360   0.381   2.472  0.1350 -0.0435  0.1697
 8955W        W24849   6.547   1.965   4.429 -0.0602  0.2344 -0.1593
 8956W        W24850   3.355   8.539  11.853 -0.0196 -0.0940  0.3547
 8957W        W24851   1.466   9.776  16.355  0.0363  0.1899  0.0827
 8958W        W24852   8.162   4.755  15.709  0.0785  0.0113  0.0679
 8959W        W24853  14.024  12.968   1.565  0.1768  0.0730  0.2679
 8960W        W24854  14.408  13.414   4.559 -0.0605  0.0265 -0.1777
 8961W        W24855   6.204  10.225  14.850  0.0935 -0.0612  0.0178
 8962W        W24856  14.739   6.694  13.298 -0.1627  0.0633 -0.2489
 8963W        W24857   9.195  17.590  16.536 -0.1909 -0.2148  0.0973
 8964W        W24858   7.171  10.835   1.477 -0.0741  0.0544 -0.2025
 8965W        W24859   8.503  16.339  11.797  0.0349 -0.4361 -0.1812
 8966W        W24860   0.318  10.274   5.167  0.0585 -0.0801 -0.0101
 8967W        W24861   2.180   4.657   4.896 -0.2123 -0.2751 -0.0360
 8968W        W24862   2.181   2.967   5.634 -0.1053  0.3092  0.2510
 8969W        W24863  12.365   5.823   2.179 -0.0135 -0.0962 -0.2944
 8970W        W24864  17.574  12.692   0.704  0.1247 -0.1582  0.4702
 8971W        W24865  13.480   2.281   1.658  0.2264 -0.0327  0.0808
 8972W        W24866   4.378  12.055  12.990  0.1633 -0.0962 -0.2518
 8973W        W24867   0.676   5.831  13.691 -0.2234  0.0243  0.1744
 8974W        W24868  11.270  13.869   5.648 -0.1915 -0.0606 -0.0002
 8975W        W24869   1.524  16.487   6.419  0.3725  0.0421  0.0211
 8976W        W24870  11.118  16.276  11.763 -0.0232 -0.0383  0.0071
 8977W        W24871   1.547   5.662   2.421 -0.3704 -0.1187 -0.3327
 8978W        W24872   4.978  17.774   1.036  0.0788 -0.1770 -0.0914
 8979W        W24873   5.296   2.735   4.345  0.0866 -0.1003  0.1324
 8980W        W24874  10.888  15.302  15.937 -0.4355 -0.0498  0.0522
 8981W        W24875   5.407   8.231  15.543  0.0660 -0.1693  0.1002
 8982W        W24876  14.000  10.206   1.880 -0.0890 -0.2626 -0.0707
 8983W        W24877  11.178  15.480  15.585 -0.3786  0.1954 -0.0148
 8984W        W24878   7.581   5.374  16.004  0.1102 -0.2523  0.1509
 8985W        W24879   1.203   9.108   6.547 -0.2138 -0.1158  0.0212
 8986W        W24880   5.532  14.898   2.009  0.1754  0.3435 -0.1969
 8987W        W24881   9.866   1.110   4.676 -0.0065  0.3574 -0.0336
 8988W        W24882   4.743  17.128  15.359 -0.0854  0.2078  0.4023
 8989W        W24883   4.207  15.417   4.611 -0.2890  0.1041  0.0963
 8990W        W24884   2.613   9.289   2.648  0.0031  0.1939 -0.0932
 8991W        W24885  16.131   0.958   5.814  0.1818  0.0353 -0.0913
 8992W        W24886   5.252   4.998  15.949  0.0780 -0.1090  0.1462
 8993W        W24887   4.194  11.956  11.919  0.1634 -0.1726 -0.0360
 8994W        W24888  10.482   7.133   5.725  0.1304  0.3497 -0.1450
 8995W        W24889   1.896  14.144  12.992 -0.1966  0.0850 -0.0531
 8996W        W24890   8.572  12.811   5.045  0.5688  0.0246 -0.1684
 8997W        W24891   0.830   6.485   2.096  0.0782 -0.0202  0.3330
 8998W        W24892   9.818  11.307   5.726  0.1299  0.0818  0.0332
 8999W        W24893   2.722   5.809  13.199  0.1329  0.0569 -0.0160
 9000W        W24894   3.773  15.750  12.778 -0.2049 -0.2797 -0.1291
 9001W        W24895   6.648   9.240   3.544 -0.0039 -0.1925  0.1196
 9002W        W24896   4.597   0.256  11.539 -0.4732  0.0082 -0.1287
 9003W        W24897   2.093   6.036   6.098 -0.1832 -0.4282  0.0833
 9004W        W24898  11.254   5.763  16.892  0.0806  0.1097 -0.1117
 9005W        W24899   6.223  17.079  16.793  0.1880 -0.2867  0.2196
 9006W        W24900  12.924   5.684  11.443 -0.5478 -0.1489 -0.2493
 9007W        W24901   7.241  14.582  13.068 -0.0538  0.0979 -0.2547
 9008W        W24902  17.679   4.797  13.369  0.0103  0.1319  0.2759
 9009W        W24903   4.629  16.130  11.031 -0.0026 -0.1965 -0.3132
 9010W        W24904   6.814   7.065   1.530 -0.0742  0.1399  0.3334
 9011W        W24905  10.473  15.294   1.542  0.1523  0.0949  0.0323
 9012W        W24906  10.865  15.114   3.162  0.2455  0.0801  0.0975
 9013W        W24907  11.064   2.139   0.349 -0.0733 -0.0833 -0.1925
 9014W        W24908   5.462   2.777  12.464 -0.0866 -0.1934 -0.0009
 9015W        W24909   2.544  16.306   1.376 -0.2010  0.1011 -0.4596
 9016W        W24910  11.033  15.278   4.901  0.2176 -0.0345  0.0324
 9017W        W24911   1.303   5.033  14.834 -0.2313  0.1636  0.0915
 9018W        W24912  15.614   9.429   4.816  0.1594 -0.2681 -0.0659
 9019W        W24913  16.482   4.168  15.484 -0.0444 -0.0048  0.1031
 9020W        W24914  10.181  14.442  14.829 -0.1591 -0.2939  0.1339
 9021W        W24915   9.395   8.554   5.016 -0.0169 -0.0497 -0.0412
 9022W        W24916  11.754  15.526  12.763  0.1535  0.1825 -0.1655
 9023W        W24917  17.545  14.223   1.630 -0.3310 -0.1585  0.1647
 9024W        W24918   8.631   6.562   3.537 -0.0222  0.0578  0.1385
 9025W        W24919   6.672   0.806   5.417  0.1134  0.0919  0.1027
 9026W        W24920  11.717   4.482   4.558  0.0104 -0.3371  0.2642
 9027W        W24921   6.299   9.396  12.074  0.0686 -0.0534 -0.2786
 9028W        W24922  15.352   7.613   4.428 -0.1430  0.0112  0.0750
 9029W        W24923  11.214   5.395   5.426  0.0078  0.0771  0.2451
 9030W        W24924  14.060  15.853  12.859 -0.0634  0.0534 -0.0216
 9031W        W24925   6.931   7.341  11.980  0.2850  0.0888  0.0706
 9032W        W24926   2.846   2.600  14.964 -0.3995 -0.1845 -0.1663
 9033W        W24927  12.829  11.185  15.094 -0.0556 -0.1775  0.0084
 9034W        W24928   7.359  11.918  14.490  0.0478 -0.2627 -0.0071
 9035W        W24929  15.514  14.152   3.938 -0.1566 -0.0415  0.2600
 9036W        W24930   5.777   8.785  11.912  0.3896 -0.1022 -0.0047
 9037W        W24931  12.460   9.871  16.617 -0.1738 -0.3462  0.2274
 9038W        W24932   5.828  16.684   2.948 -0.0468  0.0935 -0.1577
 9039W        W24933  16.258  10.955  12.936  0.0540 -0.2154 -0.0814
 9040W        W24934   1.672   9.978  15.956 -0.0138 -0.0743  0.2185
 9041W        W24935   8.153  17.776   0.736  0.2621 -0.0603  0.2043
 9042W        W24936  13.951  14.350   1.418  0.0843  0.0715 -0.1603
 9043W        W24937  10.176  15.756  16.792  0.0628  0.1523  0.3132
 9044W        W24938   5.443   5.433  16.251 -0.2916  0.1626 -0.2352
 9045W        W24939  11.043   7.493  14.598 -0.1903  0.0513 -0.1360
 9046W        W24940  12.246   0.717   3.221 -0.2587 -0.1918  0.0942
 9047W        W24941   2.414  15.003  14.432  0.2788 -0.0646 -0.1964
 9048W        W24942   6.701  10.506   4.707 -0.2370  0.0129 -0.0894
 9049W        W24943   3.215   1.536   4.096 -0.1634  0.2069  0.0055
 9050W        W24944   4.581   0.851   1.814  0.1192 -0.2344  0.2520
 9051W        W24945  12.910  14.707  13.264  0.0118 -0.5390 -0.0931
 9052W        W24946   4.960   2.264  14.745  0.0004 -0.0256  0.1618
 9053W        W24947   7.838   4.241   1.431 -0.0619 -0.1551 -0.3640
 9054W        W24948  10.491   5.753  12.393 -0.3169 -0.1704  0.1168
 9055W        W24949   5.334   2.183  11.653  0.1903  0.0357  0.2346
 9056W        W24950  13.509   6.642   0.157  0.0616 -0.0754  0.2736
 9057W        W24951  12.034  14.641   5.468 -0.3034 -0.2249 -0.1378
 9058W        W24952  17.462   3.614  11.622  0.0712 -0.0096  0.1498
 9059W        W24953   0.748   5.401  11.233  0.0955 -0.0687  0.0472
 9060W        W24954   4.026   4.108  16.855 -0.1289  0.1041 -0.0781
 9061W        W24955   0.364  14.459  12.142 -0.0204 -0.1098  0.1103
 9062W        W24956   5.630   1.945  14.773 -0.1778  0.1109 -0.1578
 9063W        W24957  10.666   9.387   4.042  0.2903 -0.1603  0.3324
 9064W        W24958   3.957   2.844   0.681  0.0316 -0.0527 -0.0083
 9065W        W24959   4.673  13.349  16.224 -0.2190 -0.0678 -0.0233
 9066W        W24960  17.186   6.628  15.775  0.0942  0.3995 -0.3380
 9067W        W24961   6.657   9.088   5.920  0.0279  0.0772 -0.6286
 9068W        W24962  15.705   6.114  13.257 -0.1597  0.2179  0.1743
 9069W        W24963  14.562   6.237  13.406 -0.1726 -0.0584 -0.1223
 9070W        W24964   1.486  17.559  16.478  0.1274 -0.1777 -0.0534
 9071W        W24965   1.736   9.598   1.631  0.2014 -0.2491  0.0016
 9072W        W24966  11.139  14.143   2.938 -0.0784  0.0363 -0.3067
 9073W        W24967   7.804   4.625  16.483  0.3446  0.0690 -0.1335
 9074W        W24968   1.864  15.262  12.280  0.1891 -0.0909  0.0823
 9075W        W24969  15.733   1.859  11.221  0.4344 -0.0876 -0.0958
 9076W        W24970  10.448   1.865  16.323  0.1030 -0.2335 -0.1135
 9077W        W24971   1.774   4.865   3.204 -0.0776  0.2315 -0.1015
 9078W        W24972   8.933   9.311  11.713 -0.1744  0.0701  0.2345
 9079W        W24973   3.718   8.529   5.740  0.0719 -0.2188 -0.1588
 9080W        W24974  17.412  14.806  16.579  0.0212 -0.0396 -0.0108
 9081W        W24975  15.908   4.900  14.803  0.1679  0.2238  0.2138
 9082W        W24976  10.708   7.902   6.459  0.2111 -0.0368 -0.0122
 9083W        W24977   7.201   5.355   0.544  0.0534  0.3079 -0.2973
 9084W        W24978  16.233   3.216  14.422  0.0863 -0.0360 -0.1452
 9085W        W24979  10.861   8.299  15.962  0.1223 -0.0180  0.0992
 9086W        W24980   6.847   3.316   2.719 -0.1175 -0.0622  0.0420
 9087W        W24981  17.120  13.098   5.707 -0.1969  0.0927  0.0166
 9088W        W24982  17.293   8.717  15.623  0.1404  0.0636  0.3735
 9089W        W24983   8.006  14.032  16.443 -0.0354 -0.0468 -0.0120
 9090W        W24984  12.678   2.409  15.888 -0.1186 -0.2975  0.1594
 9091W        W24985  15.079  16.264  16.173  0.0924 -0.1932 -0.0615
 9092W        W24986   3.184   9.704  13.080 -0.1802  0.1401  0.0306
 9093W        W24987   8.875   8.170   3.851  0.1074  0.0780 -0.0231
 9094W        W24988  10.481   3.967  14.655 -0.1526  0.3474  0.0709
 9095W        W24989  12.327   8.950   3.708 -0.0870 -0.1285 -0.0890
 9096W        W24990  12.330   6.433   5.326  0.0551  0.1739 -0.1766
 9097W        W24991   8.121   4.946   0.235 -0.3283  0.0679 -0.0710
 9098W        W24992   6.592   0.969   2.624 -0.1117  0.1268 -0.2209
 9099W        W24993  16.103   7.066   1.098 -0.0962  0.0090 -0.2195
 9100W        W24994   5.291   3.147   5.041 -0.0142  0.0952 -0.2807
 9101W        W24995  15.045   6.867   4.873 -0.2865 -0.2171 -0.0843
 9102W        W24996   6.974  12.916  13.706 -0.3998 -0.1030 -0.1591
 9103W        W24997   2.295   7.679   0.598  0.0027  0.2975  0.0854
 9104W        W24998  15.648   3.998  11.979 -0.1929  0.0206 -0.2577
 9105W        W24999  11.054   5.349  16.151 -0.0284  0.0966 -0.3317
 9106W        W25000   9.784  11.185   1.793  0.0056  0.3359 -0.1009
 9107W        W25001   6.512  10.895   4.401  0.1725 -0.0639  0.0505
 9108W        W25002   4.772  10.159  14.529 -0.2872 -0.1035  0.1864
 9109W        W25003   0.569  13.114  12.522 -0.5541 -0.4106 -0.0568
 9110W        W25004   4.738   0.442   2.004  0.2907  0.1868 -0.0080
 9111W        W25005   5.705   7.574   0.565 -0.0287 -0.1901  0.0313
 9112W        W25006  15.173   1.430  15.349 -0.1073 -0.3706 -0.4303
 9113W        W25007   2.664   0.872  14.032 -0.0949 -0.2184 -0.0426
 9114W        W25008   9.564   1.846   2.591  0.1079 -0.0340  0.2411
 9115W        W25009   2.166   2.494   3.572 -0.0235 -0.1542  0.3381
 9116W        W25010   7.089   2.715  15.380 -0.2538  0.0896  0.1351
 9117W        W25011   4.475   9.777  14.343  0.1720 -0.0329  0.1008
 9118W        W25012   6.320   0.685  16.477 -0.1890 -0.0431 -0.0038
 9119W        W25013   9.479   1.509  12.171 -0.2036 -0.0849  0.6165
 9120W        W25014   8.738  15.938  16.817  0.3242  0.0584 -0.0475
 9121W        W25015   7.748  16.686  16.640  0.3534  0.0142 -0.0504
 9122W        W25016   8.604   1.061  13.665 -0.0789 -0.0740 -0.1888
 9123W        W25017  11.915  14.163  14.549 -0.2334  0.0750  0.0830
 9124W        W25018  14.980   3.319  16.323  0.1194 -0.2099 -0.0095
 9125W        W25019   0.773   3.624  13.842 -0.0987 -0.0098  0.0282
 9126W        W25020  11.220  14.615   3.708  0.3704 -0.2010  0.2010
 9127W        W25021  12.785  16.905   2.822 -0.1272 -0.1549 -0.2055
 9128W        W25022   8.301   0.997  15.986  0.0012 -0.2145  0.0109
 9129W        W25023   4.348   0.378   2.760 -0.0337  0.0070  0.1243
 9130W        W25024  15.208   5.800  16.006 -0.0091 -0.2379 -0.1332
 9131W        W25025   4.637   1.122  13.389  0.0023  0.1915 -0.1302
 9132W        W25026  12.992   7.227  15.946  0.1761 -0.0275  0.0240
 9133W        W25027   8.800   1.142   2.863  0.0740  0.2180  0.0354
 9134W        W25028  14.694   8.514   2.639 -0.1203 -0.4992 -0.3283
 9135W        W25029  10.165  14.328  13.774 -0.0945  0.0963 -0.0925
 9136W        W25030   9.773   2.428   0.488 -0.0035  0.0443 -0.0956
 9137W        W25031  16.480  10.626  12.491 -0.2306 -0.2047  0.0689
 9138W        W25032  11.242   8.606   5.957  0.0383  0.2177 -0.0788
 9139W        W25033   6.769   7.071   4.612  0.1713 -0.2236 -0.2605
 9140W        W25034   7.654  12.901   2.659  0.1804 -0.1206 -0.3577
 9141W        W25035   0.278   8.888   2.806 -0.1021 -0.3125 -0.2249
 9142W        W25036   6.256  13.152   3.977  0.0576 -0.0547 -0.0492
 9143W        W25037   1.878  14.002   3.130 -0.0360  0.0402  0.1017
 9144W        W25038   0.166  14.421  16.870  0.0165 -0.1544  0.1237
 9145W        W25039   1.433   9.681  13.324  0.1866 -0.0791 -0.1236
 9146W        W25040  12.266  12.624  15.303  0.2531  0.0268 -0.2001
 9147W        W25041  12.904  11.738  16.843  0.2333 -0.1413 -0.0497
 9148W        W25042   7.954  13.070  13.804  0.0070 -0.0910  0.0356
 9149W        W25043   6.396   8.067   3.609  0.1358  0.0584 -0.2450
 9150W        W25044   0.748   5.228   3.596  0.1878 -0.2491  0.0651
 9151W        W25045  12.791   6.224  14.507  0.1158  0.2286 -0.1493
 9152W        W25046  10.356  14.177   3.337 -0.2229  0.1313  0.2065
 9153W        W25047  17.641  11.789  14.300 -0.0033 -0.2445  0.2010
 9154W        W25048   3.520   0.719  12.545  0.2568  0.1255 -0.1325
 9155W        W25049  11.258  17.314   1.408  0.3298 -0.1823 -0.2680
 9156W        W25050  17.121   7.767   5.434 -0.1466 -0.6010 -0.0681
 9157W        W25051  10.109   6.475   3.609  0.1348 -0.3130 -0.0462
 9158W        W25052  12.544  11.467   3.436 -0.2016  0.4972 -0.4909
 9159W        W25053   0.147  16.550  15.270 -0.0058 -0.2238 -0.1542
 9160W        W25054   5.902   9.386   5.793  0.1410 -0.2381 -0.1693
 9161W        W25055   2.381   5.118  16.374 -0.0765 -0.3959 -0.2450
 9162W        W25056  10.469   9.007  13.383  0.2228  0.0499 -0.2320
 9163W        W25057  12.498   5.403   5.571 -0.0742 -0.1172  0.2105
 9164W        W25058   4.590  12.270   5.768  0.1233 -0.1580  0.0555
 9165W        W25059  13.261   3.462  16.881 -0.1369 -0.2031 -0.2906
 9166W        W25060  13.456   1.029  10.776  0.0938 -0.0172  0.1686
 9167W        W25061   9.112  17.525  12.393  0.0030  0.0579 -0.0628
 9168W        W25062   8.648   5.908  12.781  0.0041 -0.0809  0.1923
 9169W        W25063  12.683   3.733   5.346 -0.0718  0.1443  0.1407
 9170W        W25064  12.539  13.690   1.870  0.0663  0.0130  0.1418
 9171W        W25065  11.534  11.462   3.452 -0.2302 -0.0213  0.1929
 9172W        W25066  11.539   9.990   5.516 -0.4127  0.2144  0.1013
 9173W        W25067   4.040  14.502  14.128  0.1953  0.0830  0.1968
 9174W        W25068   9.908  10.251   5.291  0.3363 -0.0964  0.1323
 9175W        W25069  16.841   3.724   3.344  0.2096  0.0428 -0.4426
 9176W        W25070   2.029   4.431  16.758  0.1813 -0.0578  0.1679
 9177W        W25071   6.482  10.361  14.040  0.1077 -0.2049 -0.4119
 9178W        W25072   7.982   3.301   0.848  0.5569 -0.3517 -0.1895
 9179W        W25073   7.683  16.807  15.272 -0.0316 -0.0940  0.1836
 9180W        W25074   2.857  12.714   2.568  0.1720 -0.1112  0.3305
 9181W        W25075  16.266   5.334   1.971  0.0262  0.0241  0.1825
 9182W        W25076   4.087   2.565  14.197  0.0756  0.2930  0.1372
 9183W        W25077  10.315  10.685  12.505  0.0720  0.0678  0.0457
 9184W        W25078  11.337   2.050   1.280  0.0756 -0.0796  0.0788
 9185W        W25079  13.030   2.698   0.156 -0.0492 -0.0133  0.2263
 9186W        W25080  17.533  11.502   6.199  0.1952 -0.2708 -0.3460
 9187W        W25081   1.007  17.308   4.812 -0.1640  0.0212  0.1313
 9188W        W25082   7.017  15.948  16.738  0.2458 -0.1640  0.1659
 9189W        W25083   6.857  12.897  15.362  0.2896  0.0784  0.1442
 9190W        W25084  10.699  15.226   4.077  0.2680  0.2250  0.0820
 9191W        W25085  17.267   9.078  14.309 -0.1959 -0.0812  0.1277
 9192W        W25086  11.705   2.904   0.302  0.0863 -0.0406  0.3830
 9193W        W25087  13.614   6.324  11.960  0.2667  0.0720  0.2191
 9194W        W25088   6.002  12.399  13.320 -0.1301 -0.1617 -0.1774
 9195W        W25089  15.153   2.335  11.300 -0.2135 -0.0871  0.5508
 9196W        W25090  16.327   5.604  13.903 -0.3231 -0.2763 -0.0144
 9197W        W25091   9.590   5.975  13.592  0.1421  0.2759 -0.1502
 9198W        W25092  13.032   2.511   4.787  0.0661 -0.6076 -0.2887
 9199W        W25093  17.029  13.938  14.026 -0.0592 -0.1608 -0.1478
 9200W        W25094   4.893  13.121   1.466 -0.0830  0.0392  0.0867
 9201W        W25095   9.622   0.545  16.030  0.1966  0.0922 -0.3119
 9202W        W25096   5.464   5.855   4.017  0.1901  0.1989 -0.2229
 9203W        W25097   9.145  12.283  12.150  0.0683 -0.2924  0.0139
 9204W        W25098   8.456  10.396  12.930 -0.1410  0.1182 -0.0248
 9205W        W25099  17.629  13.108   2.877 -0.1307  0.0358 -0.0318
 9206W        W25100  14.060  11.721   1.637  0.1503  0.2048  0.1321
 9207W        W25101   6.173  11.494  15.638 -0.0024 -0.1913  0.0211
 9208W        W25102  14.367   3.981  14.679  0.0689  0.1615 -0.3111
 9209W        W25103   5.680  10.914   2.162  0.1649  0.0239 -0.1584
 9210W        W25104   3.377  13.836  16.700 -0.0512 -0.3104 -0.2788
 9211W        W25105  10.959  12.887  14.608 -0.0988  0.0340 -0.1782
 9212W        W25106  11.614  15.931  14.749 -0.1749  0.1877 -0.1952
 9213W        W25107   2.154   9.108   3.629  0.1646  0.3183  0.2685
 9214W        W25108   4.899  14.705  12.742  0.0016 -0.1823  0.1380
 9215W        W25109   9.504   6.230  13.120  0.1105  0.1247  0.4583
 9216W        W25110  11.016  13.262   5.395  0.0778 -0.2425  0.0293
 9217W        W25111   7.477   3.958   3.438  0.3835  0.0226 -0.0184
 9218W        W25112   2.956  13.265   2.881 -0.1490 -0.1595 -0.0430
 9219W        W25113   3.495  12.721   5.249 -0.0466  0.1653 -0.0570
 9220W        W25114  10.260  17.620   3.853 -0.1351  0.0562 -0.0095
 9221W        W25115  14.874   7.113   4.362  0.0117  0.3207  0.1046
 9222W        W25116   9.657   8.758  16.073  0.1087  0.0446  0.0951
 9223W        W25117  11.867   7.705  15.716  0.2781 -0.0676 -0.1585
 9224W        W25118   8.102  11.794   4.653  0.2295 -0.7477 -0.4951
 9225W        W25119   3.078   6.347  13.439 -0.2842  0.1640 -0.2157
 9226W        W25120   2.304  16.465  16.000  0.1012 -0.3079 -0.1378
 9227W        W25121   8.007  10.261  15.660 -0.2149 -0.0819 -0.0189
 9228W        W25122  14.073   9.317  12.916 -0.2116  0.1022 -0.0702
 9229W        W25123   0.110  14.653   5.968  0.1668 -0.3847 -0.0211
 9230W        W25124  13.989   8.764  14.647 -0.3602  0.2014  0.1504
 9231W        W25125   8.279  15.707   1.127  0.0011 -0.2972  0.0079
 9232W        W25126  10.089  16.595  15.522  0.0396  0.1094 -0.2530
 9233W        W25127   1.971  17.053  15.568  0.1211 -0.0533  0.0822
 9234W        W25128  14.569   0.923   4.983 -0.1894 -0.0358  0.1609
 9235W        W25129  11.973  15.826  16.640  0.0828 -0.0677 -0.3560
 9236W        W25130   0.325   2.414  16.150 -0.0856  0.3284  0.2252
 9237W        W25131  16.703  15.287  16.287  0.1745  0.0078  0.1456
 9238W        W25132  13.594  15.259  16.351 -0.1370  0.2572  0.1007
 9239W        W25133   7.842  13.581   3.730  0.0860  0.1950 -0.3301
 9240W        W25134   5.294  13.575   1.105  0.0094  0.1347  0.2141
 9241W        W25135   4.523   8.712  15.488 -0.0305 -0.1318  0.0204
 9242W        W25136  10.379   0.128   4.267 -0.0036 -0.0016  0.0364
 9243W        W25137  15.568   2.610   5.503  0.1067 -0.3314  0.2167
 9244W        W25138  14.372  15.031   4.296 -0.1883 -0.2701  0.0401
 9245W        W25139  16.666   4.476  14.792 -0.2379  0.1050 -0.0646
 9246W        W25140  10.345  13.721   2.166 -0.2724  0.3258  0.1219
 9247W        W25141  10.236  16.200  16.463 -0.3326  0.1669 -0.0437
 9248W        W25142   3.191   3.549   1.214 -0.0980  0.0306  0.2451
 9249W        W25143   6.895  10.473   3.878  0.0236  0.2531  0.2111
 9250W        W25144  12.979  17.533   3.906 -0.0282 -0.2175 -0.0489
 9251W        W25145  15.942   3.521  15.047  0.1401  0.1751 -0.2581
 9252W        W25146   7.664  17.458  13.214 -0.0131 -0.2617  0.4705
 9253W        W25147   2.142   5.332   5.252  0.2275 -0.3127 -0.1950
 9254W        W25148   4.696  14.834   5.145 -0.3458 -0.4660 -0.1519
 9255W        W25149   8.895   8.192   4.715  0.2096  0.1719 -0.0118
 9256W        W25150  15.041   9.669  16.691  0.0095  0.0226 -0.1413
 9257W        W25151   3.398  10.467   0.889 -0.2892 -0.0331 -0.2978
 9258W        W25152   4.704  15.614  16.883  0.0721 -0.0732 -0.2371
 9259W        W25153  17.037   9.713   2.679 -0.1405 -0.1417 -0.0386
 9260W        W25154   5.947   8.189  12.728  0.0402 -0.0045  0.1068
 9261W        W25155  13.644   6.502  13.301  0.1286 -0.2737 -0.1492
 9262W        W25156   0.874  15.297   5.550 -0.1181 -0.0996  0.1718
 9263W        W25157   4.503  13.972   0.350  0.0176  0.1013  0.0529
 9264W        W25158   7.429  12.754   3.720 -0.1413 -0.0146  0.2554
 9265W        W25159   1.630  17.447  11.632 -0.1018  0.2635 -0.2074
 9266W        W25160  12.054   0.614  11.679 -0.0425 -0.1677 -0.0214
 9267W        W25161   0.359  10.698   3.193  0.1055 -0.1587 -0.3060
 9268W        W25162   5.448  14.573  15.547  0.0661  0.0082 -0.0329
 9269W        W25163  15.141  16.175  16.693 -0.2536 -0.1228  0.0959
 9270W        W25164   7.840   3.176  13.166 -0.3704 -0.1387  0.1745
 9271W        W25165   4.306   1.650  12.338  0.0926 -0.0459  0.1615
 9272W        W25166   3.237   9.974   2.513 -0.1201 -0.0165 -0.0449
 9273W        W25167   1.540  13.242   1.053 -0.1055  0.2772  0.2828
 9274W        W25168  16.626  16.849   5.842  0.3759 -0.0297 -0.2438
 9275W        W25169  12.422  15.735   4.045 -0.3028  0.2177 -0.1765
 9276W        W25170   2.069   7.591  14.288  0.0027  0.0490  0.1262
 9277W        W25171   8.546   4.677  14.087  0.1125 -0.0486 -0.1763
 9278W        W25172   0.709   6.380   5.597  0.1987  0.0630  0.0095
 9279W        W25173  13.181   2.766   0.650  0.1212  0.2372  0.0072
 9280W        W25174   8.275   1.335  11.525  0.0019  0.1196 -0.0235
 9281W        W25175   9.175   1.734   5.988  0.1523 -0.2682  0.1365
 9282W        W25176  10.329   9.880  14.580  0.1029 -0.0483  0.2084
 9283W        W25177  15.793  14.144   3.498 -0.3901  0.0619 -0.0969
 9284W        W25178   2.927   2.758  15.559  0.1264  0.1224 -0.3346
 9285W        W25179   5.757   9.950  14.957  0.3362 -0.2149  0.1812
 9286W        W25180   7.450   2.393   0.124 -0.3261  0.2448 -0.0411
 9287W        W25181  16.180   7.124  14.400  0.4082 -0.0994 -0.2741
 9288W        W25182   6.200  14.254  16.246 -0.1032 -0.1683  0.0630
 9289W        W25183   3.562   3.532  16.645 -0.2650 -0.2864  0.3097
 9290W        W25184   7.053  13.242   4.475 -0.0636  0.1075 -0.1033
 9291W        W25185  14.274   0.330   5.577 -0.0316 -0.2628 -0.0906
 9292W        W25186  15.470  13.589  12.414 -0.1718  0.0879 -0.2203
 9293W        W25187   5.924   1.806  14.393 -0.0267 -0.1637 -0.1064
 9294W        W25188   5.075   3.875   5.160  0.0716  0.2310 -0.0331
 9295W        W25189  13.455   2.279  16.425  0.1440 -0.1332 -0.2342
 9296W        W25190  10.000   9.791  15.280 -0.5168 -0.2631  0.2438
 9297W        W25191  13.353  10.201  12.081 -0.2594  0.2272 -0.1036
 9298W        W25192   8.228   6.244   1.073 -0.0208 -0.0680  0.3029
 9299W        W25193   5.429  15.071  11.922 -0.0299 -0.0740 -0.1931
 9300W        W25194   5.230   9.904   5.486 -0.0906 -0.0619 -0.1856
 9301W        W25195  14.782   1.946  14.065 -0.2730  0.2300  0.0486
 9302W        W25196  13.637   9.267  12.146  0.2262  0.2179  0.1280
 9303W        W25197  14.779  13.838  16.360  0.0854  0.0717 -0.3716
 9304W        W25198   8.126  11.229  15.608 -0.0016 -0.2260 -0.0529
 9305W        W25199  15.553  12.073  16.404  0.1915  0.0327 -0.2784
 9306W        W25200  17.610   6.100  12.915  0.2884 -0.0930 -0.0159
 9307W        W25201  14.931   0.840  15.804  0.0713 -0.4556 -0.0901
 9308W        W25202   8.601   1.841  15.866 -0.2802  0.4010 -0.3108
 9309W        W25203   2.893  12.480  12.042 -0.0661  0.2691  0.0385
 9310W        W25204   5.154   6.288  16.798 -0.1446  0.0369 -0.1785
 9311W        W25205   0.683  13.264  15.012  0.1642 -0.0186  0.1151
 9312W        W25206   6.724  14.409   2.534  0.2527 -0.2415  0.2817
 9313W        W25207  12.054   9.089  14.903 -0.0904 -0.0047 -0.0743
 9314W        W25208  10.125   2.455  16.886  0.1653  0.1213  0.0524
 9315W        W25209  17.557  13.767  12.755  0.0002 -0.1207  0.0286
 9316W        W25210   6.146  13.945  12.664  0.0665  0.0184 -0.1558
 9317W        W25211   6.059   5.435  15.464  0.0442 -0.0976 -0.0661
 9318W        W25212   1.652  13.714  12.769  0.0133 -0.2281 -0.3135
 9319W        W25213   4.449   1.125   4.455 -0.1463 -0.2567  0.0304
 9320W        W25214   0.845   4.907   0.416  0.1335 -0.2306  0.4265
 9321W        W25215  14.679  16.158  12.131  0.3264  0.1139  0.3132
 9322W        W25216   9.891  16.688   3.693 -0.0738 -0.2862 -0.0174
 9323W        W25217   2.681   2.981   5.380 -0.2656  0.2300 -0.0867
 9324W        W25218   0.672   9.896  12.861 -0.0632 -0.2911 -0.0834
 9325W        W25219  17.215  15.966   5.216  0.1400  0.0063 -0.0877
 9326W        W25220   8.307   4.975   2.034 -0.1040 -0.0038 -0.1138
 9327W        W25221  10.590   7.235  14.113 -0.2141  0.1882  0.2197
 9328W        W25222  16.835   4.946  15.871  0.2247  0.0156 -0.1383
 9329W        W25223   3.587  16.717   3.647  0.0591  0.2175 -0.0061
 9330W        W25224  14.218   4.513  13.688 -0.1308 -0.1363  0.5801
 9331W        W25225  17.052  15.115   2.446 -0.1980  0.0924 -0.2539
 9332W        W25226  11.097  10.460  12.929  0.0525 -0.1792  0.0075
 9333W        W25227   1.528  10.921   2.468 -0.1153 -0.1140  0.2914
 9334W        W25228   0.994   5.462  13.537 -0.0002 -0.1765 -0.0104
 9335W        W25229  15.999   6.716   4.952 -0.1774  0.0658  0.0559
 9336W        W25230  17.731   8.522   5.342  0.0022  0.0510 -0.0634
 9337W        W25231   6.110   2.522   2.729  0.2829 -0.3078 -0.0805
 9338W        W25232  10.125   8.669  14.309  0.0703 -0.0919 -0.2820
 9339W        W25233  12.958  12.192   1.750 -0.4709  0.2751  0.0098
 9340W        W25234   3.917   9.408  12.705  0.0181  0.2421 -0.1098
 9341W        W25235   9.850  15.067   5.566 -0.1217 -0.2743  0.0852
 9342W        W25236   5.982   4.445  11.903  0.0015 -0.0888 -0.0215
 9343W        W25237   3.522   0.003  16.770 -0.1134 -0.3320  0.0596
 9344W        W25238  16.598   8.970  11.520 -0.4245  0.0858  0.4502
 9345W        W25239   4.111  14.535   4.656 -0.1863 -0.1331 -0.1470
 9346W        W25240  11.927  13.249   1.476  0.2481  0.0539 -0.3100
 9347W        W25241   6.138   7.401   0.336  0.4351 -0.1346 -0.2528
 9348W        W25242   5.220  17.335   4.256  0.0235  0.1807 -0.0370
 9349W        W25243  10.970  15.047   0.722  0.2451  0.2937  0.1128
 9350W        W25244   9.597   3.194  11.763  0.1432  0.1223 -0.3618
 9351W        W25245  13.317  10.043   3.288  0.1646  0.0304 -0.0700
 9352W        W25246  14.794  15.753  16.409  0.1292 -0.0889 -0.1087
 9353W        W25247  12.138   2.574   2.933 -0.3585 -0.2046  0.0768
 9354W        W25248  16.043  16.869   5.076  0.1007 -0.1444  0.1867
 9355W        W25249   2.912   4.080  12.140 -0.0209  0.1172  0.0245
 9356W        W25250   4.134  11.706   3.308  0.0758 -0.1031 -0.2027
 9357W        W25251  15.340   4.158   5.089 -0.1810  0.0229  0.0986
 9358W        W25252  11.395   9.835  15.568  0.0316  0.2000  0.0016
 9359W        W25253   1.629  11.055  11.787 -0.1612 -0.2113 -0.0219
 9360W        W25254  17.682   8.672  15.297 -0.0243  0.2921  0.0873
 9361W        W25255   4.801   5.526   5.262 -0.1770  0.3184  0.0432
 9362W        W25256   5.682  15.481  15.330 -0.3608  0.3090  0.0890
 9363W        W25257  13.835   1.173  12.277  0.0222  0.1060 -0.0663
 9364W        W25258  13.096  17.782  13.721  0.0753 -0.0551 -0.1137
 9365W        W25259   3.458   2.738  16.840 -0.1138  0.1320  0.0734
 9366W        W25260   1.929   1.318   1.673 -0.1370  0.0595  0.0687
 9367W        W25261   3.737   9.547   0.058 -0.1446 -0.0983 -0.1381
 9368W        W25262   2.592   6.892   3.315 -0.0575  0.1569  0.1040
 9369W        W25263  12.761   1.879   0.322  0.2432 -0.0215  0.2060
 9370W        W25264  10.072   9.383  13.327 -0.1532  0.2524 -0.0075
 9371W        W25265   5.547   5.400   2.184  0.1214 -0.0690 -0.0734
 9372W        W25266  17.381  12.019   5.078 -0.4388  0.0079 -0.1920
 9373W        W25267  14.683  16.583   4.093 -0.0555  0.0064 -0.0966
 9374W        W25268  14.332   4.890   3.144 -0.0262  0.0079  0.1932
 9375W        W25269  16.023  16.090  15.643  0.0296 -0.0717  0.0191
 9376W        W25270   7.578   8.915  15.059  0.1733 -0.3046  0.0357
 9377W        W25271   8.206   6.960   1.469 -0.0210 -0.2285 -0.0543
 9378W        W25272   1.295   0.811  16.108  0.0455  0.4210 -0.1765
 9379W        W25273   6.932   1.334  11.876 -0.0918  0.0588  0.1584
 9380W        W25274  15.030   9.374   1.829  0.0554  0.2241 -0.0931
 9381W        W25275   4.971   9.553   4.145 -0.2373 -0.0567 -0.1185
 9382W        W25276   3.998   0.054   1.904  0.0071 -0.1670  0.2399
 9383W        W25277  14.555   4.926  16.561  0.0485 -0.3073 -0.2421
 9384W        W25278  11.302   1.622  16.428 -0.1107  0.1290 -0.4467
 9385W        W25279   2.794   3.623   1.703 -0.0344  0.2393  0.2464
 9386W        W25280  16.817  12.999  14.261  0.2206 -0.3336  0.3158
 9387W        W25281   3.075  16.797   2.748 -0.0293  0.3078  0.0631
 9388W        W25282   0.103  16.250  11.997  0.0347  0.2484 -0.0648
 9389W        W25283  13.822  17.759   3.579  0.0540  0.2810 -0.2438
 9390W        W25284   1.164  11.868   1.225  0.1134 -0.0611  0.2658
 9391W        W25285   8.559  14.555   0.670 -0.1815  0.1481 -0.2491
 9392W        W25286  16.919   3.805  12.786 -0.1755 -0.1620  0.3722
 9393W        W25287  13.891   5.277  14.412  0.1813 -0.1036  0.0510
 9394W        W25288   6.267  12.267  14.378  0.0731  0.1023 -0.1332
 9395W        W25289   7.703  16.733   2.793 -0.0197  0.1493  0.1809
 9396W        W25290  14.275   2.150   1.770 -0.1424  0.0070 -0.2079
 9397W        W25291  14.405   1.207  13.677  0.0240  0.0367 -0.2250
 9398W        W25292   3.215  13.659   5.530  0.0820 -0.4295  0.0349
 9399W        W25293   8.557   4.466  12.991 -0.2485 -0.1488 -0.0625
 9400W        W25294   7.202  13.756  16.072 -0.1091  0.1113 -0.0715
 9401W        W25295   7.816   4.917  13.538 -0.0731  0.0380  0.1807
 9402W        W25296   8.117   2.651  15.748  0.0732 -0.3821 -0.2609
 9403W        W25297  11.297  13.966   2.435  0.2050 -0.1902 -0.0439
 9404W        W25298   1.382  14.891   0.831 -0.0771 -0.0422  0.1541
 9405W        W25299   2.653  13.300   5.433  0.0496  0.1368 -0.0538
 9406W        W25300  10.607  14.468  10.829 -0.0660  0.0810 -0.0142
 9407W        W25301  13.398  10.372  14.064  0.1714  0.1786  0.3922
 9408W        W25302   3.458   4.249  15.897 -0.0228 -0.0748 -0.0957
 9409W        W25303  11.899  17.132   4.063 -0.1365 -0.1816  0.0988
 9410W        W25304  16.538  11.240  14.293  0.3840 -0.1230  0.0957
 9411W        W25305   1.804   8.447   0.352  0.3005  0.0112 -0.0872
 9412W        W25306   9.171   8.811  13.050 -0.0033  0.3496  0.1944
 9413W        W25307  13.267   2.118  16.899 -0.0862  0.2440  0.1556
 9414W        W25308  16.346   6.465  12.819  0.0683 -0.1074 -0.1883
 9415W        W25309  12.776   4.099   4.508 -0.2477  0.0583 -0.2782
 9416W        W25310  10.112   4.769  12.475 -0.1977  0.0636 -0.0917
 9417W        W25311   5.744  11.020  16.701  0.2535  0.1702  0.1389
 9418W        W25312  10.304  11.849  14.091 -0.0216 -0.2694 -0.1497
 9419W        W25313  12.053  10.755  14.299 -0.0878  0.3911  0.0140
 9420W        W25314  11.124   3.623   0.492 -0.0895  0.0598 -0.0074
 9421W        W25315   4.855   6.171  11.965  0.0497  0.2144  0.1391
 9422W        W25316   2.307  10.656   5.203  0.1632  0.0034 -0.0350
 9423W        W25317   7.122   9.572   4.236  0.3193 -0.1230  0.0758
 9424W        W25318   4.925  11.837  14.997 -0.1804 -0.1769  0.2712
 9425W        W25319  16.247   9.272  14.274  0.1770  0.0283 -0.2454
 9426W        W25320   8.675   7.986   3.369  0.0161 -0.3472 -0.3094
 9427W        W25321   6.733   1.136   1.716 -0.1005 -0.1855 -0.1236
 9428W        W25322   8.460  11.259  12.515 -0.1285  0.2489  0.1861
 9429W        W25323  15.662   2.849  15.856 -0.0469 -0.0373  0.1648
 9430W        W25324   4.979   0.868   2.209  0.0192  0.1453 -0.4207
 9431W        W25325   0.485   3.907   1.940  0.1209 -0.0887  0.0263
 9432W        W25326   1.452   1.417   5.281 -0.2080  0.2736 -0.3553
 9433W        W25327  15.820  10.513  15.049  0.1031  0.0038  0.0685
 9434W        W25328   6.130   9.087  14.562 -0.1430  0.5425  0.0162
 9435W        W25329   8.626  11.949  16.131  0.0373  0.2154  0.0851
 9436W        W25330   7.959   5.117  16.744  0.1913  0.1287 -0.1266
 9437W        W25331  16.045   4.216  10.151  0.3548 -0.3175  0.1149
 9438W        W25332   9.109   1.854  15.779 -0.0073 -0.3114  0.3142
 9439W        W25333   8.738   3.265   2.814  0.0903  0.2234 -0.1042
 9440W        W25334  12.645   3.506   0.373  0.0377  0.0612  0.0256
 9441W        W25335   5.426  11.125  15.059 -0.1416  0.2282 -0.0905
 9442W        W25336   1.863   8.272  14.979 -0.0386  0.0537 -0.2152
 9443W        W25337  10.356   6.910   3.787  0.1631 -0.2758 -0.0216
 9444W        W25338   0.683   8.262   0.422 -0.2269 -0.0465 -0.0847
 9445W        W25339  14.489   5.604  15.513 -0.0982  0.1744  0.0306
 9446W        W25340   6.340   4.402   0.286  0.1802  0.1379  0.2338
 9447W        W25341  17.153   2.951   3.752 -0.0008  0.2894  0.0865
 9448W        W25342   5.825  15.369  12.087  0.4083  0.1604 -0.2092
 9449W        W25343   9.441   7.567  13.058 -0.0120  0.0872 -0.1870
 9450W        W25344  14.871   2.529  12.211 -0.1449  0.0954 -0.0997
 9451W        W25345  11.444   1.657   1.772 -0.1164  0.0543  0.0097
 9452W        W25346  13.735   7.393   1.488  0.0016  0.0779  0.2123
 9453W        W25347   5.202   7.326  12.177 -0.1402  0.0005  0.3495
 9454W        W25348  12.356   6.180  11.660  0.2870 -0.0791  0.2638
 9455W        W25349  15.312   4.776  14.640 -0.1156  0.0492  0.0203
 9456W        W25350   8.376  10.137   3.068 -0.0731 -0.1889  0.0635
 9457W        W25351  14.971   9.163  13.920  0.3106 -0.1003 -0.0473
 9458W        W25352  13.010   1.744  14.931 -0.0852  0.0986 -0.0671
 9459W        W25353   6.645  13.097   5.631  0.0745  0.4032  0.0944
 9460W        W25354   7.777   5.516   3.273 -0.0492 -0.0832 -0.2961
 9461W        W25355  10.150  13.734   1.723 -0.0163  0.0665 -0.1726
 9462W        W25356   2.664   2.390  12.585 -0.0387 -0.0607  0.3373
 9463W        W25357   5.100  16.801  13.815 -0.1209 -0.5050  0.0687
 9464W        W25358   5.043   9.483   3.418 -0.1112 -0.2834 -0.0946
 9465W        W25359  16.069   5.463  16.724  0.2013  0.0450  0.3024
 9466W        W25360  10.488  17.198  14.962 -0.4120  0.0946 -0.1148
 9467W        W25361   1.380   1.404   5.945 -0.1788 -0.1625  0.1504
 9468W        W25362   9.409   2.700   0.159  0.1836  0.2341  0.2579
 9469W        W25363   9.289   8.344   3.203  0.0046 -0.1646 -0.0731
 9470W        W25364   4.660   2.361   5.013  0.0082 -0.0674  0.0932
 9471W        W25365  17.412   0.471   1.035 -0.3070 -0.1284  0.0157
 9472W        W25366   8.279   9.785  13.914  0.2867 -0.0106 -0.0040
 9473W        W25367   2.192   4.357   2.417  0.2558  0.0261 -0.3369
 9474W        W25368   3.406   7.862   3.520  0.0172  0.1599  0.0781
 9475W        W25369  10.924   4.590   2.352  0.0181  0.0438 -0.0383
 9476W        W25370   3.120  14.900  12.684 -0.0360 -0.0369  0.0583
 9477W        W25371  13.945  14.398  16.484 -0.0631 -0.2535 -0.1232
 9478W        W25372  13.530   9.005   1.926  0.1015  0.0353  0.0300
 9479W        W25373  15.858   9.211   0.692  0.1322 -0.0055  0.0814
 9480W        W25374   9.789   8.443   4.729  0.0139  0.0263 -0.1386
 9481W        W25375  14.866  11.872  15.536 -0.2443  0.1508  0.2007
 9482W        W25376  13.508  10.948   3.154  0.1729 -0.3482  0.3122
 9483W        W25377   7.305  11.923  10.901 -0.1442  0.2104  0.2530
 9484W        W25378  13.917   7.594  15.832 -0.1186  0.4911 -0.2982
 9485W        W25379   0.563   8.371   1.584 -0.1790 -0.2125 -0.3335
 9486W        W25380  13.084  14.593  15.247  0.1065 -0.0422  0.0022
 9487W        W25381  13.827  12.410   2.249  0.1268 -0.1700  0.0021
 9488W        W25382   1.127   8.535   2.951 -0.2699  0.0909 -0.1355
 9489W        W25383  11.030  16.052   2.934 -0.1222 -0.1249  0.1035
 9490W        W25384  17.600   1.563  14.967 -0.1274 -0.0374  0.2775
 9491W        W25385  10.270  14.299   2.021 -0.0925 -0.1093 -0.1678
 9492W        W25386   7.553   0.845  16.367  0.1869  0.0805  0.2666
 9493W        W25387   6.976   8.982  16.107  0.0245 -0.1620 -0.0002
 9494W        W25388  16.488   3.734   0.342 -0.0409  0.1524 -0.1743
 9495W        W25389  11.546   9.255   0.889 -0.2795 -0.1278 -0.1774
 9496W        W25390   0.635  14.271   5.284  0.0016 -0.0311 -0.1428
 9497W        W25391   9.115  12.989  15.169  0.0359  0.2002 -0.0303
 9498W        W25392   0.796  15.562   4.156 -0.0363 -0.0606  0.0204
 9499W        W25393  10.733  17.513   3.736 -0.2015 -0.0660  0.3269
 9500W        W25394   6.929   2.572   2.314 -0.1798  0.0691 -0.3509
 9501W        W25395  11.771   0.144   3.192  0.1033  0.0637 -0.1532
 9502W        W25396   8.728  14.835   2.813  0.0428  0.1616 -0.1736
 9503W        W25397   9.281   3.260   5.754  0.0780  0.2946  0.3033
 9504W        W25398   3.513   7.806  15.341  0.1519  0.3335 -0.2490
 9505W        W25399   5.563  15.115   5.801  0.2508  0.1795 -0.2333
 9506W        W25400  10.805  13.866  14.845  0.4067 -0.1147 -0.1985
 9507W        W25401   7.585  15.535  15.647 -0.0785 -0.0445 -0.1798
 9508W        W25402  12.748   9.878  12.978  0.2677 -0.0106 -0.2589
 9509W        W25403   7.704  16.777  13.169 -0.0241  0.2562 -0.1152
 9510W        W25404   3.525   0.847  11.404  0.1160 -0.5307  0.2863
 9511W        W25405   2.921   4.377  16.748  0.1897 -0.1557  0.1925
 9512W        W25406  12.239   6.574   5.923  0.1866  0.1034 -0.0292
 9513W        W25407   4.312   7.419   4.155  0.1617 -0.2289 -0.2043
 9514W        W25408  12.928   2.708  12.289  0.2123 -0.2626  0.3004
 9515W        W25409  11.880   4.524   2.452  0.0644 -0.1430 -0.1227
 9516W        W25410  12.545   2.474  14.388  0.0069 -0.1704 -0.1408
 9517W        W25411   0.793   8.442  11.612 -0.2201 -0.0418  0.0120
 9518W        W25412   9.665   6.701  15.111  0.0099  0.2418  0.2008
 9519W        W25413  16.672   0.454   2.708 -0.2304  0.1689 -0.0375
 9520W        W25414  14.179  13.128   2.181  0.2561  0.0152  0.0003
 9521W        W25415  17.255   6.052  14.972 -0.1528  0.1812  0.0301
 9522W        W25416  17.351   1.770   0.565 -0.0730 -0.1506 -0.1043
 9523W        W25417  11.547  14.801  13.818  0.0503  0.2115  0.4274
 9524W        W25418   8.534   5.274   3.946  0.3526 -0.0422  0.2667
 9525W        W25419   6.729  15.820  13.330  0.2035 -0.0095  0.1881
 9526W        W25420  12.097   9.799   4.302 -0.0022  0.3013 -0.1833
 9527W        W25421   0.684  11.750  14.579 -0.1627  0.1833  0.1548
 9528W        W25422  16.309  10.163   4.172 -0.1271 -0.1442 -0.1036
 9529W        W25423   1.351   6.243   1.410 -0.2635  0.5174  0.0472
 9530W        W25424   3.471  15.355   2.346 -0.2418 -0.4457 -0.2119
 9531W        W25425   3.489   5.850   0.259 -0.1663  0.2287  0.1008
 9532W        W25426   5.790   2.279  12.902  0.3844 -0.1495  0.0181
 9533W        W25427  14.049   1.666  16.283 -0.1192 -0.0900  0.0062
 9534W        W25428  16.696   1.784  13.462 -0.0354 -0.2079  0.0886
 9535W        W25429   4.536   3.381   2.702  0.1117 -0.0228 -0.1081
 9536W        W25430   6.913   5.978  16.255  0.1764 -0.3605 -0.1618
 9537W        W25431   5.691  13.655   2.398 -0.0579  0.1597 -0.1332
 9538W        W25432   4.776   5.093   1.475 -0.0960  0.1984  0.2908
 9539W        W25433   2.273  17.082   1.205  0.1591  0.1258  0.3727
 9540W        W25434   4.148   1.946   3.231 -0.1170 -0.1321  0.0065
 9541W        W25435   3.055  13.447   1.968  0.0058 -0.2276  0.2939
 9542W        W25436   4.576  11.066  16.433  0.0803  0.0559  0.0265
 9543W        W25437  17.579   8.033  16.040  0.0146  0.1674  0.0535
 9544W        W25438   8.753   6.767   4.434 -0.1615  0.1189 -0.3773
 9545W        W25439   8.082  12.025   5.191 -0.1467  0.1712  0.1271
 9546W        W25440  13.157  17.163   2.488 -0.1093 -0.0382  0.2966
 9547W        W25441   3.054   1.723  15.830  0.2313  0.1278 -0.1389
 9548W        W25442   3.334  15.743  13.288  0.1910  0.0854  0.0494
 9549W        W25443   8.728   7.615   5.880 -0.1424 -0.3946  0.0228
 9550W        W25444  16.101   0.961   4.864  0.0995  0.1380  0.0752
 9551W        W25445  10.220   9.860   5.380 -0.2160  0.0596  0.1424
 9552W        W25446  12.743   4.897   2.044 -0.2177  0.1146  0.0580
 9553W        W25447  16.351   6.143  13.980  0.1328  0.0065 -0.0403
 9554W        W25448   6.385   8.615   3.653 -0.3059 -0.1238 -0.0395
 9555W        W25449   0.606  11.466  15.479 -0.4184 -0.3870 -0.1480
 9556W        W25450  15.576   4.150   2.367 -0.0608 -0.2255  0.2675
 9557W        W25451   8.482  12.903  13.893 -0.0326 -0.1199 -0.1610
 9558W        W25452  13.386   5.351   1.129  0.3432 -0.3045 -0.3472
 9559W        W25453   3.391   2.305  13.372  0.0085 -0.2477  0.2095
 9560W        W25454   7.785   9.358  15.235  0.0003 -0.1044  0.1956
 9561W        W25455   7.951   6.757  15.746  0.1192  0.1544  0.0133
 9562W        W25456  12.505   5.952  14.120 -0.2808  0.0436 -0.4226
 9563W        W25457  16.236  16.439   5.128 -0.0688  0.1120 -0.2079
 9564W        W25458  14.162   4.377   1.855  0.0741  0.4172  0.2275
 9565W        W25459   9.315   3.750   4.419 -0.0745 -0.0748  0.0756
 9566W        W25460   7.906  13.709   3.234  0.0237 -0.0518  0.0916
 9567W        W25461   9.574  16.537  15.934 -0.2261  0.2268  0.0828
 9568W        W25462   7.398  16.847  14.869 -0.1698  0.0559 -0.0301
 9569W        W25463  10.057   5.188   1.818 -0.2254 -0.3073  0.1834
 9570W        W25464  14.653  13.566  15.496 -0.1301 -0.0873  0.0979
 9571W        W25465  17.415   7.080  15.090  0.2158 -0.1504  0.0555
 9572W        W25466  17.240  12.607  13.324 -0.0014 -0.0459 -0.1999
 9573W        W25467  17.221   6.372  13.143 -0.0335  0.0708  0.1054
 9574W        W25468  14.145   9.230  12.377  0.0878 -0.0899 -0.2325
 9575W        W25469   9.734   4.977   2.142 -0.1648  0.3586 -0.1610
 9576W        W25470  10.765  13.723  13.360 -0.2837  0.0640  0.0037
 9577W        W25471  12.714  15.943   3.176 -0.0031  0.1403  0.2243
 9578W        W25472   6.612   3.713   2.051  0.2750 -0.3642 -0.1082
 9579W        W25473   0.189   4.528  13.579  0.0951  0.1195  0.2137
 9580W        W25474   1.947  13.052  16.786  0.0805 -0.1741 -0.0448
 9581W        W25475   3.800   4.918   2.878 -0.1339  0.1158  0.0035
 9582W        W25476   8.332   8.652   4.017 -0.0048  0.0663  0.2318
 9583W        W25477  12.702   7.633   1.951 -0.0070 -0.0891  0.2642
 9584W        W25478  10.262  10.192   5.816  0.0693 -0.0847  0.2150
 9585W        W25479  15.190  17.819  15.225  0.2845  0.0811  0.2794
 9586W        W25480   3.011  11.462  15.828  0.1353  0.3427  0.1468
 9587W        W25481  15.076   3.552  13.887 -0.0670 -0.1076  0.0338
 9588W        W25482   9.568   3.863  12.882 -0.0197  0.0350  0.0063
 9589W        W25483  13.087  15.715  12.285 -0.0373  0.5798  0.1265
 9590W        W25484  10.124  15.770   2.531 -0.1266  0.0881  0.0060
 9591W        W25485   7.735  15.037   2.419  0.1596 -0.2434 -0.2840
 9592W        W25486   1.238   8.564   5.813  0.3732  0.0785 -0.0835
 9593W        W25487   8.093   0.822  12.524  0.1241 -0.3668 -0.1088
 9594W        W25488  11.785  12.420  12.823  0.1358 -0.0485  0.1577
 9595W        W25489   3.938   1.731  11.997  0.2195  0.0259  0.2241
 9596W        W25490   6.403  14.463   1.728 -0.1470  0.2536 -0.0823
 9597W        W25491  10.642   0.958   5.854  0.0317 -0.1012  0.0062
 9598W        W25492   0.086   3.820  12.914  0.0087 -0.0283 -0.2429
 9599W        W25493  17.789  16.373   4.366  0.1634  0.1728  0.0533
 9600W        W25494   0.969   4.539   2.548  0.0405  0.0640  0.1807
 9601W        W25495   2.813   3.994  15.540  0.1021  0.0228  0.1681
 9602W        W25496   0.769  12.371   4.818  0.1419 -0.0564 -0.0178
 9603W        W25497   9.996  10.592  12.951 -0.1475 -0.0352 -0.0989
 9604W        W25498  16.523  12.942  16.313 -0.0305  0.1979 -0.0329
 9605W        W25499   8.536  13.793  12.810 -0.0509 -0.2316 -0.0860
 9606W        W25500   2.528  15.048   0.757  0.0580 -0.3212  0.0833
 9607W        W25501  10.570   9.235  11.309 -0.1569 -0.0619  0.1370
 9608W        W25502   9.907  12.919   1.228 -0.0847 -0.0687 -0.2269
 9609W        W25503   6.454   8.392  14.857 -0.0594  0.0452  0.0798
 9610W        W25504  11.995  12.551   0.506  0.2930 -0.1469 -0.0405
 9611W        W25505  12.906  14.161  11.232  0.0517  0.2999 -0.0090
 9612W        W25506   9.355  10.484  13.553 -0.1110 -0.1975  0.1792
 9613W        W25507  16.796   3.706  13.760 -0.0754  0.1606  0.0841
 9614W        W25508  13.524  11.059   4.922  0.0316  0.0073 -0.0785
 9615W        W25509   4.021   5.265  15.161  0.2256 -0.1223 -0.2000
 9616W        W25510  10.237   0.516   1.575  0.0553  0.0948 -0.1049
 9617W        W25511   9.990   5.771  16.604 -0.2595  0.2314  0.0721
 9618W        W25512  13.408  17.441   5.195  0.0075 -0.1870  0.0253
 9619W        W25513   3.429   5.405   0.873 -0.0437  0.0214  0.1354
 9620W        W25514  17.681  14.474  14.530  0.0372 -0.0246 -0.0642
 9621W        W25515  17.033  10.675  15.926  0.0490  0.2342 -0.1045
 9622W        W25516   4.653   8.191   3.101 -0.0664 -0.0161 -0.0299
 9623W        W25517   0.921   5.900  15.564 -0.4132  0.1033  0.4065
 9624W        W25518  12.734   3.132  12.887  0.0291  0.2430 -0.0164
 9625W        W25519  10.144   6.126   1.837  0.1267  0.0161  0.3087
 9626W        W25520   4.694   8.501   0.656 -0.1740  0.1255 -0.2635
 9627W        W25521  15.300  16.185  12.660 -0.1195 -0.0311 -0.0155
 9628W        W25522  12.487   4.972   5.183 -0.0731 -0.2668  0.1316
 9629W        W25523   8.631   9.278   2.124  0.2087 -0.2893 -0.2194
 9630W        W25524   4.394   3.004   4.089  0.2798  0.2030  0.2904
 9631W        W25525  12.293   7.758  14.903 -0.1379  0.0262  0.1986
 9632W        W25526   7.878  15.494   2.340 -0.0918 -0.4537  0.0027
 9633W        W25527   0.991  15.958  16.051 -0.0270  0.0545 -0.2294
 9634W        W25528   7.987  16.318  13.293  0.1729 -0.0185 -0.0068
 9635W        W25529   2.365   4.422  14.294 -0.0838  0.1840 -0.0170
 9636W        W25530   0.682  17.315   1.560 -0.2193 -0.2723  0.0865
 9637W        W25531  17.756  14.401   5.231 -0.2823 -0.2518  0.1107
 9638W        W25532  15.484  12.579  11.243  0.0019  0.0376 -0.1207
 9639W        W25533  16.656  13.827   2.229 -0.1051 -0.0686 -0.1821
 9640W        W25534   2.517  14.105  12.596  0.0351 -0.1497 -0.0394
 9641W        W25535   5.302   8.218   4.593  0.1637 -0.2563 -0.0567
 9642W        W25536   4.919   8.146   2.617 -0.2425 -0.1884 -0.0577
 9643W        W25537   3.603   9.976  11.910  0.2666 -0.0331 -0.2453
 9644W        W25538   6.804   3.873  11.605 -0.0565 -0.0213  0.2171
 9645W        W25539  12.358   9.085   5.599 -0.0180  0.2658 -0.1436
 9646W        W25540   8.279  16.458  14.179  0.0860 -0.2093 -0.0261
 9647W        W25541  17.062  11.948   4.629  0.4993 -0.2627  0.1889
 9648W        W25542   6.920   7.534   0.348  0.3005  0.0190  0.0470
 9649W        W25543   4.968  12.466  13.168  0.3219 -0.0457  0.0907
 9650W        W25544   7.408  17.228   6.323  0.1729  0.0116 -0.1025
 9651W        W25545   6.529   0.378  15.145  0.0037  0.0422  0.0638
 9652W        W25546  10.642   1.793  13.208  0.1133 -0.1483 -0.0959
 9653W        W25547  13.237  14.094   3.334 -0.2536  0.0718  0.1366
 9654W        W25548   9.690   2.865   3.079 -0.1073  0.2989  0.0711
 9655W        W25549  17.269   3.921   4.812 -0.0118 -0.1896  0.0519
 9656W        W25550   5.897   7.791   3.640 -0.0102  0.0094 -0.3159
 9657W        W25551   6.674   3.818  14.912 -0.2851  0.2338 -0.1144
 9658W        W25552   6.602  17.356  15.571  0.0714 -0.0360  0.1871
 9659W        W25553   8.065  15.650  15.577 -0.0457 -0.0118  0.0122
 9660W        W25554   3.110   0.954  12.323 -0.0940  0.1400  0.2913
 9661W        W25555   0.634  11.756   1.069  0.1063 -0.1439 -0.2406
 9662W        W25556  16.534   5.393   5.866 -0.0102  0.3738 -0.0575
 9663W        W25557  12.220   8.797   4.224  0.2610  0.3377  0.2124
 9664W        W25558   2.923  15.776   2.846  0.1050 -0.0332  0.0056
 9665W        W25559  16.412  16.921  12.078  0.1060 -0.2082  0.1840
 9666W        W25560  17.589  13.731   0.598 -0.1345 -0.0412 -0.1484
 9667W        W25561   0.567   3.907   1.446 -0.0138 -0.0919 -0.1758
 9668W        W25562  16.704   4.103  11.725 -0.2019  0.1011  0.3687
 9669W        W25563   8.633   1.540  16.269 -0.1456  0.0684 -0.0223
 9670W        W25564   5.352   9.203   1.924 -0.1267 -0.4606  0.1648
 9671W        W25565   6.861   4.326   5.931 -0.0274 -0.2778 -0.0309
 9672W        W25566   3.987  12.249  14.747 -0.2092  0.1949 -0.0730
 9673W        W25567  16.550   6.927  14.136  0.2000  0.1140 -0.0472
 9674W        W25568   2.998  13.392   4.989 -0.0439 -0.1036  0.1278
 9675W        W25569   8.210   8.657   2.567  0.3514 -0.0398  0.0270
 9676W        W25570  11.500  17.741   3.655  0.3483 -0.3499 -0.1623
 9677W        W25571   2.142   6.149  14.516 -0.3468 -0.1470 -0.0065
 9678W        W25572   1.156   4.321  12.188  0.0812 -0.1036  0.0900
 9679W        W25573   8.675  13.658   0.874  0.1553  0.2079 -0.2411
 9680W        W25574   6.570  13.746   0.525 -0.2082 -0.0747  0.0380
 9681W        W25575   6.021   6.331  13.335  0.0005 -0.0276  0.3148
 9682W        W25576   6.482   7.672   2.696  0.1067 -0.1505 -0.0464
 9683W        W25577   4.732   4.207  11.432  0.2446 -0.0187 -0.0179
 9684W        W25578   4.710  14.708   4.576  0.1623  0.0548  0.2524
 9685W        W25579   2.571   4.825   2.313  0.0617  0.0706  0.0995
 9686W        W25580   0.569  13.309   4.525  0.0606  0.2823 -0.1197
 9687W        W25581  10.770   8.548   4.686 -0.0337  0.1332  0.1389
 9688W        W25582   7.132   1.490   0.132  0.0196  0.2273  0.1407
 9689W        W25583   3.893  12.237  15.296  0.0236  0.2154 -0.1504
 9690W        W25584   5.996   8.283  15.098 -0.3316 -0.1605 -0.0118
 9691W        W25585  15.880   4.111  14.711 -0.1652  0.0781  0.1172
 9692W        W25586  12.978   5.469  11.904  0.1001  0.0416  0.0385
 9693W        W25587   3.697  14.261   2.849 -0.2682 -0.2100  0.4017
 9694W        W25588  12.587  13.787   4.874 -0.1372  0.1422  0.1728
 9695W        W25589  17.613  11.321   4.294 -0.2743  0.0187  0.0459
 9696W        W25590   5.635  14.594   4.074 -0.0468 -0.1844 -0.0973
 9697W        W25591   8.889  13.513  11.577  0.0579 -0.1423  0.0329
 9698W        W25592  10.362  13.389   0.453  0.0907 -0.1101  0.0278
 9699W        W25593  15.491   9.883  13.761 -0.1643 -0.0191  0.0715
 9700W        W25594  13.477  10.458   2.942 -0.1215 -0.0929  0.3272
 9701W        W25595  15.937  14.761   0.738  0.2977 -0.0176 -0.0115
 9702W        W25596  16.598   5.324   5.421  0.1231  0.0308 -0.3546
 9703W        W25597   0.021  15.924  15.990 -0.4108  0.1998  0.3712
 9704W        W25598   8.827   3.410  14.201  0.2743  0.1052  0.3233
 9705W        W25599  15.779  13.862  16.112 -0.1672 -0.0024  0.3971
 9706W        W25600   1.571   6.566   4.908 -0.2729  0.1368 -0.2731
 9707W        W25601   9.141  11.362  12.481  0.3432 -0.4655 -0.1521
 9708W        W25602   6.462  16.179  12.826  0.2530 -0.0375  0.0780
 9709W        W25603  14.908   5.725   0.072 -0.0929  0.1320  0.1815
 9710W        W25604   1.748   0.087   4.848  0.3315 -0.0297  0.3576
 9711W        W25605   4.035   3.287   0.850 -0.1210 -0.1755  0.0988
 9712W        W25606   7.834   8.246  11.643  0.0071 -0.1469 -0.0548
 9713W        W25607  15.873   0.133   0.738  0.0325  0.0945  0.2047
 9714W        W25608   5.206   2.685   2.764  0.0044 -0.1842 -0.0608
 9715W        W25609  10.540  13.358   1.538  0.2332  0.0237 -0.1992
 9716W        W25610  16.690  16.175  16.762 -0.1522  0.0478 -0.1251
 9717W        W25611  11.570   8.319   1.893  0.0710  0.0782 -0.2679
 9718W        W25612   7.721   5.402   2.795 -0.0487 -0.1225  0.2580
 9719W        W25613   3.699   3.433  11.517 -0.0068  0.1437 -0.1648
 9720W        W25614  17.148   4.903  14.494 -0.2844 -0.0656 -0.2278
 9721W        W25615   0.079   9.013   1.182  0.0574 -0.0590 -0.1409
 9722W        W25616   1.301   0.290  15.295  0.0850 -0.2414 -0.3449
 9723W        W25617   5.516   5.866   0.643  0.0120 -0.4281  0.0163
 9724W        W25618  15.925   4.933  15.276 -0.1152 -0.0959  0.1323
 9725W        W25619  16.788  16.885   2.606  0.1242  0.0151 -0.0190
 9726W        W25620   4.465   2.304  16.676  0.1713  0.1166 -0.1155
 9727W        W25621   1.045   0.414  15.766 -0.1088  0.2340  0.2246
 9728W        W25622  12.725  15.987   0.365 -0.0671  0.3428  0.0462
 9729W        W25623   0.649  16.247  14.101 -0.1545 -0.1137  0.0575
 9730W        W25624  13.678   5.579   5.944  0.0758 -0.2516  0.0430
 9731W        W25625  13.878   9.938   6.019 -0.2036  0.4518 -0.2362
 9732W        W25626  13.809  16.716   2.320 -0.0014  0.0988 -0.1663
 9733W        W25627  13.730   9.621  15.356 -0.0102  0.1418  0.0297
 9734W        W25628  17.588   8.910  14.870  0.0474  0.2301  0.1357
 9735W        W25629  12.087   2.888   0.634  0.0818 -0.0917 -0.2651
 9736W        W25630   4.351  14.421  15.706  0.0298  0.2084  0.4590
 9737W        W25631   8.856  11.308   6.110 -0.1746 -0.0393 -0.0002
 9738W        W25632   5.298   6.465   2.362 -0.1381  0.3798  0.1842
 9739W        W25633  14.544  10.271  15.481 -0.1925  0.0196  0.0133
 9740W        W25634  12.868  14.462  15.755  0.0574 -0.1452 -0.0348
 9741W        W25635   6.481  13.853  13.920 -0.1223  0.4263  0.0316
 9742W        W25636  10.355  16.232  14.361  0.2061  0.1159 -0.0252
 9743W        W25637   2.364   2.024   5.362 -0.0921  0.0338 -0.1706
 9744W        W25638   3.729   1.371  11.054 -0.1563 -0.0915  0.1765
 9745W        W25639  10.530  15.451  12.856  0.0628 -0.2875 -0.0312
 9746W        W25640   7.357   2.947   0.372 -0.1979  0.0679 -0.1463
 9747W        W25641  15.333  10.401  12.688 -0.0319 -0.0245 -0.0573
 9748W        W25642  14.420  11.738   1.078  0.2090 -0.0395  0.1802
 9749W        W25643  11.072   1.753  12.690  0.2196  0.3763  0.1949
 9750W        W25644  12.550  16.171  13.583 -0.1491 -0.4740 -0.3377
 9751W        W25645  16.006   9.955   0.194 -0.0080 -0.3626  0.1328
 9752W        W25646  16.631   5.374   3.725  0.4595 -0.0364  0.3536
 9753W        W25647  10.462   6.171  10.564  0.0011  0.1668  0.3402
 9754W        W25648   3.367  15.141   1.260 -0.0632  0.1239 -0.0603
 9755W        W25649   7.690   9.514  13.238 -0.2953  0.0382 -0.0512
 9756W        W25650  10.976   8.319   0.939  0.0455 -0.0273 -0.0561
 9757W        W25651   4.629  16.482   3.052  0.0298 -0.1058 -0.0823
 9758W        W25652  17.368  11.649  16.349  0.0515 -0.2262 -0.3501
 9759W        W25653   4.255   1.421  12.758 -0.2862 -0.1631 -0.0742
 9760W        W25654  17.745   4.791   4.655  0.1258 -0.6164 -0.0539
 9761W        W25655   8.291  17.577  13.129  0.2299 -0.1050 -0.0472
 9762W        W25656   0.561   5.843  14.698 -0.1251  0.0327  0.0416
 9763W        W25657   4.672  10.918   1.879  0.0977  0.0917  0.1236
 9764W        W25658   8.963   8.007   2.520 -0.0784 -0.1578 -0.2834
 9765W        W25659  16.441   1.470   2.984  0.1476 -0.1662  0.1514
 9766W        W25660  15.724   1.339   2.294 -0.1402  0.0852 -0.0218
 9767W        W25661   2.114  14.978   4.968  0.2941 -0.0215 -0.0073
 9768W        W25662  13.260   1.842  13.917 -0.1176  0.1530  0.3692
 9769W        W25663   5.283  10.758  11.886 -0.1174 -0.1527 -0.0333
 9770W        W25664   6.903   9.197   1.950 -0.0671 -0.0024  0.1395
 9771W        W25665   7.201   6.329   2.009 -0.0682 -0.1421  0.1682
 9772W        W25666   9.585  10.047  13.726 -0.1449  0.2074  0.1670
 9773W        W25667  15.930   8.997   3.916 -0.0552  0.0294  0.0454
 9774W        W25668  16.259  10.448  15.931  0.2827  0.1058  0.0116
 9775W        W25669  10.466   3.921   4.644  0.2257 -0.2828 -0.0676
 9776W        W25670   6.330   1.505   2.728 -0.2250 -0.0356  0.0632
 9777W        W25671  12.627   7.315  15.016  0.0770  0.1802 -0.0479
 9778W        W25672   6.348   3.076  12.797  0.3327  0.3751 -0.1747
 9779W        W25673   2.854   5.764  14.880 -0.0188 -0.2524  0.1049
 9780W        W25674   1.654  15.878  12.986 -0.0432  0.0861  0.0092
 9781W        W25675  10.709   2.771   3.101  0.1385  0.0451  0.0803
 9782W        W25676   5.689  13.474  14.778 -0.2132  0.1489  0.0134
 9783W        W25677  17.071  10.003  15.441 -0.1303  0.1064 -0.1580
 9784W        W25678  11.914   1.922  13.953 -0.0367  0.0881  0.0750
 9785W        W25679   6.489   6.398  13.115  0.3351 -0.0724  0.1836
 9786W        W25680   8.482   5.119  15.977 -0.0953  0.2531  0.0354
 9787W        W25681   0.011   2.639   3.112 -0.1122 -0.0171 -0.2539
 9788W        W25682  16.376   6.101   4.988  0.1613  0.0341  0.0281
 9789W        W25683  11.688   2.975  12.416  0.0970 -0.2779  0.0444
 9790W        W25684   4.430  10.664  13.230  0.0396 -0.1258 -0.2638
 9791W        W25685  14.675  10.478   5.020  0.1465 -0.1611 -0.0290
 9792W        W25686  15.835   7.062   6.209  0.2698  0.2259 -0.0636
 9793W        W25687   1.688  15.467  14.080  0.1538  0.1315  0.0619
 9794W        W25688  15.357   5.221  16.309 -0.0238 -0.1066  0.0549
 9795W        W25689   7.440  16.022   5.565 -0.3409  0.0157  0.1730
 9796W        W25690  11.356   0.281   3.986  0.1131  0.0057 -0.0813
 9797W        W25691  13.849   6.074   3.623 -0.4608  0.4567  0.0427
 9798W        W25692   3.560   3.611   3.612 -0.2054  0.0826  0.2796
 9799W        W25693  17.675   0.824  14.078 -0.0941 -0.0570 -0.2364
 9800W        W25694  10.472   7.201   0.420  0.0653 -0.3089  0.1242
 9801W        W25695  11.441   7.764  16.744 -0.2793  0.2412  0.2498
 9802W        W25696   7.541   6.070   6.251 -0.1858  0.0050  0.2621
 9803W        W25697  13.478   8.062   5.475  0.0477  0.0768  0.2120
 9804W        W25698   0.869  17.260  13.966  0.1665 -0.1752  0.2155
 9805W        W25699   0.104  10.398  13.257 -0.1138  0.1147 -0.2615
 9806W        W25700  17.481   0.286   0.499 -0.2856 -0.2919  0.0578
 9807W        W25701  17.043   2.376   3.759  0.3153  0.0766 -0.2318
 9808W        W25702   8.522   2.361  15.974 -0.0326 -0.0044 -0.1825
 9809W        W25703  17.483  12.178  13.093 -0.1484  0.1153  0.2137
 9810W        W25704  17.097  16.512   1.502  0.0502 -0.0763 -0.0797
 9811W        W25705  13.450   8.615  14.608  0.0647  0.2775  0.0179
 9812W        W25706   9.133   7.069   1.877  0.1010 -0.4007 -0.0484
 9813W        W25707  11.127  17.051  12.231  0.0197 -0.1143  0.1515
 9814W        W25708  11.498   6.259   5.465  0.0043  0.1136 -0.0720
 9815W        W25709   6.121   1.287  12.348 -0.1471  0.0715 -0.1931
 9816W        W25710   2.165   5.925   1.459  0.0014 -0.1085 -0.1035
 9817W        W25711  17.217  10.316  13.602  0.0692  0.3035  0.0056
 9818W        W25712   4.932   5.285  14.881  0.1854  0.0098  0.1457
 9819W        W25713   5.329  13.558   2.098  0.0373 -0.1526 -0.3907
 9820W        W25714  10.438  15.813   5.978  0.1957 -0.2760  0.2244
 9821W        W25715   6.576   5.418   4.781 -0.2144 -0.0751 -0.0621
 9822W        W25716  13.636   4.598   5.875  0.3559 -0.0679  0.1055
 9823W        W25717   5.668   1.213   5.582  0.0830  0.3243 -0.2501
 9824W        W25718  14.099  13.966  16.149 -0.0061 -0.2230 -0.0807
 9825W        W25719  12.822   1.895   9.924  0.3691  0.0434 -0.0293
 9826W        W25720   6.695  16.224  11.843 -0.0083 -0.0042  0.0718
 9827W        W25721  11.811   5.682   2.733  0.1288 -0.4336 -0.0113
 9828W        W25722   5.680  17.843  14.957  0.0703 -0.3343  0.0163
 9829W        W25723   4.405  16.564   5.654  0.0456  0.1135  0.0088
 9830W        W25724  12.398   4.190  16.153 -0.0798  0.1326 -0.1117
 9831W        W25725   7.653   9.864   2.279  0.2339  0.2964 -0.0910
 9832W        W25726  13.017  10.024   0.738 -0.2490 -0.1623  0.1076
 9833W        W25727   4.489   4.140   0.942 -0.1409  0.3399 -0.0503
 9834W        W25728  12.256   6.987  11.912 -0.1661 -0.0252  0.0730
 9835W        W25729  13.412   2.455  11.484  0.2366  0.1572  0.1721
 9836W        W25730   0.290   9.270  16.871 -0.0710 -0.0068 -0.0984
 9837W        W25731   0.956  15.459  10.824  0.0675  0.1098  0.0225
 9838W        W25732  14.330   3.777   1.484 -0.1048 -0.1697 -0.2159
 9839W        W25733  17.115  16.444  12.054 -0.1468  0.2360 -0.1668
 9840W        W25734   9.111   4.288  14.605 -0.0040  0.0000  0.2285
 9841W        W25735   3.898  14.838  15.325 -0.0335  0.0568  0.0117
 9842W        W25736   5.812  16.327   2.525 -0.0323  0.0080  0.1622
 9843W        W25737   4.457   8.310   1.845 -0.0049 -0.1169 -0.2781
 9844W        W25738   2.479  13.702   0.074 -0.3600  0.1470 -0.0730
 9845W        W25739  13.202  10.573   3.355 -0.0725 -0.0225  0.2716
 9846W        W25740  14.570   7.070   2.542  0.3091 -0.1118  0.0993
 9847W        W25741  12.809   0.136   2.562 -0.2325 -0.0034 -0.1709
 9848W        W25742   7.524  16.975   1.726 -0.0755  0.0860 -0.1018
 9849W        W25743   1.382  13.540  12.362 -0.2518  0.0124 -0.0517
 9850W        W25744  11.204   7.522   1.358  0.1576 -0.0055 -0.1021
 9851W        W25745   0.218   3.519   1.388  0.1983 -0.2821  0.1664
 9852W        W25746   1.478  16.015  10.447  0.0926  0.1636 -0.1691
 9853W        W25747   3.809   4.075  12.573  0.1381  0.1349  0.1518
 9854W        W25748  11.875  11.826  15.492  0.0345  0.1970 -0.0267
 9855W        W25749   4.311   6.897   0.799  0.2256  0.0956  0.3447
 9856W        W25750  12.309  12.198  15.563  0.1354  0.0004  0.2878
 9857W        W25751   3.861  16.825   4.645 -0.4824 -0.2444 -0.1540
 9858W        W25752  15.665   3.896  15.120  0.0103  0.2459  0.2022
 9859W        W25753  11.789  12.522   5.669  0.1228 -0.0166 -0.3766
 9860W        W25754  14.565   4.905  13.541  0.0103 -0.5870  0.5117
 9861W        W25755  14.646  14.218   3.042  0.0033  0.1405  0.0661
 9862W        W25756   8.518   3.194   1.614  0.2131  0.0115 -0.3274
 9863W        W25757  15.885   4.706   3.560 -0.2078  0.2050  0.0798
 9864W        W25758   0.511   7.121  15.854 -0.0289  0.0467  0.0831
 9865W        W25759  17.617   9.126  16.763  0.1082 -0.1601 -0.2639
 9866W        W25760   6.983   4.351   1.209 -0.2062  0.0338  0.0756
 9867W        W25761   7.758   3.201  15.037  0.1447 -0.1954  0.1721
 9868W        W25762  14.950  11.259  12.528 -0.0024  0.4626 -0.2695
 9869W        W25763   3.771   9.574  14.603  0.0631 -0.1948  0.2935
 9870W        W25764   6.586   4.784   1.839  0.0140 -0.2441  0.0501
 9871W        W25765   8.321   2.813   1.287 -0.2237  0.2400 -0.2136
 9872W        W25766   1.954  13.447   6.327 -0.1204  0.3257 -0.1072
 9873W        W25767  14.994   4.486   5.203  0.0430 -0.1319  0.0403
 9874W        W25768  11.784   2.260   6.129 -0.2594 -0.0232  0.1033
 9875W        W25769  17.123   1.230  14.965 -0.0224 -0.1213  0.0518
 9876W        W25770  10.636   3.558  16.109  0.0688  0.0209  0.2419
 9877W        W25771  11.422   7.588  12.855  0.0513  0.1410  0.0656
 9878W        W25772  17.107  10.136  14.325  0.0182 -0.2494 -0.1609
 9879W        W25773   6.691  14.949  13.913 -0.1249 -0.2042  0.0687
 9880W        W25774  13.648   7.990   4.895 -0.1593 -0.0058 -0.1022
 9881W        W25775   1.347   4.147   0.338  0.1772  0.1641  0.0550
 9882W        W25776  13.719   5.712   1.096 -0.2842 -0.3450 -0.1379
 9883W        W25777  15.099   2.779   0.803 -0.1493 -0.0225  0.2821
 9884W        W25778   6.240   1.653   5.508 -0.0866 -0.1212 -0.2929
 9885W        W25779  14.802   1.006  11.823 -0.2056 -0.1282 -0.1441
 9886W        W25780  16.748  16.491   3.795  0.1642  0.2941  0.2950
 9887W        W25781   1.850   0.447   2.273  0.0915  0.0695 -0.0169
 9888W        W25782   6.547   4.272   1.955  0.3029  0.1404  0.2087
 9889W        W25783   7.838   4.770   1.139 -0.1570 -0.2201 -0.1994
 9890W        W25784  13.334   5.713  13.585 -0.1191 -0.0204 -0.0731
 9891W        W25785  15.352   6.988   3.224 -0.1834 -0.2281  0.0206
 9892W        W25786   8.391   9.458   1.024  0.1825 -0.1762 -0.3654
 9893W        W25787  14.599  11.723   3.396 -0.0392  0.0200  0.2621
 9894W        W25788  15.934  12.535   0.223 -0.0176  0.1599  0.3003
 9895W        W25789   6.847  12.070  15.195  0.1928  0.4413 -0.0850
 9896W        W25790   5.738   6.332   2.115 -0.2036  0.2179 -0.0781
 9897W        W25791  17.398   5.869   4.558 -0.1089  0.3748  0.4173
 9898W        W25792  14.329   9.361   6.035 -0.0839 -0.1193 -0.3107
 9899W        W25793  14.131   7.842  14.760 -0.3852 -0.2120 -0.1999
 9900W        W25794   6.494  17.138   4.983  0.0199  0.1090  0.2113
 9901W        W25795   5.776   1.616  12.527  0.0403  0.0442  0.2077
 9902W        W25796   1.600  14.049   1.700 -0.1384  0.1738 -0.2400
 9903W        W25797   7.365  10.946   3.326  0.0753 -0.0362  0.1570
 9904W        W25798   3.859   5.784  13.985 -0.0988 -0.1680  0.0432
 9905W        W25799   0.055   3.318  12.793 -0.2152  0.1419  0.1877
 9906W        W25800   5.822   5.427   1.785  0.0993 -0.2038 -0.2911
 9907W        W25801  10.252  13.908  14.101 -0.2763 -0.3159 -0.1090
 9908W        W25802   2.687   3.178   1.393  0.0798 -0.0225 -0.1871
 9909W        W25803   6.354  15.550   3.520 -0.4678 -0.1389 -0.1599
 9910W        W25804   0.961  14.874  13.321  0.1776 -0.4408 -0.3461
 9911W        W25805  16.488   5.752   4.505 -0.1154 -0.1548 -0.1607
 9912W        W25806  14.975   7.817  15.039  0.1723 -0.0306 -0.1713
 9913W        W25807   9.331  10.099   1.467 -0.1226 -0.2835  0.0703
 9914W        W25808   1.616   1.383  11.734 -0.1700  0.3830 -0.0483
 9915W        W25809   3.998   1.803   0.176  0.0631  0.1973  0.0607
 9916W        W25810  13.477   8.979   2.916 -0.0858  0.0422 -0.3697
 9917W        W25811   6.537  14.166   4.175  0.0659 -0.0468  0.0816
 9918W        W25812   7.880   9.049  13.269  0.0940  0.0786 -0.0597
 9919W        W25813   1.598   5.501   3.088 -0.1112  0.2191  0.2499
 9920W        W25814   5.984   6.030  12.837  0.1571 -0.2361  0.0789
 9921W        W25815  13.487  13.487   4.315  0.0277 -0.0705  0.0773
 9922W        W25816   7.812   2.173  12.891 -0.2737 -0.0765  0.0588
 9923W        W25817  10.606   5.095   5.472 -0.0263  0.0125 -0.1934
 9924W        W25818   8.536   2.916  13.896  0.1965  0.0241  0.0959
 9925W        W25819  16.438   9.014   2.632  0.1550 -0.3571  0.0751
 9926W        W25820   7.899   5.661  11.178  0.4045 -0.1266 -0.0376
 9927W        W25821   6.837  14.477  11.977  0.0345 -0.0771  0.0506
 9928W        W25822   8.334   3.493   2.508 -0.1246 -0.1274 -0.0116
 9929W        W25823   1.005   0.288  14.090  0.0961  0.0342 -0.2692
 9930W        W25824   4.184  17.192   4.878  0.1040 -0.0936 -0.1680
 9931W        W25825  15.960   2.553  11.666  0.1671  0.0839  0.0396
 9932W        W25826  15.658  16.976   4.123  0.0669  0.2165  0.1981
 9933W        W25827  11.834  13.646   2.395 -0.1586 -0.2698 -0.1635
 9934W        W25828   4.446  16.792   0.352 -0.1095 -0.0115 -0.0799
 9935W        W25829   2.844  12.395  16.136  0.0885 -0.0615  0.0450
 9936W        W25830  14.204   9.730   1.039  0.0683 -0.1058 -0.0358
 9937W        W25831  13.979  16.596   0.452  0.1028 -0.3146 -0.3536
 9938W        W25832  15.342  13.087  12.690  0.2057 -0.2005  0.2312
 9939W        W25833  16.840  11.598  12.159  0.0844 -0.0721 -0.1972
 9940W        W25834   5.744  12.268  14.325 -0.0446  0.0865  0.0199
 9941W        W25835   4.707  10.897   0.175 -0.0047 -0.4744 -0.0700
 9942W        W25836   3.449  11.372  12.442 -0.1243  0.1800 -0.0524
 9943W        W25837   4.477  13.011   1.733  0.0397  0.0731 -0.1052
 9944W        W25838  17.652  14.019  14.196 -0.0039  0.0039 -0.0065
 9945W        W25839   9.245   9.622   4.901  0.2420 -0.1763 -0.4199
 9946W        W25840   5.952  16.873   4.640  0.1118 -0.3120  0.2921
 9947W        W25841   1.732   2.646   1.860  0.0048  0.1687  0.0428
 9948W        W25842   9.670   9.757  11.827  0.4682 -0.0946 -0.0437
 9949W        W25843   6.272   6.220  14.868 -0.0778  0.0415 -0.1515
 9950W        W25844   6.771  10.392  15.758 -0.1099  0.0438 -0.2822
 9951W        W25845  14.992   2.591   0.307  0.0754  0.2403 -0.1881
 9952W        W25846   8.874   7.725   6.358  0.0055 -0.4977  0.3434
 9953W        W25847  13.595   5.552  16.263 -0.1153  0.1221  0.3819
 9954W        W25848   9.770  13.926  15.837  0.0209  0.0040  0.0289
 9955W        W25849   5.149  17.308   5.747 -0.0761 -0.1297  0.1589
 9956W        W25850  13.064  12.074   4.816  0.0289  0.2178  0.2414
 9957W        W25851   7.185  10.259   0.589 -0.2474  0.0406  0.1708
 9958W        W25852   0.680   1.151  14.304  0.1009  0.0168 -0.4138
 9959W        W25853   2.804  12.016   0.963  0.0267 -0.0983  0.1630
 9960W        W25854   6.978   0.036   2.722 -0.2330 -0.2278 -0.0890
 9961W        W25855   8.316   0.796  14.641 -0.0379  0.4763  0.0116
 9962W        W25856   1.205   5.961  13.725 -0.0848  0.0166  0.0922
 9963W        W25857  14.935  15.602   3.099  0.1914  0.2465  0.0726
 9964W        W25858  11.722  10.101   1.990  0.0255 -0.3094  0.5131
 9965W        W25859  12.288   1.238  16.657 -0.0896 -0.3548 -0.2742
 9966W        W25860   4.212   6.234   4.880 -0.1082 -0.0175 -0.2230
 9967W        W25861  16.083   0.606  16.110  0.0626 -0.1357 -0.0505
 9968W        W25862   4.152   0.986  14.230  0.1626  0.1619 -0.0189
 9969W        W25863  11.190   2.638   0.392 -0.1142  0.0642 -0.0604
 9970W        W25864  12.878  12.217  14.465 -0.0099 -0.3411 -0.3033
 9971W        W25865  14.616   4.318  13.448  0.2863  0.0466 -0.0692
 9972W        W25866  14.861   7.453   1.892 -0.0011  0.1452 -0.1780
 9973W        W25867   6.296   5.321   3.838 -0.2977  0.2585  0.0630
 9974W        W25868  13.228   5.400  10.753  0.0746  0.0199  0.2112
 9975W        W25869  14.528   4.575   4.423  0.0833  0.1907  0.2584
 9976W        W25870   2.300  12.249   1.999  0.0605 -0.1075  0.3929
 9977W        W25871  10.632   3.440   4.537 -0.1412  0.1006 -0.0333
 9978W        W25872   1.532  16.031   4.573 -0.2357  0.2069  0.1672
 9979W        W25873  13.885   3.954  14.057 -0.0564  0.1098 -0.1837
 9980W        W25874  13.699   7.460  12.355 -0.1758 -0.0638  0.0015
 9981W        W25875   2.710   2.534   2.112 -0.0016  0.0410  0.0706
 9982W        W25876   1.707  13.937  11.870  0.0896  0.0238 -0.2063
 9983W        W25877  14.220  12.069   3.532 -0.1004 -0.0705  0.1030
 9984W        W25878   7.193  14.624   1.341 -0.3612 -0.1026 -0.2365
 9985W        W25879   4.290   7.945   2.723  0.0929 -0.1391  0.4037
 9986W        W25880   4.778  11.487  14.557 -0.0467 -0.0119  0.0126
 9987W        W25881   4.072   3.549  13.878 -0.2213 -0.0900 -0.1956
 9988W        W25882   7.783  11.916  14.247  0.1528 -0.1062  0.1864
 9989W        W25883   6.602   5.931   4.610 -0.0493  0.0397 -0.0584
 9990W        W25884   9.675   8.368   0.435 -0.0332  0.0208 -0.0786
 9991W        W25885   8.545  14.376  12.305  0.1492 -0.1870  0.1497
 9992W        W25886   3.268  15.370   0.106  0.0359  0.1037  0.0912
 9993W        W25887  17.555  15.598  14.622  0.0830  0.0167  0.3942
 9994W        W25888  12.394  10.456  13.021 -0.1115 -0.1157 -0.3971
 9995W        W25889   1.116  12.362   0.711 -0.0743  0.1951  0.2017
 9996W        W25890  16.556  12.326  14.239  0.1029  0.0156 -0.1861
 9997W        W25891  11.174  13.444   0.138 -0.1234 -0.0055 -0.0702
 9998W        W25892   2.197  10.147   2.913 -0.0771  0.0299 -0.1536
 9999W        W25893   5.232   6.363   1.367 -0.0059 -0.1016  0.3129
10000W        W25894   9.818   4.278   3.757 -0.2220 -0.0074  0.3187
10001W        W25895   5.250   3.077   1.803  0.1609 -0.1673 -0.0134
10002W        W25896  10.653  13.392   3.895  0.0868 -0.2473 -0.2039
10003W        W25897  16.895   7.307   5.502  0.2438 -0.2729 -0.0784
10004W        W25898  11.519   0.585  11.516 -0.0299  0.0390  0.0056
10005W        W25899   9.004  17.219   3.183  0.1107  0.3600  0.2537
10006W        W25900   7.606  10.480   1.249 -0.1163  0.1448 -0.1895
10007W        W25901   0.547   6.184  12.915 -0.0699  0.0546 -0.0360
10008W        W25902   4.940   3.028   2.233  0.3905  0.0210  0.1285
10009W        W25903   8.965   2.891  16.879 -0.1882 -0.1521  0.5322
10010W        W25904   4.903   8.389  12.395 -0.0548  0.0146  0.2058
10011W        W25905   1.947   5.973   0.033 -0.0706 -0.1760  0.0086
10012W        W25906  17.455   4.289  14.690 -0.0344 -0.1029  0.0348
10013W        W25907  11.566  16.833  15.603  0.1032 -0.3025  0.1571
10014W        W25908  17.668   1.474   0.152  0.0989 -0.0628  0.0145
10015W        W25909   7.327   8.463  12.932 -0.1148 -0.0124  0.1991
10016W        W25910   2.685   3.000  15.881  0.0886  0.2368  0.2336
10017W        W25911  17.395  10.790  16.839  0.3065 -0.1335 -0.2180
10018W        W25912   3.448  16.662  12.714 -0.1364 -0.1718 -0.0261
10019W        W25913   1.611  14.882   0.078 -0.2779 -0.1454  0.0169
10020W        W25914  15.453   8.867   3.143  0.1618 -0.1114 -0.0818
10021W        W25915   3.783   3.485  15.785  0.1041 -0.2170  0.2300
10022W        W25916  16.726   2.479   4.487  0.1313 -0.0989 -0.2519
10023W        W25917  17.836   8.345  15.676 -0.2222  0.2924 -0.3083
10024W        W25918   1.364   9.119  13.431  0.1561  0.2309 -0.3492
10025W        W25919   3.078  12.113   4.330 -0.0285  0.0709  0.0346
10026W        W25920   1.422  16.576  13.570  0.0626  0.0575  0.2586
10027W        W25921  14.245  15.447  13.431  0.0449 -0.1809  0.0039
10028W        W25922   6.595  11.910   4.817 -0.1435  0.4153  0.0387
10029W        W25923   5.616   2.733   3.043 -0.0854 -0.0414  0.2454
10030W        W25924   9.817  17.339   0.806  0.1131 -0.0237 -0.1659
10031W        W25925   0.786   4.122   0.414 -0.2781 -0.3852 -0.0568
10032W        W25926   2.363   9.937   5.751  0.3483 -0.1351 -0.2609
10033W        W25927  12.412  15.907  15.335 -0.1263 -0.0586  0.0464
10034W        W25928   6.222   0.525   1.625  0.0396  0.3817  0.1683
10035W        W25929   4.253   9.128  16.212 -0.3063 -0.1942  0.2884
10036W        W25930   7.782  15.959  16.417  0.1365  0.0708 -0.0919
10037W        W25931   9.973  10.354  12.308  0.0797 -0.2743  0.0383
10038W        W25932  13.167   6.771   4.831  0.1724 -0.0944 -0.0739
10039W        W25933  10.423   8.249   4.809 -0.0278  0.0444 -0.1995
10040W        W25934   5.414  13.306   5.158  0.0166  0.4525  0.0214
10041W        W25935   2.753  17.310   3.974 -0.0344 -0.1335  0.1056
10042W        W25936  16.057   2.117   0.166  0.0352 -0.1030  0.0940
10043W        W25937   2.237  17.075   3.631 -0.1750  0.1376  0.2823
10044W        W25938   5.874   8.335  15.631 -0.0401  0.3657 -0.1305
10045W        W25939  14.071  17.181  13.896  0.0513 -0.2829  0.0355
10046W        W25940   6.175  12.760  13.612 -0.0754 -0.1522  0.0010
10047W        W25941   7.081   9.227  12.475 -0.0973 -0.4563  0.1407
10048W        W25942   8.678   8.949   4.363 -0.2111 -0.2919 -0.0991
10049W        W25943   4.890  10.083   1.601  0.1890  0.1557  0.1924
10050W        W25944   3.423   1.284  12.544 -0.5735  0.3544  0.0603
10051W        W25945   8.119   7.979  14.057 -0.0551 -0.0278  0.0028
10052W        W25946  16.359   1.396  11.775 -0.2168 -0.2062 -0.2479
10053W        W25947   0.992  17.309  15.014  0.0932  0.1386 -0.0765
10054W        W25948   0.731  13.161   5.094  0.1471 -0.0635  0.2509
10055W        W25949  15.818  16.147   5.410  0.2392 -0.0627 -0.3666
10056W        W25950   9.825   8.267   5.198 -0.0055 -0.2183 -0.1954
10057W        W25951  14.394   2.639  14.915  0.0120  0.2337 -0.0207
10058W        W25952   0.630   6.796  13.688 -0.1875  0.0771 -0.0709
10059W        W25953  12.795  12.935   3.787 -0.1406  0.2066  0.2660
10060W        W25954   2.124   4.829   5.538  0.2662  0.0967  0.0633
10061W        W25955  16.970  10.176  16.310  0.0976  0.0136  0.0238
10062W        W25956  10.717   7.115  11.769 -0.0640  0.0137  0.0248
10063W        W25957  17.134  12.985   4.020  0.0479 -0.1086 -0.1239
10064W        W25958   6.190   1.014   3.818 -0.0211  0.2379  0.1656
10065W        W25959  16.793  16.641  16.620  0.1734 -0.1633 -0.1440
10066W        W25960   7.512   8.157   2.646 -0.0269  0.0111  0.3292
10067W        W25961  13.007  16.681   3.969 -0.2248  0.1723  0.0565
10068W        W25962   8.625  10.721  15.277 -0.4706  0.2580  0.0046
10069W        W25963  12.401  10.767   5.693 -0.0697 -0.3593  0.0108
10070W        W25964   2.818   5.271   4.778 -0.0403 -0.0103 -0.0769
10071W        W25965   6.930  17.461   3.162 -0.1080  0.2809 -0.0503
10072W        W25966   7.386   1.545   2.481  0.3448  0.2520 -0.2705
10073W        W25967  15.468   1.984   2.923 -0.0354  0.1858  0.0960
10074W        W25968  12.859   9.813  13.572  0.1216  0.1829 -0.0463
10075W        W25969  10.072  14.681   4.341  0.1373 -0.0723 -0.0538
10076W        W25970   7.039   2.498  14.902 -0.1984  0.2584 -0.1792
10077W        W25971   9.563  17.707  13.850  0.2904  0.1016  0.1750
10078W        W25972   0.794  16.910   2.106 -0.2150 -0.0007 -0.1989
10079W        W25973  14.702   6.082   2.068  0.0944  0.0963 -0.0001
10080W        W25974  16.160  12.891   4.572  0.1835  0.0979  0.1324
10081W        W25975  14.554   5.297   0.265  0.1599  0.1661 -0.0496
10082W        W25976   0.668  11.641  13.138  0.0965  0.1277 -0.0586
10083W        W25977   6.448   6.755   4.117 -0.2138 -0.2285  0.1184
10084W        W25978   1.540   3.669   4.142 -0.0456 -0.0104 -0.1449
10085W        W25979  12.051  11.513  16.055  0.0278  0.2822 -0.2503
10086W        W25980  10.375   6.534   1.907 -0.2043  0.0197 -0.0701
10087W        W25981   9.148   9.719  14.021 -0.0152  0.1268  0.1085
10088W        W25982   7.429   0.481   1.708 -0.0159 -0.1092  0.0357
10089W        W25983   2.784   9.084  13.744  0.1001  0.1488  0.0688
10090W        W25984   6.520   0.316   1.292 -0.1729 -0.0381 -0.2324
10091W        W25985  10.762   6.312  13.654  0.2918  0.4103 -0.0293
10092W        W25986   6.277   8.099   5.866  0.0572 -0.0349 -0.1565
10093W        W25987  12.417   5.321  16.094 -0.0077 -0.0753  0.1633
10094W        W25988   5.674   2.877   4.020 -0.1025  0.0796 -0.0332
10095W        W25989   1.615  17.479   6.233 -0.4117 -0.0910 -0.0228
10096W        W25990  14.636   1.848  14.595 -0.0602  0.1015 -0.3478
10097W        W25991  17.270   9.829   2.202 -0.0682 -0.0996 -0.2812
10098W        W25992  16.809   6.189   4.715 -0.2012 -0.2144  0.0733
10099W        W25993  13.051   2.772  13.764  0.0593  0.1211  0.0110
10100W        W25994  15.027  13.434  15.952 -0.3558 -0.3359 -0.2242
10101W        W25995   0.007   4.372   1.279  0.1994  0.0862  0.0226
10102W        W25996  15.655   4.933  15.939  0.0279  0.1572 -0.0837
10103W        W25997   1.844  13.672  15.693 -0.3102  0.3189 -0.2916
10104W        W25998  17.662  12.396  12.412  0.1956 -0.0452  0.1594
10105W        W25999   6.095  15.883   2.173 -0.0256 -0.1457  0.0402
10106W        W26000   4.991   1.050  13.741 -0.0052  0.2946  0.1462
10107W        W26001   5.127  10.215   1.201  0.1495  0.3826  0.1870
10108W        W26002   0.510  15.077  12.491  0.1281 -0.0806 -0.1146
10109W        W26003   3.513  17.401   5.435  0.0567 -0.0141  0.0253
10110W        W26004  12.837  10.968   1.321 -0.0502 -0.1143 -0.0463
10111W        W26005  14.312   6.238   2.469 -0.2844  0.0144  0.0038
10112W        W26006  11.117   0.797   1.190  0.2744  0.1574  0.1194
10113W        W26007   8.950   8.380  12.881  0.1327 -0.0585  0.2634
10114W        W26008   9.376  16.237  15.573  0.1217 -0.1865 -0.1330
10115W        W26009   0.252  10.765  14.776 -0.0084  0.2633 -0.0234
10116W        W26010  14.363  15.187   3.817  0.4338  0.0694  0.0816
10117W        W26011   5.526  16.391   3.394 -0.1127 -0.1338 -0.0159
10118W        W26012  10.699   7.722   0.071  0.0274 -0.1149 -0.2151
10119W        W26013   1.792  14.115   1.169  0.0069 -0.1308  0.1222
10120W        W26014   3.987   6.986   5.465  0.1189 -0.1645  0.0807
10121W        W26015  15.412   7.037  14.724  0.2918 -0.0652  0.0861
10122W        W26016   7.365   5.220   5.623 -0.0452  0.0223 -0.3067
10123W        W26017  14.624  17.470  12.907 -0.0653  0.1982 -0.2206
10124W        W26018   1.817   3.921  15.451 -0.1084  0.3075  0.0602
10125W        W26019   2.664   0.218  12.834  0.1805  0.0244  0.1206
10126W        W26020  12.979   7.538  16.365  0.2514 -0.3244 -0.0019
10127W        W26021   2.201   8.673  12.210  0.3233 -0.0383  0.1512
10128W        W26022   8.377   2.389  12.252  0.0524  0.1431 -0.2313
10129W        W26023  10.431   7.873  16.524 -0.0925  0.2702  0.2921
10130W        W26024   6.121  14.805  13.922  0.3809  0.1210  0.0996
10131W        W26025  10.200  13.075  13.772  0.3263 -0.0851 -0.0502
10132W        W26026  11.437   7.219  11.680 -0.0308  0.1230 -0.2766
10133W        W26027  16.256  15.932   3.825 -0.1419  0.1029  0.1326
10134W        W26028  15.761  17.120  12.901 -0.0480  0.1632 -0.0312
10135W        W26029  13.778   5.526   4.093  0.6453 -0.0887  0.0190
10136W        W26030   7.687  17.279  14.764 -0.2575 -0.4003  0.0806
10137W        W26031  13.761   9.917   3.034 -0.1367 -0.0991  0.0926
10138W        W26032  11.305   5.610   4.895 -0.1723  0.2721  0.0331
10139W        W26033  17.093   4.339  15.027  0.0599  0.2048  0.0818
10140W        W26034  13.674   1.508   1.710 -0.1802  0.1844 -0.2135
10141W        W26035   0.021  15.012   2.143 -0.0747 -0.0940  0.0669
10142W        W26036   0.146   0.892   1.893  0.2215 -0.1158 -0.2491
10143W        W26037  13.342   7.665   2.728 -0.1003 -0.2186  0.1062
10144W        W26038   6.040   1.460  13.197  0.4317 -0.2168 -0.1472
10145W        W26039  12.029   9.327   5.952  0.0721  0.2304 -0.0768
10146W        W26040  16.626   2.843   0.036 -0.0442  0.1745 -0.0167
10147W        W26041   3.337   2.295  11.906  0.0057  0.2632  0.0849
10148W        W26042   9.108  15.946  15.121 -0.2135 -0.3659  0.0597
10149W        W26043  15.514  12.947   0.345 -0.0845 -0.1378  0.2728
10150W        W26044   6.877   7.037   3.245 -0.3384  0.0204  0.2817
10151W        W26045  17.436  10.380   2.211 -0.0360  0.2137  0.1959
10152W        W26046  16.307  11.033   0.160 -0.0646 -0.1634 -0.2195
10153W        W26047   2.744  11.209  14.977 -0.0222  0.0993  0.2677
10154W        W26048  14.075  15.293  16.045  0.0373  0.0450 -0.0182
10155W        W26049   7.971   9.770   0.873  0.1872  0.0723  0.1343
10156W        W26050   8.366   7.198  14.972  0.1478 -0.2451  0.0089
10157W        W26051   6.305   1.282  16.143  0.2165  0.0556 -0.1656
10158W        W26052   4.217  11.536  12.173 -0.1993  0.1127 -0.1079
10159W        W26053  16.214  16.493   5.630  0.0930  0.3598 -0.1925
10160W        W26054   0.290  17.067  11.408 -0.0639 -0.1240  0.1117
10161W        W26055  11.475  16.876  11.924  0.0337 -0.0684 -0.1862
10162W        W26056   7.913   0.642   1.656 -0.0097 -0.1642  0.1673
10163W        W26057  14.920   2.505  13.954  0.0258 -0.0457  0.2617
10164W        W26058  11.241   3.601  15.892  0.2752 -0.1304 -0.0639
10165W        W26059  14.105  15.928   4.454 -0.2032  0.1331 -0.0343
10166W        W26060   9.043  13.905   6.049  0.3477 -0.1584  0.0900
10167W        W26061  15.124  16.698  13.470 -0.2765  0.1159 -0.3504
10168W        W26062  12.208   1.137   1.272  0.0305 -0.0334  0.1480
10169W        W26063   8.560   4.258  11.684  0.1360 -0.0570  0.0781
10170W        W26064   9.955   7.995  15.731  0.0393 -0.1992 -0.1588
10171W        W26065   3.267  14.706  16.186  0.2149  0.4184 -0.2867
10172W        W26066   3.037  15.290  15.223  0.0203 -0.1344  0.2938
10173W        W26067  11.798  12.046  14.502 -0.2767 -0.3728 -0.0010
10174W        W26068  12.559   0.337  12.520 -0.0806 -0.3564 -0.1911
10175W        W26069   3.812  11.345   3.625 -0.3696  0.1450  0.2081
10176W        W26070  16.168   2.422   0.620  0.0639 -0.0889 -0.1860
10177W        W26071   4.802  15.252   4.800 -0.0718  0.1126 -0.0543
10178W        W26072   2.999   7.694  12.264 -0.2616 -0.2491 -0.2779
10179W        W26073  16.473  17.555   2.240  0.0150 -0.2563  0.2476
10180W        W26074   7.179  17.640  14.369  0.0144 -0.0198  0.1684
10181W        W26075  16.960  14.352   3.549  0.1694  0.1072  0.1892
10182W        W26076   5.584  16.579  13.781 -0.0723 -0.4279 -0.0501
10183W        W26077   4.003  15.667  12.327 -0.1922 -0.2667 -0.0078
10184W        W26078   7.538   9.706  15.637 -0.0380 -0.1322 -0.0184
10185W        W26079  10.864  16.683  13.071  0.1002  0.1366  0.0850
10186W        W26080   8.859   1.966  16.683  0.0197 -0.1809 -0.0579
10187W        W26081  17.337  15.713  13.246 -0.0816 -0.1932 -0.0912
10188W        W26082   7.923  11.159  14.800 -0.1934 -0.1152 -0.0183
10189W        W26083   6.039   2.672  14.651  0.2443 -0.0659 -0.4335
10190W        W26084  16.604  17.366   0.279 -0.2204  0.0585 -0.2297
10191W        W26085  13.384   5.410  14.073  0.2207 -0.0081  0.2251
10192W        W26086   1.979   2.018  16.447 -0.0907 -0.2854 -0.0910
10193W        W26087   4.917  12.556   5.247 -0.0690 -0.0483 -0.1889
10194W        W26088  11.623   1.478  16.777  0.0198 -0.1434 -0.1916
10195W        W26089   4.019   6.661   0.322 -0.4365 -0.2656 -0.0277
10196W        W26090  13.113   6.950   3.770  0.0518 -0.2289  0.1000
10197W        W26091   0.156   7.336  15.100  0.4571  0.2324  0.1642
10198W        W26092   5.298  13.211   4.201  0.0721 -0.0422  0.0719
10199W        W26093  17.538   8.045   0.502  0.1224 -0.0383 -0.1199
10200W        W26094   8.348  11.041  14.548  0.0139 -0.1925 -0.0906
10201W        W26095  14.806   5.322  16.755  0.2820 -0.1749  0.0286
10202W        W26096  13.376  13.924  13.559  0.2430  0.1804 -0.0899
10203W        W26097  15.659   1.568  16.570  0.0836 -0.0644 -0.0217
10204W        W26098   4.949   3.298   1.342 -0.0123  0.3022 -0.1750
10205W        W26099   6.802   6.539   2.393 -0.0625 -0.0993  0.1640
10206W        W26100  11.636  10.378   5.924  0.2547  0.1304  0.1366
10207W        W26101   5.667  16.661  13.278  0.0457 -0.0697  0.1579
10208W        W26102   9.273   2.121  12.603 -0.0643  0.1414 -0.1058
10209W        W26103  11.466  16.893   2.845 -0.3035  0.2226 -0.1695
10210W        W26104   9.275   5.745   6.567  0.3098  0.1188 -0.0717
10211W        W26105   5.833  10.858  14.357 -0.1640  0.0262 -0.1645
10212W        W26106   2.013   8.147  12.166  0.1289 -0.1447  0.1855
10213W        W26107  14.647  12.074   5.888  0.0911  0.1408 -0.1634
10214W        W26108  14.243  13.403  11.772 -0.0133  0.3956 -0.2485
10215W        W26109   3.673  13.265  12.887 -0.1814  0.3620  0.1136
10216W        W26110   1.463  11.891  15.895 -0.1029  0.1351  0.2422
10217W        W26111  11.186  17.569   3.992  0.2725  0.4753  0.1502
10218W        W26112  16.273   6.699   0.709  0.2338 -0.0127  0.0635
10219W        W26113  13.367   4.829  13.122  0.0018  0.0102  0.2080
10220W        W26114  13.172   1.275  11.555 -0.1538 -0.3015  0.2703
10221W        W26115  15.382   9.716   5.413 -0.2035  0.0499 -0.1223
10222W        W26116   7.005  13.462  15.288  0.0959  0.2293  0.0387
10223W        W26117  15.304   0.950  14.935  0.2375  0.0600 -0.1993
10224W        W26118   6.000  11.695  13.858 -0.2308  0.0825  0.1175
10225W        W26119   8.023  16.925   1.390  0.1464  0.1959 -0.0197
10226W        W26120   2.883  15.301   1.654  0.0165 -0.0944 -0.1584
10227W        W26121   3.752  16.531   1.765 -0.0094 -0.0639 -0.1546
10228W        W26122  11.067  12.927  16.100 -0.1361  0.2516  0.1053
10229W        W26123   6.860   1.682  14.568 -0.0323  0.1061  0.0574
10230W        W26124  15.559   4.941   2.388  0.1148  0.1256 -0.2656
10231W        W26125  11.151   3.023   1.807  0.2617 -0.1333 -0.2517
10232W        W26126  11.412   3.010  13.669 -0.3421  0.0054 -0.3602
10233W        W26127   8.551  13.661  15.512 -0.0474 -0.0819 -0.2704
10234W        W26128  16.955   6.909   5.176 -0.2544 -0.0351 -0.2071
10235W        W26129   0.638  17.241   0.464 -0.2395 -0.0166 -0.0893
10236W        W26130  13.870  15.794  14.606  0.1484 -0.0038  0.1508
10237W        W26131  12.220  15.239   0.717 -0.0442  0.1194  0.0583
10238W        W26132   9.869   6.493   2.068  0.0772  0.2082 -0.0678
10239W        W26133  13.165   1.256  16.621 -0.0467  0.1485 -0.0480
10240W        W26134  13.314   8.827   2.375  0.0021  0.3257 -0.0252
10241W        W26135  14.510   8.053   0.040 -0.0823  0.1076  0.0020
10242W        W26136   8.593   9.076   5.900  0.3713  0.3783 -0.0324
10243W        W26137   7.350  14.244   5.672  0.2885 -0.2121  0.2713
10244W        W26138   2.049  10.796  13.980 -0.2172 -0.0264 -0.1538
10245W        W26139   9.364   7.709  14.774  0.2606  0.2592  0.1092
10246W        W26140   5.642   5.177   3.609  0.2474 -0.1933  0.1800
10247W        W26141  11.642   9.410   2.809  0.0241 -0.2667  0.1882
10248W        W26142   5.559  15.362   0.887  0.1117  0.0680  0.1354
10249W        W26143  14.149  13.357  13.291  0.2524  0.1757 -0.1942
10250W        W26144   8.147   4.985  13.930 -0.0343  0.2622  0.2362
10251W        W26145   9.015  15.978   3.006 -0.1623  0.1983 -0.3306
10252W        W26146  14.742   8.747  11.757  0.2642  0.2353  0.1472
10253W        W26147   8.870   3.331   3.334  0.1096 -0.0017 -0.3579
10254W        W26148   3.420   8.911  15.682  0.1277  0.0965  0.3013
10255W        W26149   2.431   8.602   3.761  0.0959 -0.0248 -0.4356
10256W        W26150  12.857   4.210  15.650  0.1000  0.0721 -0.0393
10257W        W26151  13.598  14.159   0.850 -0.2266  0.0829 -0.0063
10258W        W26152   1.590   4.756   1.383  0.1862  0.1141 -0.4000
10259W        W26153   6.784  14.009   0.027  0.0933 -0.1307 -0.0346
10260W        W26154  14.465  16.595   0.498 -0.1311  0.1427 -0.2427
10261W        W26155   2.993  13.436  12.322 -0.1646 -0.0595  0.1562
10262W        W26156   2.043  10.385   2.107  0.0347 -0.1214  0.1183
10263W        W26157   9.817  15.450  15.983  0.2339 -0.0981 -0.3599
10264W        W26158   6.839   9.178  15.559 -0.0871  0.2200  0.2033
10265W        W26159   0.867  15.323   6.086 -0.0700 -0.1122  0.0179
10266W        W26160  13.135  12.216  16.085 -0.0092 -0.1453  0.1270
10267W        W26161   8.541   3.239  15.413 -0.0079  0.2034  0.0808
10268W        W26162  17.530  17.775  15.959  0.0753 -0.1393  0.0510
10269W        W26163   7.598  12.225   0.999  0.0310  0.0363  0.1217
10270W        W26164   7.255   3.470   3.625  0.0703 -0.2835 -0.1958
10271W        W26165  13.041  15.221  14.113 -0.3487 -0.0257 -0.0537
10272W        W26166   7.012  13.915   1.964  0.1725  0.0247  0.2109
10273W        W26167   9.893   4.979   0.331 -0.0245 -0.0568 -0.1240
10274W        W26168  10.249   7.160  15.882  0.2704 -0.1023  0.3702
10275W        W26169  15.720  12.110  16.889 -0.3145  0.0199 -0.1427
10276W        W26170   9.739   2.939   5.294  0.2125 -0.1026  0.2566
10277W        W26171   3.273  17.481   0.147  0.1275  0.1205 -0.2587
10278W        W26172  11.631  14.620   2.497  0.1128 -0.0290  0.4441
10279W        W26173  16.876   7.944   1.869  0.1798 -0.1760  0.0165
10280W        W26174   1.298  10.237   1.772  0.0270  0.0155 -0.1740
10281W        W26175   4.039   2.025   2.304 -0.1458 -0.0976  0.0077
10282W        W26176   7.960   9.135  16.217 -0.0463 -0.0501  0.1928
10283W        W26177   7.318   3.573   1.366 -0.2577 -0.2920  0.0678
10284W        W26178   1.160  13.051  11.858 -0.0155 -0.1431  0.0999
10285W        W26179   9.859  12.161   0.067 -0.0154  0.4021  0.1582
10286W        W26180   0.715   0.263   3.775 -0.0347  0.0353 -0.1907
10287W        W26181  17.232  13.075  13.228 -0.1358 -0.1180  0.0719
10288W        W26182  11.203   3.643  12.960 -0.2562 -0.1813  0.1512
10289W        W26183  12.207   1.585   5.539 -0.2562 -0.1486  0.3729
10290W        W26184   8.184   3.802   1.024  0.3181 -0.2090 -0.1185
10291W        W26185   7.136   6.122   3.201  0.0577  0.0948 -0.3471
10292W        W26186   7.119   5.640   0.917  0.0941 -0.0916  0.1715
10293W        W26187  13.526   6.482   1.532  0.1085 -0.0184  0.1599
10294W        W26188   6.414   5.429  12.071  0.1386  0.1812 -0.3850
10295W        W26189   5.846   8.010   4.552  0.0258 -0.0588  0.0823
10296W        W26190  15.001  15.323  15.643 -0.2501  0.1848 -0.0214
10297W        W26191   3.271  12.062   2.339  0.0345  0.2258  0.2080
10298W        W26192   1.942  15.801  12.282 -0.1067  0.1069  0.2250
10299W        W26193  17.634   3.036   0.396  0.4257 -0.1123  0.0189
10300W        W26194  14.592   8.509  16.733  0.2261 -0.2288 -0.1418
10301W        W26195   3.715   5.053  13.901 -0.1557 -0.0935  0.2317
10302W        W26196  15.483   0.119  12.507  0.0672  0.1581 -0.2520
10303W        W26197  11.341  15.889   5.522 -0.0289  0.1567  0.0358
10304W        W26198   7.841  16.528   3.353 -0.3632 -0.0177 -0.4835
10305W        W26199   8.868  12.570  15.299  0.1576 -0.0522  0.0080
10306W        W26200  10.919   4.776  15.575  0.0797  0.3759 -0.2241
10307W        W26201   8.776   8.638   0.824 -0.2568 -0.1987  0.0680
10308W        W26202   8.949   8.004  14.231  0.0138 -0.2028 -0.2890
10309W        W26203  16.409  14.730   4.147 -0.0393 -0.0833  0.1240
10310W        W26204   5.127  13.375   6.576 -0.0608  0.0912  0.0828
10311W        W26205   4.725   7.394  12.499  0.1228 -0.1137  0.2625
10312W        W26206  13.296  13.338  16.463  0.1051 -0.0449  0.0360
10313W        W26207  16.066  17.581  13.768  0.0329 -0.2564 -0.0839
10314W        W26208   9.184   8.822   4.211  0.0147 -0.2723  0.2315
10315W        W26209   3.848   7.878  12.915 -0.2188 -0.0679 -0.1014
10316W        W26210   3.008   9.838   1.878  0.4201 -0.2002  0.1764
10317W        W26211  10.873   3.094  11.463  0.4355  0.1064  0.1603
10318W        W26212  15.019  14.432  15.837  0.1964 -0.2486  0.0681
10319W        W26213  17.550   5.389  12.265 -0.1182  0.1573 -0.3685
10320W        W26214   7.075   5.072  14.768  0.4452  0.1199  0.3764
10321W        W26215   6.635   7.070   3.698 -0.4246  0.0981  0.0506
10322W        W26216   5.113   9.731   5.028 -0.1294  0.3016 -0.0319
10323W        W26217  12.939   2.561   3.568  0.0887  0.1253 -0.0801
10324W        W26218  17.258   1.161  11.993 -0.0528 -0.1808 -0.1644
10325W        W26219   7.314   1.438   1.044  0.2518  0.0534  0.2918
10326W        W26220   8.714   2.585   4.489  0.2754 -0.1484 -0.1955
10327W        W26221   3.004  17.841  13.148 -0.3290  0.0208 -0.1382
10328W        W26222  10.759   6.502   2.896 -0.3962 -0.0874 -0.2000
10329W        W26223   1.282   4.148   4.908  0.1222  0.3587  0.4580
10330W        W26224  16.107   2.504   2.173  0.0912  0.1378 -0.2096
10331W        W26225   2.836   1.601  13.574  0.0566 -0.3651 -0.0108
10332W        W26226  11.936   0.963   4.238 -0.2357 -0.3894 -0.0335
10333W        W26227   1.491   8.954   4.942 -0.0363 -0.0507 -0.0653
10334W        W26228   7.558   9.980  13.095  0.2264 -0.2595 -0.2280
10335W        W26229   7.062   2.082   3.156  0.1264  0.0827  0.0951
10336W        W26230   6.607  12.969   4.397 -0.0934 -0.2314  0.0296
10337W        W26231  15.041   6.091  13.609 -0.1196 -0.1337 -0.1702
10338W        W26232  15.826  14.671   1.811  0.1716  0.2329 -0.0410
10339W        W26233  12.484  14.170  13.241  0.0514 -0.1473  0.0410
10340W        W26234   0.161  17.500   1.754  0.0091 -0.3430 -0.2222
10341W        W26235   2.416   3.257  12.273  0.1998  0.4313  0.1788
10342W        W26236   4.561  13.863  16.465 -0.1088 -0.0556 -0.0252
10343W        W26237   4.291   5.969  15.051 -0.0543  0.1500 -0.2050
10344W        W26238  13.216  10.355  15.473  0.4080  0.2224  0.1180
10345W        W26239   1.924  14.253  11.569  0.0873  0.0042  0.1333
10346W        W26240  13.038   3.354   2.038 -0.2843 -0.0634  0.1589
10347W        W26241  15.180   2.383   4.714 -0.0373 -0.0218 -0.2561
10348W        W26242  10.588  10.403  13.984 -0.2652 -0.0707  0.1552
10349W        W26243   0.594   4.925   1.720 -0.2684 -0.0263  0.0700
10350W        W26244  14.600  13.630   1.603 -0.2577 -0.1517  0.0552
10351W        W26245  10.186   0.936   1.761 -0.2429 -0.1653  0.0272
10352W        W26246   2.110  10.772  14.454  0.3344  0.5052 -0.3339
10353W        W26247  16.591   8.760  15.042  0.0710 -0.0173 -0.0720
10354W        W26248   4.917  16.081   0.986  0.0565 -0.1043  0.1103
10355W        W26249   7.276   7.300   0.611 -0.1212 -0.1692  0.3801
10356W        W26250  16.981   9.845  13.854  0.0717  0.2258 -0.1106
10357W        W26251   3.477   1.708  13.337 -0.0350 -0.0255 -0.0277
10358W        W26252  14.280  11.382  16.426 -0.2478 -0.1925 -0.0495
10359W        W26253  12.399  16.657   0.445  0.0757 -0.1947  0.1527
10360W        W26254  14.442   7.336   4.405  0.3077  0.0391  0.1059
10361W        W26255  11.912  12.294   3.308 -0.1538 -0.1790 -0.3143
10362W        W26256   4.908  16.989   5.227 -0.0385  0.0787  0.2686
10363W        W26257   8.645   1.100   4.398 -0.1149 -0.1152 -0.1016
10364W        W26258  12.754  15.436  12.058 -0.1244  0.0698  0.0628
10365W        W26259  17.419  14.894   2.082  0.3648 -0.0452 -0.0240
10366W        W26260   2.524  11.719  12.825  0.0238  0.2687  0.2382
10367W        W26261  16.619  14.072  15.775  0.3267  0.1047 -0.2139
10368W        W26262   4.068   0.617  16.560  0.0002 -0.0117 -0.2559
10369W        W26263   7.717   7.875  13.646 -0.4078  0.1343  0.4487
10370W        W26264   5.400   7.060  15.458 -0.0405  0.3868 -0.4581
10371W        W26265  12.558   8.102   4.251 -0.1425 -0.0370 -0.1357
10372W        W26266  12.539   2.833  12.562  0.1862 -0.0859  0.2404
10373W        W26267  17.498  10.000  16.288  0.3385 -0.0737 -0.1099
10374W        W26268   0.460  13.440   3.597  0.0455 -0.1339 -0.0802
10375W        W26269   2.768  12.240  16.591 -0.1526 -0.1333 -0.1414
10376W        W26270  12.656  14.668   3.279  0.3702  0.2430  0.1682
10377W        W26271   9.416  12.497   2.647  0.1410  0.0736 -0.2501
10378W        W26272   2.880  16.539  11.234 -0.1102 -0.0651 -0.0968
10379W        W26273   7.645   5.130   1.444 -0.2837  0.1710 -0.0777
10380W        W26274  17.032   5.613   3.308  0.2673  0.4456  0.1015
10381W        W26275  13.100   4.286  15.117  0.1751  0.0233 -0.1292
10382W        W26276   9.992  15.547  12.900  0.0040  0.0295 -0.3611
10383W        W26277   5.778  11.599   5.875  0.2959 -0.1894 -0.4261
10384W        W26278  12.666   6.854   4.741 -0.1044 -0.0390 -0.4167
10385W        W26279  16.989  15.825   4.325  0.2759 -0.3513 -0.2656
10386W        W26280   3.879   2.784  13.766 -0.0484  0.2368 -0.2560
10387W        W26281   9.038   1.012   0.967 -0.0194  0.0712 -0.0775
10388W        W26282  16.110  13.180   1.494  0.1810  0.0059 -0.2284
10389W        W26283   4.576  13.228   4.336  0.3046 -0.3517  0.1384
10390W        W26284   8.558  13.902  12.314 -0.1736 -0.0065  0.2288
10391W        W26285   9.812  15.979  12.174  0.0323 -0.0374 -0.1309
10392W        W26286   4.855   1.408  16.111 -0.0950 -0.0215  0.3446
10393W        W26287   0.629   6.066   1.963 -0.0545  0.2136  0.0452
10394W        W26288  12.760  16.346  12.368  0.1866 -0.0007  0.0449
10395W        W26289  10.336   7.824  14.086  0.4159 -0.1961  0.0116
10396W        W26290   5.792   8.313   0.276 -0.0342 -0.2730 -0.2715
10397W        W26291   4.672  12.801   2.185 -0.2970  0.0273 -0.4045
10398W        W26292  10.088   6.267  16.524  0.3435 -0.0859 -0.0701
10399W        W26293   0.230  11.782  14.074  0.4976  0.3074  0.0676
10400W        W26294   3.837  12.444  15.739  0.1652 -0.3230  0.0394
10401W        W26295   3.508   0.255  14.927 -0.0195  0.1596 -0.1718
10402W        W26296  17.410  14.130  12.404  0.1774  0.2736 -0.1604
10403W        W26297   3.177  17.463   4.927  0.2678 -0.1303 -0.2235
10404W        W26298   6.597   5.381  14.683  0.0884  0.2040 -0.0485
10405W        W26299   1.075  13.380   4.772 -0.0691  0.0994  0.0553
10406W        W26300  11.705   3.878  12.793 -0.0126  0.0421 -0.2212
10407W        W26301   4.995   8.924  11.808 -0.0032 -0.2028 -0.0557
10408W        W26302   5.361  11.575  14.801 -0.2985 -0.1004 -0.3944
10409W        W26303   6.229  17.806   1.589  0.1405  0.0732  0.0830
10410W        W26304   0.624  10.221  12.331 -0.3259  0.0490 -0.1471
10411W        W26305   5.297  16.540  14.189  0.0086  0.4889 -0.2663
10412W        W26306  15.623  11.305   3.104 -0.1915  0.0349 -0.0372
10413W        W26307  14.048   1.261  12.801  0.1378 -0.2031 -0.1644
10414W        W26308  13.726   5.379  13.050  0.0559 -0.3387  0.0900
10415W        W26309   4.228   4.886   2.538 -0.1528  0.3013  0.0502
10416W        W26310  10.046   3.875  13.122 -0.0866 -0.1514  0.3644
10417W        W26311   0.228   1.803  14.969  0.1507 -0.1000 -0.1623
10418W        W26312   3.422   0.524   5.724  0.0184  0.2473  0.0181
10419W        W26313   6.016  11.075   4.284  0.1475  0.2308 -0.2321
10420W        W26314  16.308   2.726   1.836  0.0913 -0.1855  0.2535
10421W        W26315  14.755   2.240   2.112  0.0960  0.1663 -0.1309
10422W        W26316  16.854   2.115  12.029 -0.0563 -0.0390 -0.1220
10423W        W26317   1.297  15.610   3.924 -0.0874  0.3173  0.2794
10424W        W26318   3.160  12.780   4.159 -0.0766  0.1579 -0.1848
10425W        W26319   7.867   9.551   2.672  0.2426  0.3393 -0.2813
10426W        W26320   8.976  16.152   5.704  0.1381 -0.1850  0.0884
10427W        W26321  14.063   6.559   1.552 -0.1434 -0.1726 -0.1496
10428W        W26322  16.148   7.980   4.498  0.0890  0.1195 -0.0615
10429W        W26323  17.283   6.631  11.865 -0.0370  0.2101 -0.0064
10430W        W26324  17.318   3.599   1.594 -0.0321 -0.1527 -0.3550
10431W        W26325   9.220   9.767  15.473 -0.0043  0.0254  0.1637
10432W        W26326  10.429  15.708  14.381  0.0146 -0.1094  0.0335
10433W        W26327   6.160   8.189   4.071 -0.3918  0.0421 -0.0921
10434W        W26328   9.851   4.887  13.104 -0.0714 -0.0722 -0.0116
10435W        W26329   3.742  16.631  15.926 -0.0111  0.2762  0.0178
10436W        W26330   5.802  14.990   1.182 -0.3260 -0.2492  0.1740
10437W        W26331   8.468  14.274  16.270 -0.1046 -0.2581  0.3332
10438W        W26332  11.013   6.436   5.444  0.3739  0.0531 -0.0928
10439W        W26333  15.662   0.513   3.944  0.0500  0.3217  0.1377
10440W        W26334   4.290  12.533   6.278 -0.0885  0.3650  0.1225
10441W        W26335  14.414   5.391  13.762 -0.0033  0.0330 -0.1304
10442W        W26336   2.075   5.294  14.906 -0.0657 -0.0577 -0.2445
10443W        W26337   2.026   9.458   4.059 -0.0516  0.1571  0.2504
10444W        W26338  17.616   9.339   0.885  0.0342 -0.0057 -0.0209
10445W        W26339   1.538   3.742   5.130 -0.0311 -0.1325  0.2976
10446W        W26340   0.888  15.637   0.209  0.0541  0.1033  0.3164
10447W        W26341   8.677  13.518   1.499 -0.0585  0.3248  0.3816
10448W        W26342   3.791   9.207  14.072 -0.1502 -0.2970  0.2949
10449W        W26343   4.350   8.559   4.443  0.0678  0.1465  0.0084
10450W        W26344   0.750  11.530   3.286 -0.0444 -0.0306 -0.0359
10451W        W26345   9.259   9.712   3.602  0.0405 -0.1353  0.1017
10452W        W26346  15.874   8.504  10.995  0.2012  0.3002 -0.2894
10453W        W26347  17.593  15.836  16.436  0.0304 -0.0073  0.1002
10454W        W26348  15.781   7.854  16.589 -0.0820 -0.0196 -0.2341
10455W        W26349   0.340  14.489   4.353  0.0937 -0.2368  0.1184
10456W        W26350   7.901   0.514  16.111  0.2292 -0.2090 -0.2551
10457W        W26351   2.428   4.462   6.041 -0.3010  0.0801 -0.0244
10458W        W26352   9.345  12.963   2.437 -0.2352 -0.1364  0.0174
10459W        W26353   7.910   5.828   1.132  0.1328 -0.0475 -0.2641
10460W        W26354   8.106   1.960   2.028 -0.2679 -0.1420 -0.0389
10461W        W26355   4.888   4.808   5.765  0.0046  0.0386 -0.0344
10462W        W26356   5.906  10.458   2.242  0.0462  0.0573  0.4176
10463W        W26357   7.479  12.120  13.595 -0.1481 -0.1518 -0.0920
10464W        W26358  16.314  15.542   4.785 -0.0904  0.0874 -0.1857
10465W        W26359  16.723   5.065  11.379  0.0850  0.0844  0.1187
10466W        W26360  10.361  10.341   5.331  0.1120 -0.4178  0.0883
10467W        W26361  11.337  14.942   3.352  0.1326  0.0110  0.0539
10468W        W26362   7.424   8.675   2.769 -0.2076 -0.3014 -0.0616
10469W        W26363  17.813  13.519   4.473 -0.2675  0.1133  0.0440
10470W        W26364  12.817  16.165  13.123  0.1456  0.1099 -0.0127
10471W        W26365  17.098   5.904  13.322  0.3552  0.2425  0.1468
10472W        W26366  12.183   2.725  16.519 -0.1671 -0.0382 -0.2482
10473W        W26367   9.560   2.618   5.666 -0.2279  0.0348 -0.2114
10474W        W26368   9.582  15.286  14.565  0.2254 -0.0533  0.2830
10475W        W26369   1.159  15.068   2.824 -0.3895  0.0112  0.6128
10476W        W26370   2.377  16.696  13.130 -0.0339 -0.1630 -0.2503
10477W        W26371  11.660  11.332   1.920 -0.1921 -0.1080  0.0594
10478W        W26372   4.260   9.001  12.682 -0.1421 -0.0135  0.4559
10479W        W26373  11.876  12.488   6.168 -0.2032  0.0973  0.1110
10480W        W26374  16.327   0.531   5.078  0.0118  0.0838  0.2137
10481W        W26375   3.648   0.230   4.635 -0.0517 -0.2759  0.1067
10482W        W26376  12.016   3.212  15.766 -0.1706  0.1038  0.3746
10483W        W26377  11.026   2.734   4.975 -0.0998 -0.2318 -0.0066
10484W        W26378   4.939   4.136  13.127  0.0486 -0.0384  0.0724
10485W        W26379  13.291   0.255   3.325 -0.0574  0.0239 -0.2347
10486W        W26380  12.249  17.239   3.627  0.1139  0.0673 -0.2087
10487W        W26381  16.811   1.930   2.712 -0.1414 -0.1894 -0.1626
10488W        W26382   4.488   6.425  12.932  0.0713 -0.3671  0.0086
10489W        W26383   6.466   7.681   1.989 -0.1751  0.0237 -0.0242
10490W        W26384   4.307  11.376   5.411  0.0354 -0.0120 -0.1167
10491W        W26385   5.321   5.718   5.020 -0.3882 -0.1710 -0.1303
10492W        W26386  12.832   7.053  11.271 -0.0204 -0.0159  0.1585
10493W        W26387   2.713   6.687  13.570 -0.0544 -0.1537  0.1012
10494W        W26388   1.813  16.266   0.891  0.0395 -0.0994  0.0700
10495W        W26389   5.613  14.548   5.061 -0.0112 -0.0982  0.1053
10496W        W26390   9.301  17.521   3.512  0.0528  0.2209  0.0975
10497W        W26391   8.714  15.949   4.155  0.3074  0.1448 -0.0166
10498W        W26392   4.859  11.754   3.766  0.0536  0.1865  0.2444
10499W        W26393  11.711  16.410   4.501 -0.0598 -0.0490  0.2011
10500W        W26394   7.218   3.032   2.478  0.0668 -0.1399  0.0868
10501W        W26395  14.116  15.455   2.221 -0.4600 -0.0031  0.1836
10502W        W26396  11.180  11.285   5.060  0.3468 -0.1510 -0.0383
10503W        W26397   1.234   7.989  12.645 -0.1554 -0.0344 -0.0660
10504W        W26398  16.384   5.466  11.312 -0.2824  0.1353 -0.1091
10505W        W26399   1.660   3.281   3.876 -0.3004  0.1288  0.2446
10506W        W26400   4.674  10.748  12.794  0.3501  0.0136 -0.2436
10507W        W26401  10.394  10.027  16.218  0.0373  0.2960  0.0444
10508W        W26402   5.093   7.476  13.812 -0.1513  0.2807 -0.0505
10509W        W26403   7.144   8.985   5.767  0.0119  0.1351 -0.3267
10510W        W26404   9.503   1.091  16.220  0.1528  0.1171 -0.1660
10511W        W26405  12.060   6.662   2.546  0.1425 -0.0890  0.2459
10512W        W26406  13.689   6.883   1.292 -0.2328 -0.2593  0.2760
10513W        W26407   4.932  16.630  13.020  0.1556 -0.0366 -0.0868
10514W        W26408   6.315  11.214  16.041 -0.1548  0.0377  0.0382
10515W        W26409  13.509   2.890  13.910  0.0927 -0.2408  0.1214
10516W        W26410   9.276  13.497  15.199 -0.1134  0.0330  0.2245
10517W        W26411  14.304  13.607  16.469  0.0644 -0.0333 -0.2983
10518W        W26412   6.301  17.685  16.875  0.0794  0.0911  0.3760
10519W        W26413  14.351  15.495  14.009 -0.2921  0.0602 -0.0028
10520W        W26414   5.509  15.981   3.118 -0.2507  0.1305  0.3903
10521W        W26415   6.279   4.666  16.017 -0.5230  0.2136  0.1331
10522W        W26416   2.997  11.312  12.677  0.1494 -0.6308 -0.0396
10523W        W26417   1.782   2.760  12.610 -0.1999 -0.0140  0.1042
10524W        W26418   6.078  17.026   5.802 -0.2558 -0.0263  0.2478
10525W        W26419   1.918   6.088   2.442  0.2462  0.2929 -0.0802
10526W        W26420  13.256  13.538   3.070 -0.1016  0.1097 -0.1988
10527W        W26421   1.079   5.717  16.389 -0.1416 -0.1897  0.0326
10528W        W26422   4.026  15.843   5.035  0.4094 -0.1290 -0.1024
10529W        W26423   7.532  15.435  16.171  0.1048 -0.0509  0.1011
10530W        W26424   0.642   1.517  16.632  0.0446  0.0490 -0.3080
10531W        W26425  13.617  10.155  12.993  0.1242  0.0304 -0.3702
10532W        W26426  10.467   5.988  15.899 -0.1855  0.3096  0.2797
10533W        W26427   4.319  13.600   0.127  0.2628  0.0908  0.1969
10534W        W26428   6.144   6.094   4.526 -0.0332 -0.0979  0.1825
10535W        W26429  14.816   6.242  16.104  0.1922  0.1431 -0.0587
10536W        W26430  14.625  14.763   1.239 -0.0068  0.0932 -0.1291
10537W        W26431   3.230   1.029  14.600 -0.2056 -0.2116  0.0741
10538W        W26432  10.151   7.431   4.314  0.3124  0.1945  0.2292
10539W        W26433   8.793   3.172   2.322 -0.1731  0.1863 -0.2404
10540W        W26434  10.776   2.956   3.538 -0.0405 -0.1344 -0.1005
10541W        W26435  15.950   6.783   2.514  0.2511  0.1737  0.0998
10542W        W26436   2.702   7.007  14.698 -0.2410  0.0356 -0.0404
10543W        W26437   0.910  16.456  15.839  0.1965  0.3240 -0.3028
10544W        W26438  11.835  12.534  16.210 -0.0235 -0.1765  0.1005
10545W        W26439  10.034  17.420   5.472  0.0556 -0.0234  0.0864
10546W        W26440   0.854  13.415  12.790 -0.2656 -0.0424  0.1221
10547W        W26441  13.574  12.853   3.684 -0.0480  0.1251 -0.1014
10548W        W26442   5.858  11.686   6.373 -0.1440  0.0069  0.1900
10549W        W26443   0.382  12.502  16.483  0.1270 -0.0660 -0.0596
10550W        W26444   2.874  14.512   4.721  0.1711  0.0018  0.0428
10551W        W26445   7.449  14.789   0.007 -0.0777 -0.0411  0.1682
10552W        W26446   6.474  11.719  15.035  0.2361  0.2867 -0.1436
10553W        W26447  16.022  16.677   3.283 -0.0151 -0.0227  0.2569
10554W        W26448   7.127  13.002   4.051 -0.0022 -0.0593  0.1014
10555W        W26449   5.677  10.116   0.538 -0.1040 -0.1995  0.0679
10556W        W26450  16.597   6.360   0.624  0.2412  0.1957 -0.0846
10557W        W26451  12.826  15.005  11.370  0.0326 -0.0176  0.0306
10558W        W26452   9.785   7.004  16.143  0.1943 -0.1836 -0.2359
10559W        W26453  11.162   0.299  15.859  0.3059 -0.1100 -0.0145
10560W        W26454   8.977  11.606  14.312  0.1997  0.1806 -0.0486
10561W        W26455  14.530  10.277  14.367 -0.3267 -0.1182 -0.0673
10562W        W26456  15.556   4.323   3.288 -0.0751 -0.0944  0.0112
10563W        W26457   1.418  12.429   0.329  0.0339 -0.6370 -0.0473
10564W        W26458   6.080  11.508  12.267  0.0725 -0.2391 -0.2358
10565W        W26459   4.104  15.890  10.650 -0.0623  0.0676 -0.0103
10566W        W26460  14.877   6.214   3.547 -0.2026  0.0294 -0.0688
10567W        W26461   6.864   1.931  16.643 -0.2009 -0.3933 -0.1681
10568W        W26462   1.040  10.921   5.643 -0.1197  0.0801  0.0335
10569W        W26463  13.566  11.294  13.737 -0.4234 -0.1189 -0.0005
10570W        W26464  11.269   1.303  13.181 -0.1688  0.1472  0.0379
10571W        W26465  12.260   0.068  16.050 -0.0901  0.2227 -0.0854
10572W        W26466  13.681  16.273   0.649  0.1335  0.0968  0.1754
10573W        W26467  15.887  16.981  16.743  0.1313  0.0412 -0.1970
10574W        W26468   2.838  10.776   4.865  0.1096 -0.1923 -0.0237
10575W        W26469   2.040   0.514  15.907  0.2295 -0.0145  0.1801
10576W        W26470  10.938  13.258   2.987 -0.0577 -0.4154  0.1006
10577W        W26471  11.054  15.896  13.477 -0.3937 -0.1196 -0.2722
10578W        W26472  16.562   4.879   4.109 -0.0153 -0.3123  0.2159
10579W        W26473   4.897   1.915   2.668  0.1510  0.2997  0.1784
10580W        W26474   0.221  16.231   5.216 -0.1635  0.1829 -0.1465
10581W        W26475   7.731   7.711  12.492 -0.0966  0.2018  0.0512
10582W        W26476  11.442  14.877   0.751  0.0898  0.1524  0.2573
10583W        W26477   1.532  14.515   4.473 -0.0593  0.0727 -0.1618
10584W        W26478  15.839  13.173  14.045  0.0283 -0.0742 -0.0856
10585W        W26479   6.932   6.979   4.145  0.1097 -0.1178 -0.3061
10586W        W26480  13.670   3.546  12.772  0.1727  0.0344  0.0256
10587W        W26481   7.609  15.418   1.519 -0.1800  0.1231 -0.1279
10588W        W26482   2.346  17.807  13.857 -0.0028 -0.4773 -0.1910
10589W        W26483  15.009  10.233   1.941 -0.0393  0.0332  0.0857
10590W        W26484  11.633   0.565   1.169 -0.0622 -0.1406  0.0727
10591W        W26485  13.272   9.171   0.988  0.2950 -0.2356  0.0222
10592W        W26486   5.883  14.172   0.492  0.2384  0.1988  0.1491
10593W        W26487   4.072  16.812  13.223 -0.1952  0.1661  0.0511
10594W        W26488  14.170   5.347  13.324  0.0339 -0.0725 -0.1220
10595W        W26489  12.796   7.676   3.358  0.2575  0.0222  0.3081
10596W        W26490  12.502  17.387   3.178  0.0109 -0.1367 -0.1420
10597W        W26491  14.525   1.376  14.632 -0.3593 -0.0833 -0.1423
10598W        W26492   9.437  11.168   4.818 -0.0850 -0.0687  0.1105
10599W        W26493  15.058   8.030  14.591 -0.2070  0.1024  0.0642
10600W        W26494   9.656   8.642   6.498 -0.0334 -0.0075 -0.2184
10601W        W26495  15.523  10.847  14.108 -0.2484 -0.3658  0.0665
10602W        W26496  10.369   3.513  13.193  0.0870  0.3287 -0.0693
10603W        W26497  10.077  17.100   1.274  0.3342 -0.2119 -0.0171
10604W        W26498   2.816   1.388  10.887  0.0173 -0.0488  0.0180
10605W        W26499   6.878   6.253  13.447  0.0471 -0.4129 -0.1849
10606W        W26500   6.322   9.656  12.559 -0.0921 -0.1254 -0.1845
10607W        W26501  14.831  13.113   4.452  0.0018  0.2141 -0.1256
10608W        W26502  16.177   5.821   2.451  0.0917  0.2160  0.1987
10609W        W26503   2.792  17.592   0.387  0.4076 -0.2088  0.2091
10610W        W26504   7.260   0.635  14.319 -0.1129  0.0192  0.2536
10611W        W26505   5.319  12.364   6.308 -0.1468 -0.1729 -0.0209
10612W        W26506  12.427   9.422   1.064 -0.2838 -0.2438  0.2570
10613W        W26507   0.548  17.280  12.923  0.1079  0.2145  0.1877
10614W        W26508   4.161  16.854   3.452 -0.0591  0.0738  0.4887
10615W        W26509  16.955   9.717   1.124 -0.0638  0.0140  0.0981
10616W        W26510  17.385   6.937   4.054 -0.0233 -0.0785  0.0262
10617W        W26511   0.332   5.048  15.397  0.2172 -0.0608  0.1791
10618W        W26512   5.993   9.612  13.902 -0.1580  0.0435 -0.2586
10619W        W26513   4.072   0.171   3.864 -0.0646 -0.0529 -0.0358
10620W        W26514   7.291  11.239  15.148 -0.3205 -0.2671 -0.1906
10621W        W26515  10.818   0.660  12.361  0.0028  0.0813 -0.0971
10622W        W26516  14.612   7.029  12.980  0.3525 -0.1774 -0.1589
10623W        W26517   1.517   9.530  11.429 -0.3100 -0.0267  0.1398
10624W        W26518   9.989   8.017   4.793 -0.5005  0.2793 -0.2561
10625W        W26519   6.719  14.897   2.743  0.0620  0.0356  0.0520
10626W        W26520  10.968   5.685  14.492 -0.2292  0.1926  0.4293
10627W        W26521   3.901   0.831  12.279 -0.2519  0.1961  0.0059
10628W        W26522   9.464  16.779  12.329  0.2232  0.0621 -0.1874
10629W        W26523   9.086   3.856   5.925  0.0543 -0.0802  0.2615
10630W        W26524   2.785  17.686   3.639  0.0755  0.0149 -0.0625
10631W        W26525   1.613   2.322   2.653  0.1944 -0.1654  0.0593
10632W        W26526  12.628   3.634   6.293 -0.0117  0.0778  0.0367
10633W        W26527   3.050   3.419  16.149  0.1486 -0.0554 -0.0287
10634W        W26528   6.917  11.551  15.251  0.0262  0.2412  0.1555
10635W        W26529  17.626   0.165  14.034  0.0861 -0.1266  0.0423
10636W        W26530   3.462   0.868  13.453 -0.2211  0.1071 -0.0149
10637W        W26531   1.164  12.393  13.565 -0.0944 -0.0120 -0.0496
10638W        W26532   3.359   8.553  14.284 -0.0721  0.0534 -0.0431
10639W        W26533  15.364   9.754  15.622  0.1210  0.1484  0.1998
10640W        W26534  17.477  14.360   3.355  0.3463 -0.0342 -0.1002
10641W        W26535   7.543   9.073   0.268 -0.2705 -0.0565  0.1872
10642W        W26536   8.244  10.476   0.066  0.3189 -0.0606  0.2071
10643W        W26537   6.328  15.800   1.077  0.4185  0.1050 -0.2828
10644W        W26538   6.573   2.419   2.958  0.1416 -0.2779 -0.2141
10645W        W26539  16.307   4.175   0.100  0.0650 -0.1339 -0.3149
10646W        W26540   7.792   6.801  11.818  0.1305 -0.0269 -0.4633
10647W        W26541  12.788  17.737  16.437  0.1886 -0.1678  0.0816
10648W        W26542  16.045   2.536   1.460 -0.0342 -0.0741 -0.0136
10649W        W26543   3.480   0.920  10.444 -0.2184 -0.0260  0.0305
10650W        W26544  10.142   8.407  12.981  0.0500  0.2205 -0.2050
10651W        W26545   6.171   3.563  12.683  0.0105 -0.1831  0.0353
10652W        W26546   3.580   4.934   3.340 -0.1930 -0.0727 -0.2157
10653W        W26547   5.117   4.126   4.585 -0.4030 -0.6473 -0.1842
10654W        W26548   4.910  11.068  14.221 -0.0571  0.0685  0.0741
10655W        W26549   0.587  14.552  16.617  0.0111  0.0050  0.1877
10656W        W26550  12.797   4.165  11.225  0.0874 -0.2582 -0.3475
10657W        W26551  15.539   7.531  16.906  0.2902  0.1200 -0.3595
10658W        W26552  15.064   1.232   6.204  0.2889  0.1156  0.2210
10659W        W26553   3.296   4.373   0.578 -0.0568 -0.1398 -0.4170
10660W        W26554   0.902  11.992  12.541  0.1975 -0.2071  0.0352
10661W        W26555  15.613  15.125   4.517  0.1412  0.0599  0.1006
10662W        W26556   9.263  14.731   5.805 -0.6601  0.0218  0.2914
10663W        W26557  11.589   8.803  16.395 -0.3838 -0.3170  0.0712
10664W        W26558   1.130   5.331   3.119  0.0041 -0.1386 -0.2306
10665W        W26559   6.117   9.919  14.397 -0.1841 -0.2167  0.0492
10666W        W26560  16.700   1.608  12.605  0.2028  0.2247 -0.1860
10667W        W26561  17.417   8.528  11.454 -0.1193  0.0906  0.4838
10668W        W26562  13.222   9.867   2.171  0.0784 -0.0366  0.3565
10669W        W26563   1.177  13.029  12.480 -0.3614  0.4029 -0.5065
10670W        W26564   2.604  10.102  13.786 -0.1324  0.0360 -0.1294
10671W        W26565  13.440  17.314   1.293  0.0182  0.0730  0.0505
10672W        W26566   0.691   5.607   3.993  0.1668  0.2829 -0.2687
10673W        W26567  17.832  10.247   3.906  0.3995 -0.1815 -0.1896
10674W        W26568  13.484   3.779   0.325 -0.0963  0.0822 -0.0725
10675W        W26569   2.317   4.863  15.131  0.2875 -0.0802 -0.2410
10676W        W26570   9.636   8.617   4.126  0.1642 -0.0681  0.0534
10677W        W26571  16.063   7.876  13.652  0.1031 -0.1339  0.4387
10678W        W26572   0.950   2.130   2.982  0.2236 -0.0912  0.3442
10679W        W26573  10.804   1.375   3.152  0.0609  0.0604  0.1208
10680W        W26574   9.288   2.011   3.936  0.0364  0.0428  0.0607
10681W        W26575  14.265   0.780   4.432  0.2024  0.0782  0.1309
10682W        W26576   3.488  13.340  14.766  0.1052  0.0853  0.0761
10683W        W26577   5.577  10.486   3.939 -0.1267 -0.1568  0.1615
10684W        W26578   5.929   1.642   0.503 -0.0192 -0.5213 -0.0554
10685W        W26579  10.240  14.496   0.082  0.0966  0.0629 -0.0663
10686W        W26580   0.456   0.681   4.820 -0.3157  0.0821  0.0354
10687W        W26581  17.639  14.187   5.708 -0.0766 -0.1294 -0.2983
10688W        W26582   4.151   6.317  12.532 -0.1267  0.1466  0.1093
10689W        W26583   8.263   8.430  15.369 -0.0046 -0.1396 -0.3106
10690W        W26584   4.971  14.309  11.855  0.1157  0.1715 -0.2359
10691W        W26585  17.269   6.429   5.573  0.1457 -0.1421  0.1377
10692W        W26586   9.615  13.465   3.630 -0.3311 -0.1673  0.1420
10693W        W26587  10.086   4.155   0.497 -0.0020  0.2627  0.1231
10694W        W26588  13.882   8.046  14.272 -0.2413  0.1704 -0.0852
10695W        W26589   5.612  15.343  13.026 -0.0886  0.0795  0.1475
10696W        W26590   7.417   1.282   6.163  0.1177  0.0915 -0.0456
10697W        W26591   9.689   8.626  14.555 -0.0946 -0.1069  0.1267
10698W        W26592   6.313   6.061  14.100 -0.0787 -0.0402 -0.2422
10699W        W26593   2.681   5.435  15.809  0.2690 -0.2722  0.0788
10700W        W26594  12.848   3.364  14.482 -0.0369  0.2413 -0.1741
10701W        W26595   9.394   1.019   2.842 -0.2625  0.0888 -0.2258
10702W        W26596   9.116   1.249  12.389 -0.3647  0.1606 -0.0958
10703W        W26597   8.916   5.854  11.806  0.0883  0.1159 -0.0748
10704W        W26598  15.514  17.479  12.675 -0.1019 -0.2461 -0.2091
10705W        W26599   5.428  12.138   4.780 -0.4391 -0.4058  0.2108
10706W        W26600   5.171   5.528   3.635 -0.2317 -0.0486  0.3743
10707W        W26601  10.828   8.146   4.375 -0.0728  0.2505  0.3852
10708W        W26602   0.213   9.981  13.031 -0.1922  0.0887 -0.1123
10709W        W26603   5.254  13.099  16.727  0.0178  0.1096  0.1782
10710W        W26604   4.281  15.598   3.554 -0.0331 -0.3535  0.1635
10711W        W26605  14.876  14.992   2.732 -0.0842  0.1379  0.0464
10712W        W26606   9.628   5.501  12.208 -0.2012  0.3951  0.2204
10713W        W26607   6.169   3.219  16.862  0.0477  0.3373 -0.3974
10714W        W26608  17.433   2.545   0.633 -0.0488 -0.0342 -0.0848
10715W        W26609   6.692  12.653   2.491 -0.2033  0.0328  0.0149
10716W        W26610  17.136   4.218  12.673  0.1566 -0.2730  0.1385
10717W        W26611   0.697   2.022  12.446  0.2926  0.0823 -0.1027
10718W        W26612  16.757   3.141  14.274  0.2593  0.1923 -0.2814
10719W        W26613   9.202  14.808   4.979  0.0527 -0.1669 -0.0004
10720W        W26614  16.242   9.559  15.926  0.0345  0.2104 -0.0989
10721W        W26615  10.522   7.810   3.173  0.0472  0.3275  0.1558
10722W        W26616   3.345  14.871   5.328 -0.0559 -0.0458  0.1158
10723W        W26617  10.368   9.249  12.853 -0.0900  0.0382  0.0306
10724W        W26618   5.612  17.155  14.079  0.0736  0.2688 -0.3497
10725W        W26619   2.196   1.544  16.861 -0.0907 -0.0773  0.0194
10726W        W26620   2.693  12.451   4.561  0.1165  0.2064  0.0539
10727W        W26621   5.800   9.224  13.724 -0.1120  0.0757  0.0713
10728W        W26622   0.050   1.180   2.288 -0.0802  0.1538  0.1678
10729W        W26623   5.258  15.422  12.252  0.1030  0.1831  0.0590
10730W        W26624   7.948  15.012  14.861 -0.1008  0.1908  0.1257
10731W        W26625   3.206   6.548  16.873  0.1692 -0.0232 -0.0754
10732W        W26626   1.460   8.120   2.932  0.4374  0.2309 -0.2034
10733W        W26627   0.724   1.276   2.341  0.1848 -0.3493  0.0595
10734W        W26628  16.743   0.326  12.153 -0.3556  0.0645 -0.4058
10735W        W26629   4.242   6.522   4.030  0.2471 -0.0497  0.0835
10736W        W26630  16.941  14.044   2.663 -0.0517 -0.4359 -0.1785
10737W        W26631  14.678   0.039   4.343  0.1153  0.1616  0.1529
10738W        W26632  13.589   6.985   1.798  0.1210 -0.1596 -0.2408
10739W        W26633  15.303  16.841   0.193  0.0478  0.1192  0.0305
10740W        W26634   1.488   4.680  11.327  0.1252  0.0127 -0.0961
10741W        W26635   4.089   1.928   1.128 -0.3473  0.0893 -0.1361
10742W        W26636  12.484   0.004  11.701  0.0070  0.0884  0.4241
10743W        W26637  11.222   7.231   5.383  0.0073 -0.4418 -0.0294
10744W        W26638   4.308   8.028  16.001  0.0381 -0.0920 -0.1869
10745W        W26639   8.510   7.399  11.388  0.4249  0.0528 -0.0999
10746W        W26640   5.711   5.215   0.266 -0.2152  0.0573 -0.0802
10747W        W26641  17.304  12.114  11.111  0.1035  0.2401 -0.1510
10748W        W26642  13.762  16.296  14.406 -0.3002 -0.2424  0.0602
10749W        W26643  16.140   7.480   1.909  0.0951 -0.1934  0.0846
10750W        W26644  11.963   7.156  13.463  0.0823 -0.0185 -0.0815
10751W        W26645   0.164  10.693  16.239 -0.0477 -0.0709  0.1574
10752W        W26646   5.969  16.726  12.218  0.3062 -0.2281 -0.0142
10753W        W26647   7.584  16.202   0.447 -0.5668  0.2059  0.0893
10754W        W26648   8.808   0.928   5.727 -0.0954 -0.0202  0.1708
10755W        W26649   9.349  14.681   0.232  0.1485 -0.1101  0.3530
10756W        W26650  10.586   2.407   2.086 -0.0165  0.0935  0.1101
10757W        W26651   3.353  10.835  11.588 -0.0699  0.1357 -0.3496
10758W        W26652  14.922   1.523  14.282  0.0667 -0.5366 -0.1839
10759W        W26653  17.118  16.027   3.093 -0.0198  0.0132  0.0656
10760W        W26654  11.316  14.306   2.062 -0.0546  0.0685 -0.2420
10761W        W26655  17.513  12.161  15.263 -0.1829 -0.2213  0.1686
10762W        W26656  17.663   3.144  13.657  0.1891 -0.2392 -0.0073
10763W        W26657  13.154   5.280   1.668  0.0284 -0.0165  0.2960
10764W        W26658   6.893  13.669   1.551 -0.0135  0.1503  0.0969
10765W        W26659  15.880  12.437   3.442 -0.0254  0.3111 -0.0502
10766W        W26660   1.114   3.370   4.372 -0.0668 -0.2982 -0.0870
10767W        W26661  16.334  14.578  13.060  0.0323 -0.1236 -0.0188
10768W        W26662   0.226  13.387   5.248  0.1158  0.1018 -0.1023
10769W        W26663   3.047   7.307   2.215 -0.2041 -0.0285  0.2126
10770W        W26664  10.771  17.092   5.601 -0.0844  0.1058 -0.1692
10771W        W26665   2.340  11.311  15.179  0.1680 -0.3746  0.0236
10772W        W26666   0.884   1.644   6.162  0.1237 -0.3771 -0.1263
10773W        W26667   3.562  10.438   5.544 -0.3151  0.0137  0.0921
10774W        W26668   2.290   8.318  11.797 -0.1291 -0.3272  0.2869
10775W        W26669  15.958   8.358  14.392 -0.0772  0.1379 -0.0236
10776W        W26670   3.567   5.704   3.347 -0.4079 -0.1332  0.0976
10777W        W26671   8.780  13.423   1.992 -0.3298 -0.1179 -0.0710
10778W        W26672  17.147  14.432   4.066 -0.0141  0.1909 -0.1724
10779W        W26673   4.820   4.810   2.440  0.0094 -0.0587 -0.3733
10780W        W26674   0.778   8.382   2.523 -0.1186  0.0680 -0.2340
10781W        W26675  15.240   3.923  12.605 -0.2267 -0.0565 -0.2732
10782W        W26676   6.050  16.411   4.847  0.1186 -0.0988 -0.0933
10783W        W26677   6.497   5.399  13.286 -0.3263 -0.3260  0.1367
10784W        W26678   2.126  14.787  16.003 -0.1180  0.0413  0.2482
10785W        W26679   9.372  13.303   0.410  0.1225  0.1153 -0.1322
10786W        W26680  13.452   3.984   2.639 -0.0074 -0.1662 -0.1138
10787W        W26681   5.192   0.045   2.771  0.0696  0.0522  0.1090
10788W        W26682   9.776  13.064  12.446 -0.0297  0.1517 -0.1001
10789W        W26683   1.448   9.524   0.633  0.0101  0.1196 -0.2532
10790W        W26684  15.872   1.580  14.689 -0.1229 -0.1260 -0.3846
10791W        W26685   2.343   2.652  14.952 -0.1999  0.1418 -0.4191
10792W        W26686   6.997   0.350   2.098  0.1337 -0.0060  0.0442
10793W        W26687   4.081  16.305  14.090 -0.0702 -0.0015  0.3853
10794W        W26688   6.194   5.019   1.713 -0.0772  0.0884 -0.0916
10795W        W26689   9.930   5.177   5.981 -0.0908 -0.0150  0.0893
10796W        W26690  10.673   7.702   1.472 -0.0500  0.1263  0.1471
10797W        W26691   8.913  11.326  13.843 -0.4859  0.2773 -0.2719
10798W        W26692  12.308   7.837  12.743  0.0556 -0.0242  0.1812
10799W        W26693  10.461  15.537   0.200  0.1373 -0.0652 -0.0206
10800W        W26694   4.723  15.351   3.388 -0.2004  0.1662 -0.0512
10801W        W26695  16.009   7.551   0.052  0.1991  0.0191  0.2150
10802W        W26696  13.532   7.803   2.231  0.1503  0.1671 -0.1656
10803W        W26697   7.816   8.189   1.813  0.0541  0.1354 -0.0633
10804W        W26698  14.773   6.382   0.865 -0.1941  0.0914 -0.0128
10805W        W26699  15.667   3.293   0.566 -0.2311 -0.0032 -0.2735
10806W        W26700   9.647  11.923  16.501 -0.1736 -0.1217 -0.0450
10807W        W26701  17.522   1.349   4.452 -0.0350 -0.0634  0.4036
10808W        W26702   7.502  11.428  14.067 -0.0039  0.0917  0.0868
10809W        W26703   9.662   7.270   4.157 -0.1014  0.1911 -0.0736
10810W        W26704   6.685  14.527  13.076  0.4984 -0.0175 -0.0978
10811W        W26705   9.971   9.835   2.075 -0.0891  0.0075 -0.1616
10812W        W26706   1.930   1.357  15.526 -0.1164  0.1222  0.1781
10813W        W26707   4.587   3.028   4.581 -0.2750 -0.1193 -0.0292
10814W        W26708  16.997   3.888   1.887  0.1472 -0.3576 -0.2509
10815W        W26709  13.228  10.680  12.141  0.0544 -0.2612 -0.2225
10816W        W26710   2.077   7.109   2.132  0.1217  0.1213 -0.1830
10817W        W26711   0.004  13.599   3.087 -0.1004  0.0608  0.0454
10818W        W26712   9.882  12.898  15.588 -0.2478  0.0879  0.3814
10819W        W26713   6.845  16.288   1.724  0.1137  0.2445 -0.1770
10820W        W26714   9.525   1.002   5.525  0.1554  0.0746  0.2865
10821W        W26715  13.833   5.878  12.275  0.2064  0.0112  0.0350
10822W        W26716   4.521   6.315   5.754  0.0159  0.0768  0.3047
10823W        W26717  16.594   2.561   3.483  0.0329  0.2393  0.1551
10824W        W26718  14.715   2.234   9.990 -0.0759 -0.1093  0.0427
10825W        W26719  17.026   4.190   1.484 -0.0905  0.1172  0.0959
10826W        W26720   8.234   7.802   3.248  0.1742 -0.2194  0.1861
10827W        W26721  11.421   3.974  13.649  0.0596 -0.1287 -0.1047
10828W        W26722  14.211   8.260  15.135 -0.2442  0.0081  0.3870
10829W        W26723   9.705  14.238   2.725  0.0537  0.0223  0.4584
10830W        W26724   6.304   2.045  16.292 -0.1483 -0.1472  0.0799
10831W        W26725  12.711  14.310   4.132  0.1334  0.0688  0.1294
10832W        W26726  17.715   8.883  15.781 -0.3931 -0.1419 -0.2611
10833W        W26727  15.611  15.496   2.454 -0.1837 -0.1207 -0.1129
10834W        W26728   6.851  11.919  16.850 -0.1413  0.0960 -0.1378
10835W        W26729   4.851  14.286   2.111 -0.1383 -0.0023 -0.0228
10836W        W26730   7.059  14.549   2.887  0.2502  0.0462  0.1653
10837W        W26731  16.157  14.383  11.577 -0.1057 -0.1511  0.0927
10838W        W26732   5.939  13.607   0.440  0.0252  0.1419 -0.2831
10839W        W26733   2.463  11.877  16.390  0.2489  0.1652 -0.0395
10840W        W26734   0.868   9.869  13.449  0.0910  0.0369 -0.1166
10841W        W26735   6.771   4.236   4.000  0.2932  0.0590  0.0685
10842W        W26736   3.125   2.517  13.885  0.2067 -0.2766  0.0255
10843W        W26737  12.604   6.970  16.073  0.4174 -0.1237 -0.1073
10844W        W26738  16.895  12.264  11.357 -0.0900  0.2196  0.0725
10845W        W26739  10.102   0.043   5.297 -0.0124  0.2341  0.1790
10846W        W26740   2.069   6.405  14.981  0.2550 -0.3932  0.4411
10847W        W26741  16.424   7.521   4.631 -0.1668  0.0860  0.1831
10848W        W26742   7.237  16.453   5.917  0.0913  0.2686 -0.0494
10849W        W26743   7.697   7.913   5.478  0.0667  0.0316  0.3225
10850W        W26744   8.058   7.153   0.142 -0.2154 -0.2056  0.3398
10851W        W26745  16.540   7.978  16.183  0.0387 -0.2973 -0.0681
10852W        W26746   2.227  16.067  11.741  0.0399  0.0422  0.0704
10853W        W26747   9.727   2.770  15.656  0.1971 -0.1384  0.0843
10854W        W26748   8.632   7.948   5.542  0.0561  0.0725 -0.1109
10855W        W26749  15.638  10.466   0.215  0.2546  0.1552 -0.4720
10856W        W26750   2.608  11.639  15.481  0.0968  0.1982 -0.1919
10857W        W26751   5.293  12.332   3.143  0.2685 -0.1054  0.1604
10858W        W26752  10.825  14.379  16.134  0.2808  0.1805 -0.0477
10859W        W26753  10.784  13.012   5.768  0.1246  0.1506  0.2365
10860W        W26754   6.604   2.660   1.913  0.3868 -0.1092 -0.0781
10861W        W26755   9.035   6.293   5.573  0.0829  0.3593 -0.1382
10862W        W26756   5.067  16.971   1.353  0.0034 -0.6152 -0.0570
10863W        W26757   0.546   2.346  15.553  0.0268 -0.1849 -0.0440
10864W        W26758  17.564   9.485   3.947  0.0258  0.1986 -0.0283
10865W        W26759  14.348   7.132   0.389 -0.0935  0.1668  0.0961
10866W        W26760   9.559  15.840   3.151 -0.0674 -0.0050 -0.2270
10867W        W26761   8.763   5.671   3.526  0.0409  0.0409  0.1801
10868W        W26762   9.295  13.360   2.101  0.2322  0.0616  0.0572
10869W        W26763  16.404  16.658   2.856  0.0871 -0.2962  0.0401
10870W        W26764   5.805  10.350   1.371  0.0737  0.1962 -0.4588
10871W        W26765   0.138   2.234  11.658 -0.2177  0.0117 -0.1173
10872W        W26766  12.636   3.550   2.273  0.5180  0.1243 -0.2216
10873W        W26767   9.000   6.602   2.021  0.1773 -0.1412 -0.1868
10874W        W26768  12.442  16.151  16.239 -0.1432  0.3062 -0.0554
10875W        W26769   8.251  15.201  13.870 -0.0086 -0.0989 -0.0132
10876W        W26770   1.308   7.210   5.692  0.1224  0.1412 -0.0104
10877W        W26771  15.445  13.016  16.222 -0.2430  0.0077 -0.1212
10878W        W26772  17.685   0.994   0.393 -0.1963  0.1510  0.0592
10879W        W26773   6.683  17.474  13.073  0.3399  0.1498  0.0739
10880W        W26774  17.043   8.998   1.468 -0.1284 -0.5126  0.0938
10881W        W26775   6.440   8.454   0.281 -0.2186 -0.2497  0.0036
10882W        W26776   9.201   9.375   1.882  0.0637  0.0863 -0.0575
10883W        W26777  10.963   8.990   3.842 -0.4217 -0.0533 -0.0054
10884W        W26778  11.911  16.578  12.186 -0.2217 -0.0648  0.0386
10885W        W26779   0.946   1.098   1.442 -0.2843  0.1158  0.2500
10886W        W26780   3.650  13.501   3.296  0.0698 -0.0426 -0.2140
10887W        W26781   1.080   7.826   6.548 -0.2508  0.2955  0.1946
10888W        W26782   2.751  14.696  14.722  0.1448  0.0454 -0.1598
10889W        W26783  13.203  11.230  14.167  0.2537 -0.1288  0.0282
10890W        W26784   4.680   9.837   5.471 -0.2301 -0.2342 -0.2128
10891W        W26785  11.784  15.704   3.424 -0.1081 -0.0713  0.0221
10892W        W26786   1.902  11.400   4.100 -0.0480  0.3509  0.0695
10893W        W26787   9.188  12.870   3.961  0.1176 -0.2457 -0.0977
10894W        W26788   1.454   3.961   1.953 -0.2809  0.1633 -0.0716
10895W        W26789  14.478   5.865   3.388  0.1444 -0.1394 -0.2416
10896W        W26790  13.568   9.991   1.785  0.2909 -0.1474  0.0257
10897W        W26791  10.961   0.966   4.708 -0.3397 -0.1114 -0.1716
10898W        W26792  13.269   3.866  15.819 -0.1826  0.2111 -0.1180
10899W        W26793  11.315  16.971   1.823  0.0336  0.1351  0.0476
10900W        W26794  11.220   9.061  15.420  0.2489 -0.4019 -0.0040
10901W        W26795   7.115   0.624   3.755 -0.1107  0.0965 -0.0388
10902W        W26796   6.251  13.434  15.977  0.1359  0.1809  0.4310
10903W        W26797   2.156  11.925  13.121 -0.1918 -0.1221  0.2567
10904W        W26798  13.476   1.655  15.195 -0.2706 -0.1376  0.0376
10905W        W26799   4.854  10.266   5.629 -0.1817  0.2597 -0.0098
10906W        W26800   3.844   4.715   1.701 -0.0447  0.0682  0.0750
10907W        W26801  11.126   4.465   0.406  0.0231 -0.1138 -0.0314
10908W        W26802  14.999   4.455  16.753 -0.1373 -0.0627  0.2025
10909W        W26803   8.312  14.055   5.142  0.0991 -0.2317  0.2884
10910W        W26804  10.952   8.063  16.538  0.2753  0.0514  0.0402
10911W        W26805  10.636  13.665  13.834 -0.3203  0.1785  0.4405
10912W        W26806   1.261   1.279  14.283 -0.0247 -0.0615  0.0585
10913W        W26807  12.980   3.964  12.348  0.1104  0.2144  0.1365
10914W        W26808   2.040   9.753  12.386 -0.0320  0.4016  0.2301
10915W        W26809   7.642  12.326  13.163 -0.0096  0.2692 -0.1772
10916W        W26810  16.705   9.547  15.476  0.0615 -0.2925  0.3297
10917W        W26811  14.846   5.670   2.305  0.4321 -0.1793  0.2184
10918W        W26812   4.687  17.144   4.690  0.1212 -0.1738 -0.0627
10919W        W26813   9.815   3.218  14.330 -0.2089 -0.0538 -0.3858
10920W        W26814   7.034   6.060   1.257  0.0704  0.1395 -0.0046
10921W        W26815   0.076  15.439   2.540 -0.1519  0.0233 -0.2190
10922W        W26816  14.217   3.247  12.349  0.2227  0.1761  0.1377
10923W        W26817  10.509   9.739  15.017 -0.4048  0.4552 -0.0860
10924W        W26818  11.606  17.781  14.231  0.0609 -0.0517 -0.1754
10925W        W26819   2.360  12.898   4.283 -0.1107 -0.0765 -0.2530
10926W        W26820  15.050   5.028   2.468  0.1680 -0.1080 -0.1689
10927W        W26821   2.168  10.905   4.274 -0.0597 -0.1938  0.1768
10928W        W26822   1.071  16.425  13.907  0.2362 -0.0932  0.0298
10929W        W26823  14.938  15.454  12.683  0.4066  0.0142  0.0020
10930W        W26824   3.482   3.239   3.280 -0.0463  0.2248 -0.0175
10931W        W26825  11.138  10.730  16.066  0.2209  0.0320 -0.0359
10932W        W26826   7.374   0.559  12.130  0.0944  0.0189 -0.0425
10933W        W26827  10.841   5.775   4.255 -0.2168  0.0055 -0.1185
10934W        W26828   1.477   3.237  14.751 -0.0069 -0.0097 -0.2991
10935W        W26829   3.547  16.110  12.494  0.1671 -0.2019  0.0852
10936W        W26830  13.191   4.647   3.210 -0.3963 -0.2633  0.1520
10937W        W26831  16.204  16.510   3.706  0.1886  0.1513 -0.0927
10938W        W26832  14.938   9.978  14.608 -0.1887 -0.2200  0.1716
10939W        W26833   4.854  16.491   2.576  0.0913  0.0230 -0.4272
10940W        W26834   6.983  10.667   2.212  0.0323 -0.1557  0.2678
10941W        W26835   8.596  10.338   0.382 -0.0385 -0.0229 -0.2195
10942W        W26836  16.199  13.840  15.213 -0.4130  0.1127 -0.1952
10943W        W26837   5.001   3.478  12.073  0.5578 -0.1781  0.2654
10944W        W26838   7.083  11.849   2.230 -0.2044 -0.1960  0.0555
10945W        W26839   3.849   2.918  16.523  0.0761  0.2968 -0.2139
10946W        W26840   6.870   1.762  15.493 -0.2919 -0.1587 -0.1711
10947W        W26841   1.571  12.848  15.860  0.0092 -0.3119  0.1710
10948W        W26842   8.155   5.667   2.821 -0.0044  0.1968  0.2281
10949W        W26843   6.972   1.215   0.542 -0.0238 -0.0765 -0.0748
10950W        W26844   6.025  10.935   0.224 -0.3623  0.0754  0.2012
10951W        W26845  10.092   8.984  15.955  0.1129  0.0535 -0.0202
10952W        W26846   1.928   0.488  11.786  0.1678  0.3656 -0.3022
10953W        W26847   6.121  12.199   3.592 -0.2222 -0.4162 -0.1523
10954W        W26848   5.656  10.075  14.079 -0.0135 -0.0464  0.1270
10955W        W26849   7.640   8.522  16.804  0.2363 -0.2561  0.0368
10956W        W26850   6.356  12.162   1.044  0.1989  0.3226  0.0275
10957W        W26851  15.768   3.110   3.852 -0.1098  0.1028 -0.0166
10958W        W26852   2.375   6.637  14.473  0.1465  0.0055 -0.1414
10959W        W26853   4.921   8.990  14.484 -0.0647 -0.2832 -0.2745
10960W        W26854   7.729   3.647  13.368  0.2075 -0.0808  0.1210
10961W        W26855   1.098   8.945  12.951 -0.1388  0.1456  0.1088
10962W        W26856   1.065  17.430   0.732 -0.1104  0.0435  0.2099
10963W        W26857  11.591  13.443  15.195 -0.2805  0.0972  0.1405
10964W        W26858  17.314   9.189   0.481  0.0777  0.0443 -0.0905
10965W        W26859   8.980   4.261  13.962  0.3231  0.0061 -0.0801
10966W        W26860   0.586  10.661  15.978  0.2919 -0.2294  0.0260
10967W        W26861  13.078   9.858   1.678 -0.1317 -0.2775 -0.0608
10968W        W26862  12.388  10.309  12.191 -0.6074 -0.1429 -0.0471
10969W        W26863  11.612   0.549   1.985  0.1665  0.0813  0.1978
10970W        W26864   1.776  12.768  15.434  0.1985  0.2265  0.3037
10971W        W26865  12.841  15.853  14.063  0.1462 -0.0957  0.1168
10972W        W26866  16.991   4.465  16.893  0.1563 -0.0052 -0.1220
10973W        W26867   1.022  12.043   1.703  0.0455 -0.0405 -0.3748
10974W        W26868  14.496   7.902  12.826 -0.0029 -0.0247 -0.0769
10975W        W26869   2.289   0.002  11.238  0.1637  0.1204 -0.1430
10976W        W26870   7.627   6.332  15.031 -0.0154  0.0587 -0.1275
10977W        W26871  11.552  15.108  12.389 -0.1553  0.1589  0.1826
10978W        W26872   0.617   2.764  15.907 -0.1311 -0.0344  0.1524
10979W        W26873  12.051  14.673  14.643  0.1001 -0.1289  0.1114
10980W        W26874   0.280   3.599   4.111 -0.0275 -0.2678 -0.1321
10981W        W26875   4.620   1.836   5.204  0.0935  0.3020  0.1180
10982W        W26876   6.271  13.290   1.945  0.2374  0.3300  0.0245
10983W        W26877  11.336  11.833  13.328  0.0506 -0.1574 -0.0243
10984W        W26878  15.923   2.423  13.596  0.0482 -0.2678 -0.1890
10985W        W26879   0.536  13.462   0.082 -0.4307  0.2353  0.0006
10986W        W26880  15.291   8.271   3.845 -0.0075 -0.1699  0.2428
10987W        W26881  11.557   5.689  11.799  0.0442  0.0653 -0.3974
10988W        W26882  10.190  10.970  14.490  0.2750 -0.2082 -0.0375
10989W        W26883   2.596  14.281   1.581 -0.0038 -0.3177  0.0626
10990W        W26884  14.955   0.606  15.238 -0.0342 -0.0754 -0.1167
10991W        W26885   5.171   9.712  14.935  0.4381 -0.3261 -0.2351
10992W        W26886   7.615  17.475   5.503 -0.1381  0.1388  0.0225
10993W        W26887   7.889   1.842  14.602 -0.0855  0.0845  0.1369
10994W        W26888   1.791  17.391   1.316 -0.1155 -0.1371 -0.1496
10995W        W26889   9.320   1.413  16.531 -0.1094  0.0016 -0.1727
10996W        W26890   4.739  13.517   1.664  0.1446 -0.0007  0.0295
10997W        W26891   1.981   9.550  16.056  0.0930  0.1847  0.0375
10998W        W26892  10.695  15.932  13.841 -0.0755 -0.0668  0.0759
10999W        W26893  16.650   3.228  11.411  0.2247 -0.0802 -0.0603
11000W        W26894   8.269  13.267   3.279  0.0303  0.0479 -0.0184
11001W        W26895   6.410   3.448  11.784  0.1297  0.1173 -0.2648
11002W        W26896  13.429  15.060  14.989  0.2248 -0.3141 -0.1113
11003W        W26897  16.080  15.714  14.903 -0.2509  0.4609 -0.1181
11004W        W26898   1.197   1.076   2.296 -0.0316 -0.0743 -0.0034
11005W        W26899   3.794   7.312  15.940  0.0809  0.1545 -0.1547
11006W        W26900   3.972   4.572   2.246 -0.1578  0.3380 -0.1343
11007W        W26901  11.066  17.249  14.838 -0.0854 -0.1432  0.1186
11008W        W26902   8.026   3.551  14.154  0.0391 -0.3186  0.3650
11009W        W26903   5.846  10.749  13.822  0.2413  0.1982 -0.1656
11010W        W26904   1.220  13.426  14.504 -0.0398 -0.1781 -0.0728
11011W        W26905   1.133   0.503   4.043  0.3507  0.0450  0.0668
11012W        W26906   8.821   2.659   4.973  0.2524 -0.0394 -0.3149
11013W        W26907  16.816  11.714   4.151 -0.1856 -0.0731  0.1785
11014W        W26908   3.871   1.971  13.432 -0.1557 -0.0570 -0.0449
11015W        W26909  15.111   9.826   2.857  0.0661  0.1127 -0.0517
11016W        W26910   7.335  11.941  11.913 -0.1359 -0.1730  0.1462
11017W        W26911   9.565  10.463  12.577 -0.0781 -0.0287 -0.0659
11018W        W26912   1.283   3.718   4.683  0.0772  0.0052 -0.0111
11019W        W26913  16.335   1.815  16.179  0.1671  0.0369  0.0369
11020W        W26914  17.656   8.815   0.636 -0.2541  0.2429  0.0208
11021W        W26915   2.153   4.072  13.952 -0.0874  0.1173 -0.2380
11022W        W26916   2.926  13.557   1.260 -0.1847 -0.0326  0.0556
11023W        W26917  11.429  11.819   0.602 -0.1096  0.0608 -0.3260
11024W        W26918  16.948   4.935   0.712  0.1457 -0.0863 -0.1669
11025W        W26919   8.911  13.367  14.184  0.0918 -0.1220 -0.1193
11026W        W26920   0.500   4.154  13.919  0.1071  0.1609 -0.0828
11027W        W26921   7.458  10.671   2.849 -0.3775 -0.1769  0.0463
11028W        W26922   4.640  15.045   1.937  0.0511 -0.0111 -0.2967
11029W        W26923  17.723  16.413   0.561 -0.0209 -0.0653 -0.0783
11030W        W26924  16.858   8.924   0.686  0.1380  0.0167  0.0269
11031W        W26925   7.580  13.588  12.989  0.2893  0.0815  0.1384
11032W        W26926  17.725  14.473  11.482  0.2685 -0.1013  0.2037
11033W        W26927   4.478  13.639  13.959  0.2621 -0.2192 -0.0176
11034W        W26928   8.389   8.834   5.215  0.1348 -0.0768  0.2432
11035W        W26929  15.523   6.446   1.559  0.2254  0.0031 -0.1594
11036W        W26930  15.907  15.762  13.914 -0.0341  0.1604  0.1289
11037W        W26931  15.441   1.503   5.967 -0.0399 -0.3585 -0.1810
11038W        W26932   3.400   9.262   5.215  0.2115 -0.1026  0.1602
11039W        W26933   9.980  15.291   5.127  0.0321 -0.3001  0.2944
11040W        W26934  17.332   0.363   6.112 -0.0711 -0.0832 -0.0757
11041W        W26935  11.483   8.964   2.647  0.1564 -0.0571  0.0604
11042W        W26936   1.063   9.807   5.643  0.2116 -0.1911 -0.0231
11043W        W26937   8.853  17.653   5.179 -0.2008 -0.0354  0.1490
11044W        W26938   3.671  12.155   2.709  0.0766  0.2597  0.1325
11045W        W26939  14.137   0.374  12.086 -0.0921  0.0044 -0.0384
11046W        W26940   7.175   1.599   2.956 -0.0367 -0.2224 -0.1185
11047W        W26941   5.795   2.116   0.650  0.0512  0.1893  0.2727
11048W        W26942  13.883  17.835   0.526 -0.2213  0.1024 -0.2956
11049W        W26943   8.428  13.792  16.477  0.0618 -0.1519  0.0535
11050W        W26944  16.993  14.243  15.539 -0.2191 -0.0562 -0.0236
11051W        W26945  14.392   8.087  16.443  0.0051 -0.1182  0.0208
11052W        W26946   8.144  16.221  13.759  0.0695  0.1168 -0.4264
11053W        W26947  15.686  13.795  12.900 -0.2512  0.2911 -0.2546
11054W        W26948  13.981   2.588  13.743  0.1373  0.0145  0.0364
11055W        W26949  10.549   0.180   3.783  0.2614  0.0041 -0.0365
11056W        W26950   6.992   3.766   3.336 -0.0253 -0.3362 -0.1195
11057W        W26951   2.696  15.767  12.683  0.0512  0.2608 -0.0183
11058W        W26952   2.290  14.087  12.132  0.2550  0.2168 -0.0430
11059W        W26953   1.554   8.804   0.880 -0.2471 -0.1231 -0.2055
11060W        W26954   6.395  16.643   2.564  0.0711  0.3460  0.1401
11061W        W26955   4.780  13.297  14.270 -0.3195 -0.2674 -0.1055
11062W        W26956   3.999   3.265  12.927 -0.1067  0.1070 -0.1553
11063W        W26957   8.863   6.415   1.426  0.1783  0.3002  0.2541
11064W        W26958   3.214  12.719  13.083 -0.0064  0.1287  0.2658
11065W        W26959   2.628   9.533   5.669  0.0522 -0.1145 -0.3880
11066W        W26960   0.496  14.997   4.887 -0.0530  0.0340  0.1424
11067W        W26961   7.596   9.773   4.174 -0.0178  0.0209  0.1394
11068W        W26962  10.517   9.063  15.318  0.1686  0.0686  0.0110
11069W        W26963  17.626  17.226   6.546  0.0155 -0.3144  0.1828
11070W        W26964  12.879   5.902  15.737  0.2581  0.0947 -0.2468
11071W        W26965  11.831   4.566   0.556  0.0905  0.2339 -0.3560
11072W        W26966   9.501   8.051   5.923 -0.1009 -0.0561  0.0867
11073W        W26967   8.073   0.959   2.199  0.2893  0.1603 -0.2907
11074W        W26968   1.936   3.192  12.856  0.2546 -0.0407 -0.2720
11075W        W26969   7.135  11.488  10.692 -0.1363  0.0349 -0.3191
11076W        W26970  10.397  11.694  15.603 -0.0577 -0.1034  0.0888
11077W        W26971   8.278  11.038   3.326 -0.0540  0.0725  0.1762
11078W        W26972   9.107   3.709   2.725  0.3093 -0.0109 -0.0869
11079W        W26973   6.844   9.722  16.519 -0.3826 -0.2554 -0.1858
11080W        W26974   8.027   1.811  11.640 -0.0838  0.1850  0.1752
11081W        W26975   6.340   4.213  14.179  0.3221 -0.0652 -0.0795
11082W        W26976  17.128   4.559   2.603 -0.2049  0.0081 -0.0428
11083W        W26977  11.154   8.556   2.862  0.1892  0.0077  0.1089
11084W        W26978   9.229   2.626   2.743 -0.0166  0.0654  0.0827
11085W        W26979   6.683   9.980   1.191 -0.2451 -0.0426  0.0978
11086W        W26980  13.797   7.827  13.577  0.0529  0.1400  0.0310
11087W        W26981   3.057   6.076   2.410  0.0255  0.2166 -0.1121
11088W        W26982  13.695   0.562   3.488 -0.0036  0.0894 -0.1045
11089W        W26983  14.383  16.980  15.909  0.3672 -0.0035  0.0469
11090W        W26984   7.088   9.274  13.508 -0.4839 -0.1626 -0.1689
11091W        W26985   5.507   7.908  12.340 -0.1970 -0.1669  0.0101
11092W        W26986  12.545  16.299  15.776  0.1842 -0.0404 -0.0288
11093W        W26987   9.776   0.407   2.044  0.2220  0.0636 -0.1930
11094W        W26988   4.712   1.665  12.030  0.2548  0.0724  0.2250
11095W        W26989   8.941   8.346  15.086 -0.4649  0.1044 -0.0698
11096W        W26990   8.081   2.960  14.049  0.1408  0.0258 -0.0313
11097W        W26991  14.260   1.294   0.346 -0.2174 -0.1710  0.0143
11098W        W26992   7.288   5.176  14.311 -0.0122 -0.0714  0.2196
11099W        W26993   7.840  14.799  12.217  0.1126  0.0089  0.1135
11100W        W26994  15.056   1.678   1.796  0.2100  0.1855 -0.0092
11101W        W26995  17.506   0.557   3.571  0.1005 -0.0533 -0.4260
11102W        W26996   5.203   5.471  13.265  0.0666 -0.1934 -0.0475
11103W        W26997   0.277  13.852  14.303 -0.0627 -0.2669 -0.2582
11104W        W26998   3.635  10.925   4.136  0.1538 -0.0202 -0.1357
11105W        W26999   1.264  13.048   2.150  0.0102  0.0351  0.0549
11106W        W27000   1.806  11.477  11.693 -0.0384 -0.0932 -0.1583
11107W        W27001   6.868   6.385   0.602 -0.1006  0.1912  0.2865
11108W        W27002   8.819   7.708   1.268 -0.1336  0.3336  0.0470
11109W        W27003   6.887  11.579   4.487 -0.0149 -0.0652  0.3674
11110W        W27004   7.945  15.699   0.206 -0.0985 -0.2232 -0.0981
11111W        W27005  11.915   8.741   2.538  0.3125 -0.3060 -0.0855
11112W        W27006   2.322  17.138  15.206  0.0579  0.4289  0.0769
11113W        W27007  11.439   1.725   3.626  0.3640  0.0037  0.4602
11114W        W27008  15.143   1.028   3.622 -0.0938 -0.1700  0.1507
11115W        W27009   9.585  16.888   4.174 -0.1954 -0.0314  0.0397
11116W        W27010   7.217   5.118  12.291 -0.1049 -0.0925 -0.0006
11117W        W27011  16.722  12.160   3.046  0.1388 -0.3614  0.2089
11118W        W27012   7.296  10.464  14.885  0.1590  0.2471 -0.1149
11119W        W27013  16.585   8.208  15.741 -0.0318 -0.2409  0.1419
11120W        W27014   7.148   6.540   6.083  0.0946  0.1306  0.1517
11121W        W27015   7.786  12.998  15.709  0.1308  0.0681  0.1532
11122W        W27016  12.605   0.771  14.786 -0.0209  0.4094  0.0031
11123W        W27017   9.829   9.159  13.744 -0.0869  0.0211 -0.1496
11124W        W27018   2.554   5.122  13.293  0.1362  0.1317  0.1681
11125W        W27019   9.497  14.722   2.232 -0.2532  0.2058 -0.2268
11126W        W27020   5.128   9.654   1.706 -0.1354  0.2485  0.1796
11127W        W27021  17.814   8.536   5.872  0.0817 -0.1997 -0.0366
11128W        W27022  17.067   7.735   3.513  0.1030  0.3003 -0.1081
11129W        W27023  10.551   2.183  11.534  0.2071  0.2273 -0.1123
11130W        W27024   6.389  10.546  13.458  0.2324 -0.0888  0.0182
11131W        W27025  10.556   9.424  14.612  0.1951 -0.1231 -0.2428
11132W        W27026  12.566  15.120  16.363  0.0089  0.1249  0.0896
11133W        W27027  17.686  13.974  11.422 -0.1017  0.0851  0.0761
11134W        W27028   7.768  12.749   4.796 -0.0639 -0.0076 -0.1266
11135W        W27029  13.954  10.004  14.461  0.0252  0.1711  0.0511
11136W        W27030   7.332   2.729  14.441  0.1898 -0.2328  0.0996
11137W        W27031  17.790  10.010  14.990 -0.2540 -0.1099 -0.0941
11138W        W27032   0.676   3.636  13.328  0.0558 -0.1803 -0.2521
11139W        W27033  14.185  15.101   5.224  0.1725 -0.0289  0.0656
11140W        W27034  12.362   2.160  12.916  0.2679 -0.1320  0.0083
11141W        W27035  11.794   0.170  11.698 -0.0470  0.1446  0.3573
11142W        W27036   8.179   8.127   5.740 -0.1484  0.3247 -0.1794
11143W        W27037  11.459   0.286  14.661 -0.2026  0.2131  0.1320
11144W        W27038   5.274  15.035  12.846 -0.0515  0.2023  0.0050
11145W        W27039  11.531  10.012  14.266  0.0624 -0.2424  0.1586
11146W        W27040  15.138   2.405   2.945  0.1039  0.2394 -0.0200
11147W        W27041  17.795   6.786   5.708  0.0354 -0.2951  0.1284
11148W        W27042   1.266  17.392  12.457  0.1009 -0.0354  0.1720
11149W        W27043  11.456  10.654   0.724  0.1600 -0.2406  0.0147
11150W        W27044   4.364  10.266   5.395  0.1411  0.0169 -0.1597
11151W        W27045  13.723  15.265   5.272  0.0316 -0.1437 -0.1644
11152W        W27046  12.263   2.016  14.368 -0.1488 -0.2079 -0.5183
11153W        W27047   4.322   1.520  16.225  0.1795  0.1126 -0.1719
11154W        W27048   5.828   0.230   4.488  0.1517  0.0174  0.0171
11155W        W27049  13.075  13.261   3.435 -0.1025  0.0986  0.1215
11156W        W27050  17.477  15.062   1.100  0.0722 -0.2210 -0.1821
11157W        W27051   4.403  12.944  13.443  0.0191 -0.0647 -0.0536
11158W        W27052  10.738   7.507   1.918 -0.2209 -0.0007 -0.0281
11159W        W27053   2.050   8.693   2.713 -0.0872  0.0287 -0.1037
11160W        W27054   9.800   3.277  13.473 -0.1368 -0.0098  0.3789
11161W        W27055  16.514   9.988  12.291 -0.1505 -0.0184 -0.2003
11162W        W27056  15.163  16.673  16.511  0.1956 -0.1273  0.0820
11163W        W27057  13.337   3.284   0.770 -0.1221 -0.1759 -0.2576
11164W        W27058   7.380   2.813   3.979  0.0014 -0.2686  0.1120
11165W        W27059  17.851   2.722  10.419  0.2259 -0.0363  0.1869
11166W        W27060  13.826   6.911  16.699 -0.0083  0.0402 -0.2700
11167W        W27061   4.875   2.780   0.493 -0.4691 -0.3096  0.0822
11168W        W27062   1.019   7.995   2.780 -0.1531 -0.0876 -0.0867
11169W        W27063  14.712  11.399  16.078  0.0384 -0.0112 -0.0345
11170W        W27064   8.570   6.356   1.984  0.2317 -0.0597  0.0649
11171W        W27065   0.230  12.419   2.385  0.1811 -0.3029 -0.2087
11172W        W27066   8.845   2.850   3.537  0.1040 -0.1324  0.0407
11173W        W27067  12.200   2.332  15.814  0.1185 -0.2354 -0.1983
11174W        W27068  11.791  13.577  14.610 -0.2639 -0.3240 -0.0995
11175W        W27069   6.685  13.795   1.108  0.0062  0.0601 -0.1015
11176W        W27070  14.917  12.749  14.931 -0.1202 -0.2316  0.0886
11177W        W27071  11.205   3.214   2.388 -0.2650  0.4050  0.0988
11178W        W27072   8.724   4.258  13.433  0.2247  0.1551  0.0349
11179W        W27073  16.625  17.294   6.104 -0.3707  0.0543  0.0237
11180W        W27074  17.417   4.175   5.208 -0.0336 -0.2063  0.1844
11181W        W27075   1.598  16.209   0.399 -0.1184 -0.1300  0.1211
11182W        W27076  12.162   4.217  12.741  0.0456  0.2432  0.1166
11183W        W27077  12.891  17.100   4.238  0.2095 -0.1077  0.0545
11184W        W27078   1.767   9.340   0.036  0.0393  0.0466 -0.1427
11185W        W27079   4.177  12.354   2.986  0.0529  0.1584 -0.1203
11186W        W27080   7.246  12.939   5.589  0.0788 -0.3184 -0.2308
11187W        W27081   5.696  16.518  16.580 -0.4455 -0.1515  0.3536
11188W        W27082   8.113   4.084  11.742 -0.1201 -0.3123  0.0517
11189W        W27083   2.455   7.796   4.054  0.0431  0.0813  0.1269
11190W        W27084   4.733  16.671  12.550 -0.1514  0.2233  0.0636
11191W        W27085  15.202  14.424  14.097 -0.2076  0.0422 -0.1601
11192W        W27086   6.406  14.417  16.691 -0.1071  0.1660  0.0430
11193W        W27087  11.209   7.144   0.406  0.1163 -0.1081 -0.1441
11194W        W27088   4.580   3.631  15.295  0.0719  0.1232 -0.0111
11195W        W27089   8.297   3.591  11.938 -0.0424  0.0228  0.3799
11196W        W27090   4.531   0.651   4.536  0.1426  0.1562  0.1777
11197W        W27091  10.678   1.413  13.754 -0.4231  0.0955  0.2132
11198W        W27092   4.568   6.504   4.403  0.0141  0.1960  0.0535
11199W        W27093  16.308  11.174   4.825 -0.2368 -0.0632 -0.2046
11200W        W27094  10.888  16.196  15.664  0.1329  0.2067 -0.1282
11201W        W27095   4.351   2.970  16.145  0.0322 -0.0453 -0.3713
11202W        W27096   9.720  14.356   3.205 -0.0337 -0.0206  0.0731
11203W        W27097   5.960  17.632   3.398 -0.2016  0.1985 -0.1237
11204W        W27098  13.532  17.087   0.887 -0.1190 -0.1817 -0.2383
11205W        W27099   9.193   9.803  11.540  0.1392  0.0896  0.1991
11206W        W27100  11.609   4.431   2.060  0.0800  0.0087  0.0423
11207W        W27101  14.930  15.100  11.487 -0.2491 -0.0781 -0.1690
11208W        W27102   0.267   3.426   0.003 -0.1738  0.1736  0.0014
11209W        W27103   5.853   4.530  14.898 -0.3277  0.3333  0.2969
11210W        W27104  10.082   7.580   3.271  0.0262  0.0257 -0.0210
11211W        W27105  15.939  15.203   2.041 -0.2841  0.2001  0.0353
11212W        W27106  14.910   6.448  12.759 -0.0304  0.0310 -0.1219
11213W        W27107   7.360  16.611  14.428  0.0510 -0.0191 -0.0505
11214W        W27108  17.551   1.085  13.617  0.2055 -0.1814 -0.3812
11215W        W27109   4.648  16.569  15.607 -0.3734 -0.3034 -0.1721
11216W        W27110  15.561  10.987  11.617 -0.0424  0.0916  0.0359
11217W        W27111   1.425  16.390  12.202 -0.1060 -0.0980  0.0704
11218W        W27112  13.846  10.158  12.290 -0.0972 -0.1319  0.1887
11219W        W27113   7.511   5.989  14.666 -0.1214 -0.1802 -0.3775
11220W        W27114   2.680   0.374  14.046  0.0963 -0.0886 -0.0403
11221W        W27115  14.761  13.367   1.995 -0.1013  0.1891  0.0596
11222W        W27116  10.449   1.920   3.771 -0.0031 -0.1056  0.0284
11223W        W27117   3.946  10.958  16.372 -0.0090 -0.1264  0.1685
11224W        W27118   4.604  12.048  16.204 -0.1713 -0.0007 -0.0839
11225W        W27119   0.645  13.208  16.183  0.1822  0.0898  0.0741
11226W        W27120  12.713  10.680  15.139  0.1953 -0.0420 -0.3954
11227W        W27121   4.037   9.988   3.584  0.0381  0.0604  0.1718
11228W        W27122   9.262   7.330   1.442  0.1292  0.3643  0.1574
11229W        W27123   8.505  14.207   5.619  0.1682  0.0189 -0.2404
11230W        W27124   5.485  13.826  11.395  0.0211 -0.3267 -0.0641
11231W        W27125  12.212  17.499  13.955 -0.2258  0.2829  0.5521
11232W        W27126   6.719   1.033  12.819  0.0102  0.0312 -0.1222
11233W        W27127   5.289   0.628   1.787 -0.0215  0.1837 -0.2459
11234W        W27128  12.652  14.590  14.845  0.3179  0.1533  0.0668
11235W        W27129   2.985   2.458   3.070 -0.0155 -0.0687  0.0965
11236W        W27130   7.371   0.435  14.837 -0.0751  0.0839  0.3628
11237W        W27131  15.332  12.593  13.873 -0.0182  0.4230 -0.4391
11238W        W27132   6.074   2.621  13.101  0.0649  0.1630 -0.4931
11239W        W27133   1.406  15.119  13.410 -0.0768 -0.3127  0.2460
11240W        W27134   0.341   0.574  11.460 -0.1471  0.1046  0.1903
11241W        W27135   6.945  13.667   3.447 -0.4145  0.0267 -0.1270
11242W        W27136  15.369   2.794  11.339 -0.1683  0.3108 -0.2927
11243W        W27137  15.401  12.608  12.569 -0.2769 -0.0304 -0.3233
11244W        W27138  14.981   0.500   5.595 -0.1320 -0.2380  0.0025
11245W        W27139   5.080  15.102   3.806  0.1105 -0.1042 -0.2872
11246W        W27140  15.152   4.070   1.586 -0.2284  0.0505  0.0832
11247W        W27141  13.981   8.378   4.879  0.1600  0.2073  0.0310
11248W        W27142   0.764   0.916   1.927  0.2276 -0.0469  0.0371
11249W        W27143   8.848   6.074  14.287  0.1137  0.2186  0.2031
11250W        W27144  11.838   2.394   1.969 -0.3664 -0.0649 -0.2894
11251W        W27145  17.064  17.224   5.319 -0.0325 -0.0698 -0.1225
11252W        W27146  17.228   0.601  13.936 -0.1105  0.0736 -0.0431
11253W        W27147   6.046  15.870   4.604  0.1990 -0.0077  0.1007
11254W        W27148  14.656  17.399  15.783  0.0935  0.2085 -0.0455
11255W        W27149  17.246  11.334   5.830 -0.0872 -0.1365  0.2058
11256W        W27150  12.105  14.364   1.198  0.1113 -0.2975  0.0086
11257W        W27151  12.377  11.696   6.049 -0.0616  0.0771 -0.2678
11258W        W27152  16.084   8.034   0.130 -0.0235  0.0654 -0.4697
11259W        W27153   9.140   5.020   2.948 -0.2281  0.0683  0.0065
11260W        W27154   4.108   3.130  11.526 -0.7177  0.0442 -0.1582
11261W        W27155  14.055   2.803  13.236 -0.1809  0.1555 -0.0416
11262W        W27156   8.701  16.365   3.780 -0.1035 -0.0043 -0.0728
11263W        W27157  15.627  15.293  16.586  0.1533 -0.1931  0.1765
11264W        W27158   1.035  15.041   4.145 -0.0597  0.1544 -0.0656
11265W        W27159   0.915   6.738  14.120  0.1083  0.0206 -0.3121
11266W        W27160   3.834   5.773   6.168  0.0964 -0.2032  0.0515
11267W        W27161  17.233   4.845   4.842  0.1744 -0.2614  0.3174
11268W        W27162  12.055  10.006   0.764 -0.1032  0.1846  0.0102
11269W        W27163   5.355   3.830  15.028  0.0795  0.1160  0.0503
11270W        W27164   3.745   2.056   3.664 -0.0536 -0.0118  0.3392
11271W        W27165  15.746   9.866  15.331 -0.2666  0.0270  0.2326
11272W        W27166  10.318   1.571   1.087  0.1433  0.0307  0.0273
11273W        W27167   7.372  15.160   5.874  0.0825 -0.0853  0.1118
11274W        W27168   8.694   4.531   0.679  0.2630 -0.2027  0.1809
11275W        W27169  15.895  14.563  11.968 -0.0666 -0.0929  0.1003
11276W        W27170   1.206   0.937   5.785 -0.0073  0.2891  0.0119
11277W        W27171  12.598   9.443  14.083  0.1242  0.1766 -0.0545
11278W        W27172   4.869   9.125  15.498 -0.0928 -0.1931 -0.2426
11279W        W27173  15.541   9.207  16.555 -0.1296  0.1722  0.1281
11280W        W27174   3.644  14.676  11.986  0.1146  0.0372 -0.1017
11281W        W27175   5.100  14.512   1.139 -0.0537 -0.2548 -0.0918
11282W        W27176  16.499   1.781   1.351 -0.0588  0.0626 -0.0215
11283W        W27177   9.668   9.911  15.692  0.1445  0.0069  0.0942
11284W        W27178  10.315   0.874  16.573 -0.0566  0.0005  0.0628
11285W        W27179   5.946  11.192  13.939 -0.1921 -0.3563 -0.0564
11286W        W27180  14.730  17.630  14.397  0.1645 -0.1482  0.1334
11287W        W27181   6.032   9.737  11.769 -0.2281  0.0998  0.1994
11288W        W27182   1.006  16.952   0.173  0.1456 -0.1071  0.0818
11289W        W27183   1.393   1.624   4.330 -0.1064  0.2106 -0.0363
11290W        W27184   4.656   9.689  15.953 -0.0745  0.0836 -0.2614
11291W        W27185   5.054   2.745  13.297 -0.2049 -0.0462  0.0927
11292W        W27186  12.313  14.357  12.712 -0.1629 -0.1090  0.0507
11293W        W27187   3.230   1.077   4.855 -0.3494  0.1788  0.1627
11294W        W27188   9.324   7.299  14.350  0.1049  0.0664 -0.0398
11295W        W27189   7.708  15.833  12.669  0.2692  0.1595 -0.2564
11296W        W27190  13.502  11.595   1.161  0.1945  0.2439 -0.1888
11297W        W27191   1.671   3.977   5.826 -0.0251  0.1837 -0.0693
11298W        W27192   3.966  15.388  15.623  0.1212 -0.1020  0.1427
11299W        W27193  13.126   7.430  11.457  0.0577  0.3202  0.2612
11300W        W27194   2.374  10.462   0.848  0.1357  0.1626  0.0172
11301W        W27195   6.952  13.687  11.044 -0.0429 -0.0122  0.1012
11302W        W27196  12.060   7.242  15.696  0.1224 -0.0485 -0.0689
11303W        W27197   0.052   6.628   4.945 -0.0315 -0.2773 -0.0675
11304W        W27198  13.183   3.036  12.655  0.0731 -0.2342 -0.4920
11305W        W27199  14.900   0.009  11.681  0.0533  0.1261 -0.1285
11306W        W27200  16.417   2.917   2.299 -0.0703 -0.1235 -0.0741
11307W        W27201   7.543   3.293   4.689 -0.0087  0.0202  0.1110
11308W        W27202   1.391  12.682  12.071 -0.1036 -0.0429  0.2113
11309W        W27203  12.606   8.037   3.656  0.0118  0.0857  0.0788
11310W        W27204   7.641  15.083  15.355  0.0203 -0.1759  0.0051
11311W        W27205  14.357  10.891  16.528 -0.2637 -0.0498  0.0225
11312W        W27206  16.346   2.776  12.579  0.2703 -0.2333 -0.1741
11313W        W27207   7.634   3.166   3.716  0.3459  0.0520  0.0563
11314W        W27208  16.792  14.639   1.051 -0.2712 -0.1182 -0.0157
11315W        W27209  16.729  16.622   0.272  0.0465 -0.1042 -0.0444
11316W        W27210   3.587  12.557   4.395  0.2517  0.0746  0.0185
11317W        W27211  12.985   9.870  12.491 -0.0078 -0.1132  0.1091
11318W        W27212   9.397  12.020   0.868  0.0222  0.1859  0.2345
11319W        W27213   7.509   5.342  12.695  0.3691  0.2124  0.1367
11320W        W27214   7.517  15.486   5.499 -0.0919  0.0805  0.1246
11321W        W27215  10.677  11.031   1.289 -0.1331 -0.0639  0.2337
11322W        W27216  16.452   3.254   2.703 -0.0887  0.1637  0.1243
11323W        W27217  15.411  12.546  16.539 -0.1063  0.1986  0.3149
11324W        W27218   1.551   0.847   4.080 -0.2753 -0.0131 -0.0820
11325W        W27219   8.919  11.994  16.622 -0.0119 -0.3504 -0.2600
11326W        W27220   9.538   4.156  16.529 -0.3199 -0.0042  0.1593
11327W        W27221   0.562   2.553   1.496 -0.2316  0.1257 -0.1107
11328W        W27222   8.078   1.342   6.818 -0.1017  0.1833  0.1077
11329W        W27223   7.394   9.548   3.764  0.0380  0.1991  0.3899
11330W        W27224   6.436  16.697  13.551 -0.1162 -0.0688 -0.3697
11331W        W27225  11.852  17.437  15.147 -0.0607 -0.1485  0.0341
11332W        W27226  13.111   8.954  12.921  0.0168 -0.0457 -0.0837
11333W        W27227   5.450   8.954   4.217 -0.0426 -0.2685 -0.2027
11334W        W27228  12.349   2.549  14.978  0.0949 -0.2583 -0.1511
11335W        W27229   5.335  13.707   4.341 -0.2469 -0.0812  0.1668
11336W        W27230  17.316   6.105  11.773  0.2554  0.0075 -0.0310
11337W        W27231   3.623   5.625   1.750  0.0274 -0.1621 -0.2794
11338W        W27232  14.222   6.894  14.961 -0.1011 -0.0374 -0.1299
11339W        W27233   1.333  12.459   4.924  0.0096  0.0966  0.1337
11340W        W27234  15.101  15.025   4.990  0.0044 -0.4391 -0.1486
11341W        W27235   4.123   5.721  12.504  0.1865 -0.1369 -0.1627
11342W        W27236  15.604  12.311   1.164 -0.2237  0.0031  0.0505
11343W        W27237   1.032  12.726   3.384  0.3049 -0.0606 -0.1622
11344W        W27238  13.699   9.497   2.155 -0.1860  0.3216 -0.3200
11345W        W27239   2.899   8.886   4.168  0.2154 -0.6142  0.0814
11346W        W27240  13.111   1.618   2.720 -0.0512 -0.0460 -0.2136
11347W        W27241   9.339  14.581   2.895 -0.1669  0.1099  0.3600
11348W        W27242  16.032  14.022  11.896  0.3608  0.0086  0.3485
11349W        W27243   1.655   7.747   1.009  0.0459 -0.1609 -0.1689
11350W        W27244   0.118  16.949   5.713 -0.1231  0.3376 -0.1353
11351W        W27245   5.215  10.045  13.312 -0.1555 -0.2318  0.0402
11352W        W27246   9.804   1.596  16.787  0.2025 -0.0698  0.1366
11353W        W27247  15.931   1.639   5.066 -0.0020  0.1770  0.0859
11354W        W27248  12.041   9.499  16.761 -0.4083  0.2259 -0.2525
11355W        W27249   5.676   7.723  16.564 -0.0520  0.2465 -0.0965
11356W        W27250  15.313  17.655  16.845 -0.1298  0.1123  0.2659
11357W        W27251  11.960   6.064   5.178 -0.0480 -0.0617  0.2487
11358W        W27252   1.993  11.224   0.166 -0.1235 -0.1645  0.1501
11359W        W27253  15.973  14.123   4.660  0.1153 -0.0053  0.0471
11360W        W27254   9.208   1.056  13.763 -0.0084  0.2513  0.4138
11361W        W27255   2.443  12.189   3.779  0.1046  0.0521  0.0396
11362W        W27256   8.739   9.409   0.437 -0.4243  0.1360  0.1001
11363W        W27257   5.060   7.964  12.144 -0.2459  0.1061  0.0271
11364W        W27258   3.301  11.282   2.924 -0.0217  0.1854 -0.1350
11365W        W27259  10.651  11.184   0.815 -0.3071 -0.0583  0.0312
11366W        W27260  10.816   2.714  14.256  0.1458 -0.0615 -0.0044
11367W        W27261  14.924   1.944  15.126  0.0709 -0.1178  0.0067
11368W        W27262   3.046   7.729  11.724 -0.1399  0.1730 -0.0699
11369W        W27263  13.958  12.629   4.781 -0.0580 -0.0041  0.1712
11370W        W27264  10.331   8.518  12.186  0.0465  0.0686  0.2399
11371W        W27265   0.282  15.820  11.832  0.2233  0.0674  0.0620
11372W        W27266   2.426   0.210  13.319  0.1646 -0.0748  0.0894
11373W        W27267  17.794   0.308   0.090  0.0198 -0.1131  0.1993
11374W        W27268   5.766  14.205   3.624  0.1468  0.1954 -0.0626
11375W        W27269   9.656  16.660   5.168 -0.1725 -0.1316 -0.1813
11376W        W27270  12.788  17.674   4.452  0.1550 -0.1811 -0.0995
11377W        W27271   0.717  15.532   5.043 -0.0736  0.1070 -0.0240
11378W        W27272  13.957   5.852   3.161  0.1679 -0.0896  0.1343
11379W        W27273   3.188   4.824   0.856 -0.1489  0.0872 -0.1394
11380W        W27274   6.596  16.645  16.170  0.1729  0.0421  0.1651
11381W        W27275   3.615   9.822  12.839 -0.0598 -0.1185 -0.1359
11382W        W27276   4.610   2.087   4.187 -0.0633 -0.2435 -0.1612
11383W        W27277  17.308  12.308   0.457  0.1366  0.1290 -0.0997
11384W        W27278   8.779   1.724   2.770 -0.2671  0.0191 -0.2309
11385W        W27279   0.419  15.410  16.040 -0.2835  0.0228  0.1213
11386W        W27280   9.271  10.206  14.164  0.3203  0.1092  0.1725
11387W        W27281  11.877  14.012  14.039 -0.1026 -0.0736 -0.2177
11388W        W27282   9.092   5.825   4.318  0.1661 -0.0103  0.0187
11389W        W27283  10.166   3.292  13.916  0.0083  0.1345  0.2640
11390W        W27284  11.863  14.198  12.599  0.0218  0.0766 -0.2017
11391W        W27285   8.771  11.520  16.551 -0.5349 -0.0716 -0.2941
11392W        W27286   3.329   4.490   2.995 -0.2095 -0.1605 -0.0957
11393W        W27287   4.104  10.114  15.637 -0.2939  0.0514  0.0865
11394W        W27288   7.718   5.156  12.255  0.1022 -0.2329  0.0012
11395W        W27289   2.655   6.211  14.673  0.0030  0.1492 -0.1147
11396W        W27290  14.607   2.318  12.659  0.1680  0.0787 -0.1973
11397W        W27291  15.743   9.024   1.157 -0.0355  0.1528  0.0992
11398W        W27292  11.566  13.870  12.983 -0.2380  0.3526 -0.0699
11399W        W27293   4.760   3.086  14.039 -0.0818 -0.2225 -0.2423
11400W        W27294   3.896  16.060   1.165  0.1504 -0.0544  0.1216
11401W        W27295   2.584   7.615  10.333  0.1074 -0.2748 -0.1113
11402W        W27296   3.453   3.981  12.943 -0.1171  0.2878 -0.1392
11403W        W27297   3.041  16.418   4.393 -0.1062  0.2708 -0.3070
11404W        W27298   2.742   5.850  15.424 -0.0093  0.2351  0.0998
11405W        W27299  17.244  10.978  13.729 -0.0938  0.1046  0.0639
11406W        W27300   3.839  17.019   1.896  0.1599 -0.1299 -0.2659
11407W        W27301  17.139   1.091   6.248  0.0553  0.1297  0.2778
11408W        W27302   9.477   9.037   2.141 -0.0512  0.0490  0.0492
11409W        W27303   0.845   9.252  12.567  0.1200  0.1295  0.0720
11410W        W27304  16.903   3.954   3.922 -0.0721  0.0636 -0.0651
11411W        W27305   3.493  10.864   6.352 -0.2120  0.1549 -0.1070
11412W        W27306   4.815   5.884   5.634 -0.0855  0.0578 -0.0155
11413W        W27307   0.036   0.318   5.403  0.0840 -0.0816 -0.1197
11414W        W27308   1.440   4.095  11.250 -0.3109  0.1180  0.0157
11415W        W27309   1.016  10.367   2.277  0.1733  0.0149  0.0114
11416W        W27310   4.358   0.796  12.012 -0.0340  0.0762  0.3064
11417W        W27311   9.477  16.247  13.118 -0.1303  0.0710  0.0471
11418W        W27312  10.377   4.442   1.176 -0.0198 -0.2178 -0.1368
11419W        W27313  16.464   2.543  15.691  0.5364  0.1474  0.2357
11420W        W27314   5.810   4.731  12.334  0.2355  0.0714 -0.1664
11421W        W27315  10.552   0.970   4.356 -0.0954  0.2321  0.2713
11422W        W27316   8.882  17.474   1.590 -0.1704 -0.0883  0.2175
11423W        W27317   7.358   6.593   2.397 -0.1522  0.3532 -0.0376
11424W        W27318  11.327  13.431   4.850 -0.1194 -0.0645  0.1561
11425W        W27319   7.784  11.282   3.408 -0.0759  0.4763  0.1226
11426W        W27320  17.002  15.647   0.281  0.1749 -0.1065 -0.0408
11427W        W27321   4.329  17.659  11.529  0.0594 -0.1288 -0.1050
11428W        W27322  12.187  15.938   2.157 -0.0039 -0.2450 -0.2522
11429W        W27323   4.702   7.022  14.430 -0.2660  0.1613  0.0462
11430W        W27324   0.349  11.662   5.497  0.1197  0.2259 -0.1778
11431W        W27325   1.664  15.491   2.293  0.0978 -0.0657  0.4443
11432W        W27326   2.078   9.560   0.472  0.0678 -0.0596 -0.1578
11433W        W27327   7.006   8.517   5.798 -0.2123  0.0032 -0.2252
11434W        W27328   4.776  14.668   3.881 -0.1248 -0.2014  0.2388
11435W        W27329   9.898  13.052  14.274  0.1684 -0.2600 -0.0183
11436W        W27330   4.878  15.873   0.381 -0.3637  0.1771 -0.1043
11437W        W27331  14.579   6.906   3.007  0.0671  0.2095  0.1992
11438W        W27332   5.024  17.741   2.299  0.0132 -0.2261 -0.0936
11439W        W27333  14.202  10.401  16.638 -0.0604 -0.1357 -0.2097
11440W        W27334   3.349   8.986  13.599 -0.0603  0.2130  0.2433
11441W        W27335  17.574  10.295   4.374  0.1406 -0.0129  0.1124
11442W        W27336  16.082   5.520  11.672 -0.0492  0.1312  0.0330
11443W        W27337  15.536  10.013   3.025  0.1811 -0.1282 -0.0155
11444W        W27338  13.837  14.152   3.452  0.1825  0.0944  0.0458
11445W        W27339  15.278   2.248   5.293  0.3706  0.0144  0.1340
11446W        W27340   0.100  14.952   4.491  0.2480  0.1487  0.1225
11447W        W27341   4.624  13.153  12.359 -0.0926 -0.1296 -0.2123
11448W        W27342   0.533   6.706  15.126  0.0388  0.0263 -0.1507
11449W        W27343  16.151  11.585   0.995  0.1252  0.3692  0.2430
11450W        W27344  12.005  15.944  16.165 -0.1719  0.1571 -0.1631
11451W        W27345  16.999   5.157  12.709 -0.1387 -0.2066 -0.2239
11452W        W27346  16.540  11.906  16.565  0.1738  0.0120 -0.1446
11453W        W27347   3.255  13.809  13.215  0.1468  0.0022  0.0552
11454W        W27348   3.000   4.982  15.987 -0.1618  0.1863 -0.1306
11455W        W27349   0.919  14.835  16.335 -0.1174  0.1780  0.0309
11456W        W27350  16.350  13.679   5.063 -0.1299 -0.2418  0.1702
11457W        W27351   3.129   3.249   0.790  0.0018  0.0395 -0.0460
11458W        W27352   2.708  14.646  13.524  0.0516 -0.0230 -0.0433
11459W        W27353   0.392   3.017  13.101 -0.0292 -0.0840 -0.1912
11460W        W27354  16.480  17.014   2.142 -0.0467  0.1854  0.0291
11461W        W27355  15.034   2.874   2.662  0.0700  0.2911 -0.2357
11462W        W27356   2.562   8.404   4.828  0.0343  0.1499 -0.0276
11463W        W27357  13.094   0.753  11.942 -0.3235 -0.0225  0.0348
11464W        W27358   2.049  12.339   5.708 -0.2271 -0.0581  0.0898
11465W        W27359   8.448  12.779  11.797 -0.3744  0.2067  0.1176
11466W        W27360  14.630   1.152   5.903 -0.1717 -0.0201 -0.0740
11467W        W27361   7.775   4.828   2.231  0.1045  0.1455 -0.0376
11468W        W27362  11.447  15.224   4.574  0.2249 -0.1474 -0.0105
11469W        W27363  12.992  14.663   2.160  0.2285 -0.0561  0.0493
11470W        W27364   8.112   2.143  13.345  0.1919  0.1587 -0.0590
11471W        W27365   5.815   3.658   2.861 -0.1159  0.2564  0.1283
11472W        W27366  10.334   3.301   1.958  0.0222 -0.1200  0.4957
11473W        W27367   0.448   1.357   1.907 -0.1022 -0.1585  0.0280
11474W        W27368  12.531  15.874   5.114 -0.2339 -0.0280 -0.0759
11475W        W27369   6.731   3.945  16.283  0.0800 -0.0362 -0.1336
11476W        W27370  10.586   2.761   1.135  0.0853  0.0412  0.1273
11477W        W27371  15.063  13.836  15.281 -0.0851 -0.2290  0.1290
11478W        W27372   4.859   0.148  11.986 -0.2275 -0.2416  0.1124
11479W        W27373   9.251   9.949   0.525  0.0357 -0.0433 -0.1855
11480W        W27374  11.831  12.085  11.954 -0.1258  0.0791  0.0637
11481W        W27375  12.379  10.066  15.638 -0.3116 -0.2418 -0.2122
11482W        W27376   1.739   5.960   1.132  0.3719  0.1474 -0.0373
11483W        W27377   3.180   0.508  11.682 -0.1477 -0.2267  0.4690
11484W        W27378   2.477  10.520  14.057 -0.1432  0.0708 -0.2913
11485W        W27379   0.629   8.384   5.242  0.2659 -0.0459 -0.2947
11486W        W27380  13.414  15.837   3.981 -0.2852  0.1368 -0.2579
11487W        W27381  14.299  10.122  12.721 -0.0041 -0.0209 -0.1781
11488W        W27382  14.775   9.593   4.519 -0.0860 -0.0209  0.2771
11489W        W27383   6.330   2.452  16.642  0.2084  0.1626  0.0169
11490W        W27384   7.469   2.679   3.494  0.1806 -0.0482 -0.0451
11491W        W27385   0.172   9.073   0.680 -0.0143 -0.0651 -0.3946
11492W        W27386  15.831   7.352   1.422  0.0167  0.2725  0.0012
11493W        W27387  15.770   9.379   4.327  0.0027  0.0129 -0.0705
11494W        W27388   1.550  13.293   2.475 -0.3741  0.0133 -0.1175
11495W        W27389  16.028   9.690  12.110  0.1998  0.1046 -0.0165
11496W        W27390   1.797  13.041   1.574  0.0043  0.2435  0.0826
11497W        W27391   3.174   1.100  14.072 -0.4420  0.1413 -0.0270
11498W        W27392   5.771  10.162   2.675 -0.2642  0.0534 -0.1602
11499W        W27393  11.254   3.344  11.667 -0.1689 -0.1694  0.0667
11500W        W27394   3.075   6.691   4.963 -0.0235  0.1245 -0.0977
11501W        W27395   6.919   4.911   0.679  0.1475  0.3689 -0.1536
11502W        W27396   0.505  12.770  16.091 -0.2594 -0.3001 -0.1613
11503W        W27397  15.513   6.416   3.064 -0.1621  0.1721 -0.0636
11504W        W27398  14.578  13.678  12.158 -0.0261 -0.2256 -0.2743
11505W        W27399  13.541  11.421  14.653  0.1345 -0.0843 -0.0854
11506W        W27400   3.442  12.800  15.660 -0.2228  0.1088 -0.0679
11507W        W27401   4.901   7.623  16.249 -0.0785 -0.3839 -0.2914
11508W        W27402   3.812   5.092   0.857  0.1977  0.1138  0.0617
11509W        W27403  13.190   8.656  13.325 -0.0562  0.2474 -0.2284
11510W        W27404   6.212  13.472  12.683  0.1559 -0.2996  0.2113
11511W        W27405   3.762   9.513  11.818  0.0037 -0.2474  0.2356
11512W        W27406   5.687   3.600  14.611 -0.4446 -0.4171 -0.1318
11513W        W27407  15.657   7.965   3.652  0.0626  0.0548  0.2107
11514W        W27408  12.871  16.533   0.503  0.0725 -0.0288  0.2890
11515W        W27409   8.112  13.661  12.134 -0.2990 -0.2045 -0.2374
11516W        W27410   8.051   1.477  12.415 -0.2202  0.1061 -0.0333
11517W        W27411  15.458   0.871  15.399  0.1710 -0.0718  0.1573
11518W        W27412   8.888   8.040  12.507  0.0057 -0.1139 -0.1659
11519W        W27413   5.306   7.660   0.908  0.0108 -0.1671 -0.3305
11520W        W27414  14.555   8.202   1.159 -0.3358  0.2431  0.2182
11521W        W27415  17.738  13.133  13.013  0.0026  0.2927 -0.0434
11522W        W27416   7.851   6.357   1.350  0.1971  0.0047  0.1459
11523W        W27417   5.385  12.254   5.276 -0.5021 -0.0100  0.0471
11524W        W27418  15.400   0.373  15.426 -0.1912 -0.1429 -0.1237
11525W        W27419  15.896   1.142  16.769 -0.0641 -0.1835 -0.1526
11526W        W27420   2.665   0.753  12.859 -0.1575 -0.3594  0.0150
11527W        W27421  14.953  14.222   1.674 -0.1334  0.1788  0.1340
11528W        W27422   3.973   1.120   3.767  0.4046 -0.0509 -0.2275
11529W        W27423   9.310   3.950  15.734 -0.0863 -0.0922  0.1161
11530W        W27424  16.212  13.213   4.923  0.0847 -0.2130 -0.0624
11531W        W27425  10.083  10.402   3.281  0.1436  0.2176 -0.1011
11532W        W27426   2.412   0.654  14.466  0.0016 -0.0352 -0.1617
11533W        W27427   4.656   7.830   4.086  0.0178 -0.0215 -0.1460
11534W        W27428   1.967  11.232  14.260 -0.1402  0.0069  0.2324
11535W        W27429   3.467   8.469   1.765 -0.0868 -0.1449 -0.2899
11536W        W27430   6.849  14.206   1.579 -0.2079 -0.0324 -0.0097
11537W        W27431  10.069  13.966   2.941 -0.3258 -0.1489  0.1137
11538W        W27432  15.401   6.226  16.293  0.2277 -0.4492  0.3366
11539W        W27433   5.921   9.679   4.398 -0.1689 -0.0392 -0.0163
11540W        W27434   6.505   6.400  14.367 -0.3391  0.3571  0.0291
11541W        W27435   2.319   1.786   4.974  0.2932  0.3375 -0.0787
11542W        W27436   4.812   5.651   2.693  0.0444  0.0994 -0.1448
11543W        W27437   3.768   8.116   2.642  0.1990 -0.2328  0.1491
11544W        W27438   5.951   3.884   0.614  0.0925  0.4730  0.1915
11545W        W27439   7.857  15.725  12.049  0.0415  0.1968 -0.0140
11546W        W27440  11.119  17.730   3.158 -0.0147 -0.0354 -0.1473
11547W        W27441   9.555   0.505  15.252 -0.0296  0.1380  0.0974
11548W        W27442   4.753   1.050   0.394  0.3154  0.0914 -0.1550
11549W        W27443   4.864  12.656   6.097 -0.0863  0.1077 -0.0359
11550W        W27444   9.383   8.347   1.485  0.2167 -0.0655  0.0308
11551W        W27445   8.242  15.999  16.763 -0.2471 -0.2053  0.0643
11552W        W27446  10.750   8.029   1.812 -0.0616 -0.0386  0.2291
11553W        W27447  11.368   8.152   5.758 -0.0927 -0.1894 -0.0673
11554W        W27448   7.726   0.302  15.552 -0.0927  0.1879  0.1187
11555W        W27449  17.432  13.270   3.332 -0.1810  0.0156 -0.2302
11556W        W27450   5.921   5.384  14.377 -0.1265 -0.0038 -0.0263
11557W        W27451  17.274  10.192  14.907 -0.0145  0.0157  0.0129
11558W        W27452  16.757   8.394  12.742  0.4544  0.1000 -0.0594
11559W        W27453  11.851   7.034   1.530  0.1460 -0.0719  0.0872
11560W        W27454  16.647   7.030  15.307  0.3491  0.1395 -0.0443
11561W        W27455  14.817   2.990   1.785  0.0011 -0.0498  0.0773
11562W        W27456  11.276  10.772  12.370  0.1487  0.1871 -0.1434
11563W        W27457  13.775  12.299   0.862 -0.1960 -0.0538  0.1035
11564W        W27458   7.162   5.427  16.880 -0.0413 -0.0556 -0.0205
11565W        W27459   4.804   7.179   1.466 -0.0353 -0.0461 -0.0611
11566W        W27460   0.839   4.232  11.430 -0.0756 -0.1853  0.3084
11567W        W27461   7.507   7.686  14.534 -0.1273 -0.2923 -0.0260
11568W        W27462   2.928  11.740   2.575  0.1523 -0.2560 -0.0802
11569W        W27463   9.584   8.458  15.553  0.5186  0.1400  0.1838
11570W        W27464  12.593   8.333   0.465 -0.2537 -0.0963 -0.1771
11571W        W27465  16.350  16.316  12.388 -0.2809 -0.1500  0.0350
11572W        W27466  14.519   6.770   1.774 -0.1849  0.2119 -0.1015
11573W        W27467  13.147  17.386  14.964 -0.2360 -0.0468  0.2167
11574W        W27468   8.741   3.187  12.007  0.2029 -0.2444 -0.2008
11575W        W27469  14.488   5.394  16.335 -0.1678 -0.0089  0.0727
11576W        W27470   4.278  13.399  13.535  0.0862 -0.0139  0.1937
11577W        W27471   0.028   5.921   4.082 -0.2382  0.0396  0.0363
11578W        W27472  14.286   9.107   0.226  0.0207 -0.0269 -0.2842
11579W        W27473   3.984   7.418   1.566 -0.2591  0.1887 -0.3472
11580W        W27474   0.117   6.738   0.895 -0.0324  0.2420 -0.1057
11581W        W27475   8.996   7.119   4.690 -0.0998  0.0156  0.0863
11582W        W27476  10.146  17.576   6.279 -0.2505 -0.0425 -0.4466
11583W        W27477  17.048  10.240   4.642 -0.0113  0.1060 -0.3039
11584W        W27478   5.656   9.158  12.227  0.1664 -0.0904 -0.3058
11585W        W27479  16.451   5.909  11.539 -0.2787  0.3816  0.2708
11586W        W27480  14.814   1.258  16.070 -0.2711  0.0994 -0.1522
11587W        W27481  12.530   9.690   1.533 -0.3661  0.1727 -0.1744
11588W        W27482   9.323   6.579  15.508 -0.0696  0.2080  0.1108
11589W        W27483   5.513   4.175  16.439  0.1265  0.0308  0.3692
11590W        W27484   7.626   0.230   3.927  0.2312  0.1769 -0.0357
11591W        W27485   5.851   1.999  16.085 -0.2547  0.0767 -0.2540
11592W        W27486   9.452  16.935   2.974 -0.0802 -0.0745  0.3610
11593W        W27487  15.207  10.238   5.977  0.0122  0.2452 -0.0279
11594W        W27488  13.965   2.909   0.219  0.0844 -0.0744  0.0727
11595W        W27489   0.978   9.588  11.555 -0.0337 -0.0128  0.2220
11596W        W27490   1.041   8.182   5.552 -0.0312 -0.0950  0.1280
11597W        W27491  12.661   8.792   1.627 -0.1610  0.0612 -0.2611
11598W        W27492  12.565  11.304  15.921  0.0680 -0.1589 -0.0232
11599W        W27493   5.436   3.733  16.655 -0.0635  0.0842 -0.0954
11600W        W27494   3.564   8.973  14.518  0.1887 -0.0346  0.3896
11601W        W27495   4.879   3.172  16.040  0.2272  0.2291  0.1052
11602W        W27496   3.623   2.059   4.932  0.1790  0.1163 -0.0057
11603W        W27497   7.882   9.455  13.954 -0.1835  0.3866  0.0591
11604W        W27498   0.871   9.590   2.300 -0.0071  0.1757 -0.1009
11605W        W27499  15.427   8.302   5.131 -0.0299  0.2633  0.0052
11606W        W27500   6.073  13.589  15.126 -0.0068  0.1154 -0.1970
11607W        W27501  14.736   4.369   0.286 -0.1387 -0.0036 -0.1177
11608W        W27502   5.790  13.617   4.886  0.0461  0.3545  0.1258
11609W        W27503   3.267   3.583   2.451  0.0447  0.0045 -0.0074
11610W        W27504   6.859   6.057   5.632  0.1896  0.2837  0.0479
11611W        W27505  17.022  15.737   5.927  0.4381 -0.0971 -0.0450
11612W        W27506   3.673   0.884   1.657  0.0309  0.2784 -0.1275
11613W        W27507   9.114  15.314  15.287  0.2053  0.1742  0.1562
11614W        W27508  15.579  10.299  13.326  0.0445  0.0361 -0.4397
11615W        W27509  11.086   4.945   0.580 -0.2904 -0.2884  0.0776
11616W        W27510   8.748   2.065  12.046  0.0227  0.1469 -0.1708
11617W        W27511  14.904   4.637  14.907 -0.0235 -0.1076  0.1548
11618W        W27512   8.786   0.204   2.962  0.2282 -0.0100 -0.1033
11619W        W27513   7.295  17.137   0.835  0.2272  0.0109  0.1765
11620W        W27514   3.862  16.286   4.788 -0.0526  0.0071 -0.2017
11621W        W27515  12.789  14.138  16.142  0.0809  0.0885 -0.2827
11622W        W27516   5.183   7.202   3.873  0.2063  0.1289 -0.1054
11623W        W27517  10.455   7.053   2.072 -0.2045 -0.1370 -0.2619
11624W        W27518  14.348   6.833   4.301 -0.0347  0.3568  0.0979
11625W        W27519   3.956   0.418  15.066  0.2146  0.1494  0.0930
11626W        W27520  15.400   6.881   2.764 -0.2557  0.1154  0.0507
11627W        W27521  15.546  15.411  13.770 -0.0523  0.0988  0.0612
11628W        W27522  10.128   2.367   4.793  0.0026  0.0902 -0.0671
11629W        W27523   0.130   0.543  12.176 -0.2102  0.0541 -0.2926
11630W        W27524   4.634  16.622   2.109  0.2215  0.2121 -0.1187
11631W        W27525  10.379  10.946  13.479  0.3640  0.1484  0.1120
11632W        W27526   9.663  12.394  12.503 -0.0694  0.1340  0.0911
11633W        W27527  12.867   0.622  11.481  0.0020 -0.0375 -0.1572
11634W        W27528   6.108  15.818   4.064 -0.3617 -0.0021 -0.0315
11635W        W27529   3.294   1.811   0.700  0.1136 -0.0148 -0.1609
11636W        W27530   9.250  11.535  15.472 -0.1200  0.1949 -0.1514
11637W        W27531  15.041   0.150  13.824 -0.0330  0.3995 -0.1092
11638W        W27532   6.593   1.232   0.129 -0.0840 -0.0656 -0.0598
11639W        W27533   9.953   1.717   3.487  0.0421 -0.1230 -0.1826
11640W        W27534  17.685  12.252   4.003 -0.0903 -0.2093 -0.0898
11641W        W27535  10.457  17.223   0.997  0.4272 -0.0014 -0.0004
11642W        W27536  10.084   0.424  14.502 -0.3293  0.1016  0.1390
11643W        W27537  14.787   2.073   1.624  0.0030  0.2276 -0.1463
11644W        W27538   7.010   7.480  13.933 -0.1635 -0.0257  0.4894
11645W        W27539   8.456  17.827  15.826  0.0411  0.2502 -0.0344
11646W        W27540  10.988  12.367   1.056  0.0756 -0.3344 -0.0953
11647W        W27541   2.875  14.873   2.015 -0.1822 -0.1971  0.0625
11648W        W27542  12.045  16.075  15.664 -0.2731 -0.0272  0.1442
11649W        W27543   7.672  17.149  15.630 -0.1858  0.3790  0.0520
11650W        W27544   7.573   1.417  16.518 -0.2898  0.2527  0.0119
11651W        W27545   6.085  15.211  16.125 -0.0378 -0.4736  0.0578
11652W        W27546   9.002   7.499  15.629  0.0789 -0.0372 -0.2833
11653W        W27547   2.916   0.872  11.866 -0.0486  0.1248 -0.3328
11654W        W27548  16.976   3.747  10.526 -0.3079  0.1365 -0.0769
11655W        W27549  14.897   3.561  11.767 -0.3217  0.0123  0.1708
11656W        W27550  15.552   6.943  13.865 -0.0760  0.0166  0.0002
11657W        W27551  12.648  16.388   0.103  0.1643  0.0512 -0.1606
11658W        W27552   9.052   2.006  13.498  0.2146 -0.1857  0.0421
11659W        W27553   2.057  14.198   4.088  0.0782  0.1136  0.0733
11660W        W27554  14.992   7.722  12.718  0.1956  0.1136  0.2696
11661W        W27555   3.269   4.312   5.107 -0.0574  0.0562 -0.0820
11662W        W27556   3.794   9.192  15.401  0.2142  0.1078  0.1674
11663W        W27557   1.480   6.146  15.524  0.2711 -0.0727  0.0253
11664W        W27558  15.961   6.814  14.711  0.0016  0.1608 -0.1226
11665W        W27559   0.279   3.192   0.411  0.3038  0.0232  0.0690
11666W        W27560   2.157  10.865   3.383 -0.0697  0.0898 -0.1447
11667W        W27561  10.483   0.027  16.786 -0.0388  0.1818 -0.1533
11668W        W27562   5.705  17.396  14.595  0.0990  0.0721 -0.0540
11669W        W27563  12.003   3.731  15.031 -0.0891  0.2584  0.1453
11670W        W27564  13.442  15.242   5.865 -0.0829  0.0602  0.3976
11671W        W27565   5.994  17.475  12.474  0.0116  0.0594  0.0900
11672W        W27566  13.816   3.373   0.710 -0.2823  0.0042  0.0357
11673W        W27567   5.393  12.027   0.023 -0.1918  0.1970  0.2139
11674W        W27568   0.343  14.900  16.893 -0.0018 -0.1592  0.0127
11675W        W27569   4.663   2.445  11.512  0.0893  0.2023 -0.0704
11676W        W27570   6.726  13.191  16.688  0.2643 -0.0005 -0.2292
11677W        W27571  10.039   5.212   3.058 -0.1416  0.0458  0.2748
11678W        W27572   3.187   0.606   3.378 -0.0786  0.1445 -0.0332
11679W        W27573  17.531   2.705  13.517  0.2310 -0.1875  0.0372
11680W        W27574  17.354   9.443  13.972  0.0266 -0.3504  0.0176
11681W        W27575  10.030   9.407   1.819  0.0144 -0.1167 -0.1025
11682W        W27576  17.510   4.397   4.684  0.2488 -0.0532 -0.1357
11683W        W27577   6.182  11.310   5.202 -0.1247  0.3108 -0.1490
11684W        W27578  13.793  16.415   5.424 -0.4292 -0.0995 -0.1219
11685W        W27579  14.264   6.102   1.188  0.0033 -0.0864 -0.2073
11686W        W27580  10.180  17.437   4.962 -0.0212 -0.2052 -0.0922
11687W        W27581  10.582   9.849   1.322  0.3115  0.3304  0.0631
11688W        W27582  13.510   9.775   5.681 -0.0269  0.1212  0.2976
11689W        W27583   1.478   4.062  13.243 -0.0596  0.0082 -0.1834
11690W        W27584   2.579   9.530   0.380 -0.3490  0.0055  0.0926
11691W        W27585  17.742  10.302  15.738 -0.3085 -0.2664 -0.2288
11692W        W27586  14.812  17.809   2.194  0.0903 -0.2761  0.3263
11693W        W27587   4.567  16.418   1.344  0.0163 -0.0392  0.0084
11694W        W27588   3.976   3.858   1.532 -0.1477 -0.1377 -0.0446
11695W        W27589  16.484   3.239  10.006  0.2576 -0.1425 -0.1140
11696W        W27590  11.989   0.953   1.985  0.0942  0.1711  0.2310
11697W        W27591   6.676  13.376   0.754  0.2464  0.2429  0.0137
11698W        W27592  14.622  14.211   5.766  0.0532 -0.1776  0.0354
11699W        W27593   6.029   6.220   0.123 -0.0106  0.0058  0.3646
11700W        W27594   0.631  13.410  14.418  0.1551 -0.0189 -0.0382
11701W        W27595   2.923   2.084   3.454  0.1002 -0.1215  0.2096
11702W        W27596   9.812  10.101  12.947 -0.1337  0.2054 -0.1507
11703W        W27597   8.153  16.020   2.501  0.1635  0.1069  0.0941
11704W        W27598   5.250  10.354   2.592  0.2091  0.4086 -0.3998
11705W        W27599  13.896   0.388   2.155  0.2449  0.1912 -0.0271
11706W        W27600   5.697   4.720   1.453  0.2478  0.1694  0.2419
11707W        W27601   0.369  11.147   4.870 -0.1067  0.0748 -0.0480
11708W        W27602   6.773   0.752  14.378 -0.1169  0.1110  0.2607
11709W        W27603  11.754  14.276   4.315 -0.2712 -0.0607  0.1994
11710W        W27604   2.458  14.808   1.754 -0.1179  0.4227 -0.0657
11711W        W27605   7.792   7.261   1.534  0.1462 -0.0104  0.0190
11712W        W27606   7.199  13.841  16.609 -0.3228  0.0035  0.0220
11713W        W27607  12.161  12.437   1.928 -0.1251 -0.1213 -0.1054
11714W        W27608   8.977   3.687  12.781 -0.0949  0.0420 -0.3831
11715W        W27609  13.720   5.944  16.652  0.2146 -0.2737 -0.2071
11716W        W27610  16.509   4.309   1.451  0.0653 -0.0091  0.1019
11717W        W27611   5.041  10.670   1.021  0.1915 -0.2982  0.1754
11718W        W27612   5.251   1.222  11.626 -0.1494 -0.2491 -0.0236
11719W        W27613   8.254  13.820   5.752  0.1322  0.3527  0.2018
11720W        W27614   7.162   3.970   6.243  0.3976 -0.3515 -0.1625
11721W        W27615   7.938   2.115   4.412 -0.1183 -0.0739 -0.1089
11722W        W27616  16.309   9.183   3.132  0.2200  0.3629 -0.1442
11723W        W27617  13.621   6.087   4.876 -0.1242 -0.1485  0.1222
11724W        W27618  15.520  16.918   1.090 -0.0470  0.0768 -0.1017
11725W        W27619   1.262  13.958  15.111 -0.1362 -0.3211  0.1253
11726W        W27620   2.569  15.580   2.393 -0.0591 -0.3652  0.1895
11727W        W27621   5.679  10.614   0.432  0.0621 -0.3283 -0.1447
11728W        W27622   3.323   7.374  12.455 -0.1172 -0.0528 -0.1130
11729W        W27623  17.468  10.889   2.329 -0.0716 -0.0229  0.1772
11730W        W27624   1.049  10.931   0.997 -0.1142 -0.1092 -0.1181
11731W        W27625   6.418  15.851  11.998 -0.0990 -0.2593  0.0002
11732W        W27626  17.449   9.393  13.292 -0.0442 -0.3861 -0.2437
11733W        W27627   2.821  14.433   2.593 -0.1195 -0.1275  0.6834
11734W        W27628   4.088   7.890   2.281  0.0401  0.0232 -0.1281
11735W        W27629  11.572   6.288   0.278  0.1351 -0.0201 -0.1843
11736W        W27630  13.369   5.962   3.382  0.0697 -0.3704  0.1880
11737W        W27631  13.790  13.602  16.556 -0.0522 -0.2247  0.1587
11738W        W27632   5.332   8.256  14.062  0.0449  0.0885 -0.1186
11739W        W27633   3.229  10.348   2.822 -0.1322  0.1951 -0.0901
11740W        W27634   1.897  15.163   1.780  0.0142  0.3664 -0.0317
11741W        W27635   9.871   5.354  12.957 -0.0223  0.1588  0.0006
11742W        W27636   0.251  13.482  16.630 -0.0194 -0.2291  0.2710
11743W        W27637   2.312   1.867   1.987 -0.2713  0.0023  0.0113
11744W        W27638  13.261  17.433   4.363  0.1422  0.1056 -0.0086
11745W        W27639  13.749   2.734   4.129  0.2038  0.1665 -0.0102
11746W        W27640  11.841  15.505  15.947  0.0413 -0.1681 -0.0880
11747W        W27641   6.466  11.129   3.654 -0.0992  0.2020 -0.0512
11748W        W27642  12.147  12.185  13.595 -0.0646  0.1137  0.2591
11749W        W27643  12.269  13.541  13.251 -0.1734 -0.2159 -0.0288
11750W        W27644  17.834   0.624   0.696 -0.1912 -0.2756 -0.0820
11751W        W27645   6.599   0.833  15.285  0.0535 -0.0478 -0.0469
11752W        W27646   8.949  12.888  14.053  0.0492 -0.0220  0.0766
11753W        W27647   4.223  12.649   5.764  0.0041 -0.2574  0.0338
11754W        W27648   1.507  16.468  14.674 -0.1643 -0.0537 -0.1966
11755W        W27649  11.712   8.520   5.716 -0.0131 -0.1640  0.0135
11756W        W27650  16.831  17.397  16.690  0.1502 -0.0677 -0.3087
11757W        W27651  12.558  10.981   2.574  0.2609  0.0750  0.3136
11758W        W27652   5.833  12.051   5.028  0.1169 -0.0659 -0.3694
11759W        W27653  17.599   0.200  12.023 -0.1043  0.0208 -0.0706
11760W        W27654   6.966   6.762  14.445  0.0131 -0.1088 -0.0871
11761W        W27655  14.813  13.223  14.947  0.1255  0.0263 -0.0558
11762W        W27656   1.161   9.154  13.959  0.1405  0.1139 -0.1596
11763W        W27657   9.143  10.167  11.881  0.1760  0.0315 -0.0658
11764W        W27658   7.062  14.129  12.313  0.0952 -0.0133 -0.0762
11765W        W27659  13.917   9.836  14.951 -0.1870 -0.1175 -0.1768
11766W        W27660  10.835   9.694   2.241 -0.0476  0.1730 -0.0406
11767W        W27661   1.749   8.884   4.521 -0.0969 -0.0133 -0.1413
11768W        W27662  11.738   3.311   5.405  0.1407  0.0536 -0.2185
11769W        W27663  11.112  10.742   3.078  0.2846  0.1315 -0.0983
11770W        W27664   2.482   8.709  15.456 -0.0422 -0.0542 -0.2058
11771W        W27665  17.778  13.284   5.600 -0.1585  0.2790  0.1430
11772W        W27666  16.868   8.528  15.416  0.2611 -0.2459  0.3345
11773W        W27667  15.209  12.965   5.698  0.4419  0.0695 -0.1259
11774W        W27668  13.399   9.688  12.776  0.1438 -0.0400 -0.2738
11775W        W27669  14.788   9.906  14.106 -0.0970 -0.0458  0.3626
11776W        W27670   7.668   4.984  14.058  0.0848 -0.2090 -0.1990
11777W        W27671  11.415   2.354  16.347  0.0582  0.1227 -0.0768
11778W        W27672   4.628  11.519   3.354 -0.4711 -0.1151 -0.2554
11779W        W27673   6.168  13.910   0.142 -0.0852  0.2507  0.1179
11780W        W27674   3.230   1.433   1.533  0.0053 -0.2456  0.0756
11781W        W27675  15.233   7.911  16.652 -0.1658  0.4317 -0.1938
11782W        W27676  15.631   1.623   5.483 -0.1834 -0.0420  0.0475
11783W        W27677   3.868  10.116   5.307  0.0386 -0.2581  0.1761
11784W        W27678  16.731   8.911  14.036  0.1673 -0.0005  0.1304
11785W        W27679  15.310  17.235   4.460  0.2878  0.2226  0.0239
11786W        W27680   4.000   7.151   0.430  0.0773 -0.1143  0.3774
11787W        W27681   6.357   2.345  11.527  0.1996  0.0938  0.1920
11788W        W27682  12.004  12.817   1.350  0.3558  0.0667  0.0794
11789W        W27683   8.661   4.765   1.190 -0.0330 -0.1675 -0.1497
11790W        W27684  15.476   8.821   4.365  0.2923  0.3694 -0.1906
11791W        W27685   0.293   8.117  12.981 -0.1715  0.0705  0.2052
11792W        W27686  15.056  16.001   5.261 -0.1495 -0.2055 -0.0172
11793W        W27687  12.739  13.386  14.694 -0.0606 -0.0345  0.0116
11794W        W27688   8.199   6.105  11.239  0.0159  0.1431 -0.0962
11795W        W27689   9.782   7.398   1.389 -0.2694  0.2935  0.1918
11796W        W27690   8.608   5.279   5.777  0.1531  0.0674 -0.0864
11797W        W27691  15.588  14.554  15.994  0.2226 -0.1262  0.1239
11798W        W27692   9.854   9.451   5.435  0.1900 -0.2219 -0.1976
11799W        W27693  14.086   4.864   4.233 -0.0909  0.2595 -0.2118
11800W        W27694   7.483   2.505  10.756 -0.0044  0.0466 -0.1275
11801W        W27695  13.218  15.149   5.143 -0.0645  0.1223  0.2103
11802W        W27696  11.177   8.634   5.480 -0.2669  0.0937  0.1534
11803W        W27697  11.241   8.237  13.828 -0.1886 -0.1810 -0.1989
11804W        W27698  13.383   8.444   0.666 -0.1058 -0.2931  0.0361
11805W        W27699  17.124  11.153  16.589  0.0217 -0.1799  0.1278
11806W        W27700  16.784  11.147  13.529 -0.3213  0.0378 -0.1680
11807W        W27701  10.714   2.411  12.828 -0.4247 -0.1263 -0.0075
11808W        W27702  10.116   1.333   0.127  0.0977 -0.2004  0.0667
11809W        W27703   9.845  14.117   1.215  0.2481  0.0982 -0.2150
11810W        W27704   3.129   3.656  13.198  0.1040 -0.1561  0.0510
11811W        W27705  14.632  14.050  12.981 -0.1734 -0.0728  0.1867
11812W        W27706   6.261   3.919   2.728  0.0145 -0.1952 -0.2499
11813W        W27707   9.999  11.311  14.197 -0.1164 -0.0457  0.0043
11814W        W27708  17.703  14.850  12.762 -0.1062 -0.2325 -0.0178
11815W        W27709   2.628   8.226  13.750  0.3036 -0.2056  0.0756
11816W        W27710  15.874   7.059  15.132  0.1201  0.0415 -0.1507
11817W        W27711  12.139   6.804  14.639  0.0899  0.2053  0.0709
11818W        W27712   0.324  14.985   1.778 -0.3950 -0.2855  0.0373
11819W        W27713   3.646   2.439   1.596  0.0500 -0.0005 -0.2258
11820W        W27714   0.643   2.870  11.230  0.0775  0.0327  0.0630
11821W        W27715  15.990   3.713  15.541 -0.2389  0.0589  0.0797
11822W        W27716   0.436   7.263  13.613  0.1394 -0.3148 -0.1328
11823W        W27717  15.648   7.043  16.911 -0.2651 -0.0969 -0.2465
11824W        W27718  12.002  11.652  13.274  0.0036 -0.3323 -0.0531
11825W        W27719   8.488  15.798   3.078  0.0317 -0.0159 -0.2311
11826W        W27720   4.513   8.782  13.600  0.2200 -0.0204  0.3775
11827W        W27721  16.672   1.991  11.278  0.2100 -0.0007 -0.2020
11828W        W27722   7.977   3.322  13.717  0.2288  0.1311  0.1528
11829W        W27723   5.564  16.813   1.375  0.1310  0.0994 -0.0082
11830W        W27724   4.628   9.529   5.049 -0.0283 -0.1270  0.0158
11831W        W27725  10.934  15.483   1.655  0.0274 -0.2563  0.2284
11832W        W27726  16.971   7.336  14.098 -0.1253  0.2416  0.3420
11833W        W27727  14.308  16.096   3.687 -0.0790  0.1444  0.1113
11834W        W27728   9.147  11.257  14.707  0.3073 -0.0783 -0.0880
11835W        W27729  14.833  14.684   5.951 -0.1109 -0.1283  0.2741
11836W        W27730   3.500   9.769  13.414 -0.0082  0.2253  0.0138
11837W        W27731  15.392   5.877  16.762  0.1578 -0.1550  0.0958
11838W        W27732  14.447  13.957   1.283 -0.0313  0.1391 -0.3115
11839W        W27733  14.093   6.322  12.004 -0.1944 -0.0497  0.1665
11840W        W27734  11.972  16.524  14.033 -0.1281  0.0437 -0.3604
11841W        W27735  10.110  15.797   5.396  0.0307  0.4008 -0.1760
11842W        W27736  13.945  12.330  12.828  0.3429  0.2842 -0.1405
11843W        W27737   6.636   1.406  13.716 -0.0757  0.0550  0.1637
11844W        W27738  15.996   1.538   3.561 -0.1630 -0.1590  0.2730
11845W        W27739   2.284  12.706   1.516  0.1746  0.0297  0.3318
11846W        W27740   2.489   1.775  11.783  0.1161 -0.0989  0.1565
11847W        W27741   4.861   7.353   4.885 -0.0657  0.2144  0.0683
11848W        W27742   6.835  16.845   2.652  0.1400  0.0171 -0.2207
11849W        W27743  10.358   3.150   4.841 -0.1760  0.2345 -0.1278
11850W        W27744   9.093  16.323   0.102  0.1326  0.1786 -0.2538
11851W        W27745   3.990  16.896  12.698  0.1120  0.1989  0.0089
11852W        W27746   3.208   1.762   4.530 -0.1264 -0.2346 -0.1741
11853W        W27747  17.290  15.186  11.626  0.6213  0.0927  0.3617
11854W        W27748   9.229  15.759   0.228 -0.1652  0.2647  0.1807
11855W        W27749  11.964  11.884   4.232 -0.0585  0.3140  0.0678
11856W        W27750  11.563   2.824  10.492 -0.2897  0.0905  0.0226
11857W        W27751   7.381   2.305  15.636  0.0607 -0.0879 -0.0838
11858W        W27752   4.618   6.852   4.838  0.2836 -0.0555 -0.2942
11859W        W27753   5.697  12.471   2.318  0.0046  0.1334 -0.0164
11860W        W27754  12.537  11.003  13.006  0.1019 -0.3284 -0.0465
11861W        W27755   8.779  12.542  11.465 -0.3352 -0.1145  0.2960
11862W        W27756   5.022   4.324  11.825  0.0262  0.0308 -0.0319
11863W        W27757  11.659   5.360   0.627  0.2048 -0.2715  0.0872
11864W        W27758   5.440  11.950   2.897  0.2894 -0.0694  0.0226
11865W        W27759  13.872   7.076   0.247  0.2489 -0.0399 -0.0648
11866W        W27760   9.805  12.647  13.633  0.1390  0.0618 -0.0929
11867W        W27761   7.381   9.473   5.710  0.0061  0.2058 -0.0583
11868W        W27762   0.074   2.350   3.540  0.1034  0.2521  0.1641
11869W        W27763   0.928   3.910   0.847  0.1809 -0.1796 -0.3014
11870W        W27764   6.906   2.264  15.392 -0.0924  0.1287  0.0707
11871W        W27765   4.714   0.841   5.382  0.0031 -0.4212  0.1297
11872W        W27766   7.413  12.405   1.520  0.3762 -0.0934 -0.1180
11873W        W27767  16.450  16.930   1.047  0.0824  0.1858  0.2989
11874W        W27768  11.187  17.755   4.850 -0.2557 -0.1735  0.2112
11875W        W27769   8.565  14.886   1.980 -0.1509 -0.0521 -0.0887
11876W        W27770   8.837   8.906  10.795  0.2883  0.1836 -0.2073
11877W        W27771  17.305   9.332   2.316 -0.0689 -0.0090 -0.1494
11878W        W27772  11.724   8.325   4.822  0.3805  0.1294  0.1289
11879W        W27773   8.977  15.166  12.832 -0.1023  0.0296  0.0956
11880W        W27774   5.458  13.235   3.125  0.0044  0.0029 -0.2229
11881W        W27775  11.461   5.852   5.761  0.3889 -0.1087 -0.0473
11882W        W27776   5.783  13.250   0.742  0.2298  0.0734  0.0704
11883W        W27777   1.642   7.335  13.298 -0.2166 -0.1437 -0.0453
11884W        W27778   9.727  10.935  12.584 -0.0602  0.2937  0.2043
11885W        W27779   0.857  17.788  15.721  0.1427 -0.1044  0.1918
11886W        W27780   9.868   7.840   3.965  0.2901  0.0228 -0.0660
11887W        W27781  16.596  12.313  15.501 -0.0862 -0.1125  0.1635
11888W        W27782   6.336   8.551  15.411 -0.0216 -0.1159 -0.3289
11889W        W27783   2.859   8.471   0.108 -0.1259 -0.2479  0.0389
11890W        W27784  17.788  15.854   2.256 -0.1137 -0.0928  0.0250
11891W        W27785   7.923  10.311   2.210  0.3859 -0.1028  0.1522
11892W        W27786   3.146   6.844   2.256  0.1026 -0.1180  0.4177
11893W        W27787   9.063  10.448   4.308  0.0797  0.1204  0.0063
11894W        W27788  13.022  10.472   4.442  0.0655 -0.0341 -0.1037
11895W        W27789   5.676   4.721  15.888  0.2330  0.0001  0.0762
11896W        W27790  15.221   0.130  16.472  0.0716  0.0712 -0.2340
11897W        W27791   9.402   9.172  16.653  0.3440  0.2315 -0.1365
11898W        W27792  11.255  10.509   5.568 -0.1725  0.0489 -0.0412
11899W        W27793  16.727   9.718   6.020 -0.1598 -0.0316  0.0367
11900W        W27794   3.826  14.958   4.581 -0.0432 -0.0654  0.2131
11901W        W27795   2.828   5.294   0.829  0.0559 -0.0891  0.1477
11902W        W27796   5.368  13.067   1.748  0.1737  0.3390  0.1599
11903W        W27797  16.373  13.749  12.163 -0.1488 -0.0006  0.0002
11904W        W27798  10.490  14.289  16.500  0.0101  0.0016 -0.1050
11905W        W27799   0.273   2.854  15.430  0.0703 -0.1340 -0.0150
11906W        W27800   9.809  15.892  16.459 -0.0372 -0.2195  0.1111
11907W        W27801   2.980   5.115   5.284  0.2688  0.1850  0.1465
11908W        W27802   5.398   7.928   1.294  0.1096  0.2655 -0.0099
11909W        W27803  11.687  16.724  13.552  0.0652 -0.1226 -0.1041
11910W        W27804   2.330  13.078   5.792  0.0418 -0.0761 -0.1891
11911W        W27805   0.785   5.158  16.430 -0.3852  0.0272 -0.2152
11912W        W27806   7.009  12.671   0.511  0.2551  0.0064  0.0621
11913W        W27807   0.294   8.748   1.867  0.3053  0.1534  0.1543
11914W        W27808  14.578  14.260   5.217  0.0962 -0.1343  0.0050
11915W        W27809   6.751  13.996   2.805 -0.4249  0.0831  0.1175
11916W        W27810  16.746  11.284  15.876 -0.0854 -0.1669  0.2057
11917W        W27811  16.309   8.471  16.107 -0.0244  0.4782  0.1969
11918W        W27812   1.369  13.530   1.916 -0.0341 -0.1394 -0.2721
11919W        W27813  17.168  15.158   3.599  0.1910  0.3296 -0.3387
11920W        W27814  11.373   4.217  16.453  0.1675  0.1136 -0.0216
11921W        W27815  17.765   9.342   3.431  0.0221  0.1766  0.1294
11922W        W27816   5.346   2.367  12.146  0.3141 -0.4277  0.0524
11923W        W27817  10.680   6.308   0.318  0.0266 -0.2761  0.0814
11924W        W27818  13.698  16.268  12.741 -0.0819 -0.3045  0.0088
11925W        W27819  11.747   0.297   1.587 -0.2108 -0.3556 -0.0423
11926W        W27820  12.303  14.172  11.777 -0.0231 -0.1085 -0.0040
11927W        W27821  14.784  10.595  13.334 -0.0867 -0.0530  0.0287
11928W        W27822  16.553   2.855   5.398 -0.1594 -0.0804 -0.2078
11929W        W27823  12.689  14.919  14.405 -0.3218 -0.1509 -0.2006
11930W        W27824   8.959   9.530   0.926  0.2982  0.1209  0.2505
11931W        W27825   7.927   6.050   4.536  0.0891 -0.2110 -0.1330
11932W        W27826   3.824   9.587   2.876 -0.2532 -0.0619 -0.0341
11933W        W27827  11.405  11.603  15.356  0.0683  0.1293 -0.0268
11934W        W27828   4.829   6.088  12.809  0.0499  0.1073  0.2883
11935W        W27829  16.626  14.536  11.552 -0.0710 -0.4127  0.0799
11936W        W27830  17.258  12.887   0.364  0.1686 -0.1143  0.1882
11937W        W27831   0.045   7.400   1.376 -0.0274 -0.1050  0.2150
11938W        W27832   5.374   8.792   4.678  0.1245 -0.0787  0.1604
11939W        W27833   6.699  17.655  13.610 -0.2442  0.1712  0.2816
11940W        W27834   1.038   0.257  11.759  0.0239  0.1462 -0.1901
11941W        W27835   6.964   8.325  11.993 -0.1492  0.0386 -0.1350
11942W        W27836   3.472  15.507  16.272 -0.1650  0.0421 -0.1285
11943W        W27837  10.759   0.700   2.334 -0.0202 -0.1560  0.0665
11944W        W27838   0.234  17.317   2.323 -0.0062 -0.0398 -0.1563
11945W        W27839  11.610   3.715   0.904  0.1504 -0.2696  0.0589
11946W        W27840  15.522   3.883  10.917 -0.1232 -0.1465  0.2567
11947W        W27841  14.545  12.557   3.569 -0.1117  0.1936 -0.0618
11948W        W27842   9.080  15.598   0.702  0.0440  0.1585 -0.1550
11949W        W27843  13.485  11.227   5.433  0.6167  0.1452 -0.1625
11950W        W27844   3.139   4.318  14.865 -0.3155 -0.3689 -0.1116
11951W        W27845   5.204   5.520  15.788 -0.2803 -0.1179 -0.0674
11952W        W27846  11.018  17.464   5.216 -0.1607  0.2388 -0.0236
11953W        W27847  14.472  10.657   5.524 -0.0753 -0.0704  0.0202
11954W        W27848  15.480  12.594   3.190  0.1319 -0.1956  0.1002
11955W        W27849   5.519   7.707   2.159  0.2174 -0.0795  0.0508
11956W        W27850  15.094  10.918   3.491  0.4277 -0.1631  0.1015
11957W        W27851   9.342   3.407   3.786 -0.3622  0.2756  0.1687
11958W        W27852  13.433   6.501   1.017  0.2445 -0.0664  0.0190
11959W        W27853   1.103   9.610  14.692  0.0103 -0.0138  0.1515
11960W        W27854   1.036   8.244  13.506  0.0313  0.1207 -0.0786
11961W        W27855   5.827   0.405  11.748  0.0773 -0.0331  0.0256
11962W        W27856  14.706  12.208  12.691 -0.0137  0.2127  0.2286
11963W        W27857   8.475  16.533  15.356 -0.4302  0.1005 -0.0249
11964W        W27858   9.953   8.266  15.239  0.0491 -0.2696 -0.1230
11965W        W27859   0.901   1.939   1.005  0.1008 -0.0587 -0.0319
11966W        W27860   0.980  14.341  12.710 -0.1066  0.1755  0.1463
11967W        W27861  15.539  16.956  13.296 -0.4173  0.0674 -0.0169
11968W        W27862   6.708   5.419   1.830  0.2350 -0.4139  0.1396
11969W        W27863   1.444  17.215   0.357 -0.0179  0.2636 -0.0829
11970W        W27864   9.383  10.143  14.674  0.0090 -0.0126 -0.1594
11971W        W27865   6.612  17.374   0.137  0.2107  0.1165  0.0298
11972W        W27866  14.734   4.901   4.822  0.3103 -0.2965  0.1665
11973W        W27867  15.401   2.237   3.480  0.2247  0.0113 -0.0423
11974W        W27868   8.927   8.659   5.133  0.1288 -0.0131 -0.3500
11975W        W27869  14.370   3.226   5.029  0.1520 -0.2857  0.1408
11976W        W27870  13.048   7.436  16.842 -0.0836 -0.2473 -0.1253
11977W        W27871  16.492   5.963  12.054  0.0715 -0.0055 -0.1400
11978W        W27872  17.056  11.460   1.089  0.0626 -0.0470 -0.0632
11979W        W27873  15.486   0.959  13.351 -0.0184  0.0032  0.0011
11980W        W27874   0.865  14.876   0.804 -0.4851 -0.3034  0.2836
11981W        W27875   8.485   9.875  16.083  0.0165 -0.0426  0.0809
11982W        W27876  13.575   9.081  12.879  0.0684  0.0206  0.3384
11983W        W27877   7.686   1.280  12.692  0.3832 -0.1383  0.3596
11984W        W27878   5.544   2.509  15.809  0.5487 -0.0273  0.1626
11985W        W27879  10.083  13.621   5.565 -0.2074  0.0945 -0.0979
11986W        W27880  14.816  11.165   0.518  0.3047  0.2234  0.0711
11987W        W27881  14.815   7.826   1.489 -0.1012 -0.0681 -0.0693
11988W        W27882  16.155  16.341  14.254  0.1776  0.1738 -0.1487
11989W        W27883  16.615  16.458   2.394 -0.1201 -0.0652  0.0534
11990W        W27884  15.556  12.971   2.295  0.1463 -0.2193  0.2971
11991W        W27885   8.112   8.245  14.505  0.3359 -0.0822  0.0739
11992W        W27886   4.919  11.136   0.769 -0.0465 -0.0382  0.0797
11993W        W27887  15.990  17.235   2.241  0.0437  0.1219 -0.1964
11994W        W27888   3.797   1.795  11.400 -0.0406  0.0533  0.0397
11995W        W27889   8.276   0.381   1.936  0.3051 -0.1378  0.1439
11996W        W27890   4.461   8.339  11.533  0.1520  0.1591  0.1912
11997W        W27891  13.091   8.219   4.953 -0.1824  0.1917  0.0477
11998W        W27892  14.489   2.697   2.746  0.0481  0.0287 -0.3629
11999W        W27893  14.085   4.506   5.174  0.1785 -0.0857  0.3263
12000W        W27894   3.013   7.317  13.884  0.3554 -0.3400 -0.1171
12001W        W27895   6.205   1.003  12.802  0.0970  0.0605 -0.1892
12002W        W27896   8.446   7.841   0.906 -0.0285 -0.2282  0.0602
12003W        W27897  11.232   0.552  13.691  0.1383  0.1577  0.1351
12004W        W27898  14.419   6.748   0.744  0.0298 -0.1558  0.2576
12005W        W27899   9.356   9.826  16.886  0.0960  0.3305 -0.0316
12006W        W27900  11.929   4.904   4.425 -0.0331 -0.0299  0.2291
12007W        W27901  16.866  13.362   3.319 -0.2575  0.0398 -0.1062
12008W        W27902   6.394   7.933  14.674 -0.1599  0.0388  0.1691
12009W        W27903  14.586   9.996   2.034  0.0984 -0.2084  0.1981
12010W        W27904  12.027   9.078   5.191  0.0715  0.1161  0.0124
12011W        W27905   2.506  16.160   2.672 -0.3754 -0.2436 -0.0910
12012W        W27906  12.007   0.118  13.987 -0.1239 -0.1259  0.0787
12013W        W27907   1.848  15.733   0.500 -0.0169 -0.0587  0.1788
12014W        W27908   1.410   7.118  11.025  0.3429  0.1570 -0.0241
12015W        W27909  14.815  15.469  15.246 -0.1576 -0.0530  0.2041
12016W        W27910  16.728  13.551  16.257  0.1300  0.0910  0.2043
12017W        W27911   5.519  12.269  13.230 -0.0733 -0.3224  0.1836
12018W        W27912   7.435  10.328   5.487  0.1771  0.0610 -0.0993
12019W        W27913  17.811   9.482   5.054  0.2769 -0.0830  0.1235
12020W        W27914  14.160  14.469  13.971  0.0797  0.1587 -0.1014
12021W        W27915  10.872  16.532  12.133 -0.1649  0.1929 -0.0097
12022W        W27916  11.659   3.453   4.567  0.0785 -0.0628  0.2550
12023W        W27917  13.267   8.543   2.756 -0.1443 -0.0375 -0.0176
12024W        W27918   3.800   0.269   3.474 -0.1456 -0.1360 -0.1955
12025W        W27919  10.725   6.497  15.774  0.1544  0.1303 -0.0290
12026W        W27920   6.480  12.201  13.265  0.1294  0.1934 -0.5253
12027W        W27921   7.542   5.947   4.822  0.1132 -0.3208 -0.2552
12028W        W27922  14.937  12.823  13.720 -0.0590  0.1995 -0.1591
12029W        W27923   0.801   3.883   4.731  0.1395  0.0764 -0.2885
12030W        W27924  12.357   9.604   4.684 -0.5050  0.0661 -0.1681
12031W        W27925   7.621   9.937   1.345 -0.1201 -0.1314 -0.0939
12032W        W27926  12.879  13.958   3.753 -0.3451  0.0259 -0.0238
12033W        W27927  16.831   7.668  12.968 -0.1523 -0.0210  0.1835
12034W        W27928  10.526   1.062  14.098  0.1621 -0.1859 -0.1983
12035W        W27929   5.861   5.698   0.369 -0.0538  0.3894  0.0254
12036W        W27930  12.072  15.540  14.194  0.2383  0.2281  0.1710
12037W        W27931   2.311   3.162   0.526  0.0777 -0.1352 -0.1258
12038W        W27932  14.215  16.313   0.860  0.0259 -0.0831  0.0678
12039W        W27933   8.903   4.359   1.077  0.1288  0.3017  0.1181
12040W        W27934   2.986  13.601   0.050  0.1042 -0.0785  0.2238
12041W        W27935   4.747  10.451   1.884  0.0597 -0.0816  0.0859
12042W        W27936   9.253   9.856   1.891  0.3923 -0.1645 -0.1400
12043W        W27937  16.478   3.536  11.865 -0.1066  0.0157 -0.3448
12044W        W27938  15.497   8.361  16.707 -0.0884 -0.0192 -0.2403
12045W        W27939   3.379   0.173   3.077  0.2494 -0.0017  0.0217
12046W        W27940  12.691  14.257   2.290 -0.1740 -0.5174  0.2252
12047W        W27941  12.148   7.529   4.292 -0.1359 -0.1752  0.0043
12048W        W27942  13.726   2.556  14.233  0.1947  0.1988 -0.0617
12049W        W27943  15.255   3.696   2.198 -0.1813  0.0995 -0.2219
12050W        W27944   4.416   3.109   2.295  0.1448  0.0579 -0.3401
12051W        W27945   9.058   7.472  12.213  0.1306  0.0004  0.1669
12052W        W27946   6.029   4.953  15.566 -0.0044  0.0068 -0.0821
12053W        W27947   5.783  13.073   4.942 -0.3822 -0.3664 -0.0326
12054W        W27948   4.902   1.396  15.605 -0.0867 -0.1714  0.3423
12055W        W27949  16.992   7.583   0.989 -0.0147 -0.1611  0.1003
12056W        W27950   5.225   9.430   6.155  0.0445  0.0845  0.1170
12057W        W27951   2.611  17.462   1.383 -0.2143  0.1133  0.0366
12058W        W27952  14.066   4.360  14.841  0.2403  0.3186  0.2524
12059W        W27953   7.815  11.906  14.782 -0.0300  0.0781  0.1537
12060W        W27954  14.446   9.680   2.384  0.0509  0.3448 -0.0452
12061W        W27955  16.522  15.394  12.868  0.1962  0.0386  0.0941
12062W        W27956   5.478  16.782  15.022  0.1765 -0.0921  0.0695
12063W        W27957  11.609   4.720   4.095 -0.1176 -0.1187 -0.0459
12064W        W27958   2.795   7.582   1.830 -0.0511 -0.2530  0.0090
12065W        W27959   5.015  14.752   2.002  0.0317  0.3601 -0.3220
12066W        W27960   0.088   1.889   1.942 -0.0376 -0.1950  0.0593
12067W        W27961   0.228   2.615   4.032 -0.0377 -0.3870 -0.0668
12068W        W27962  15.629   6.748   3.996  0.1225  0.2652  0.3208
12069W        W27963   3.698   0.283  16.394  0.1464  0.0132  0.3208
12070W        W27964  16.463  10.083   1.842 -0.0318  0.0348 -0.1777
12071W        W27965   1.214  17.760   4.958 -0.0552  0.1877  0.0516
12072W        W27966   8.568   5.105   1.641  0.0788  0.1565  0.0716
12073W        W27967  16.882  15.554  15.786  0.0220  0.0346  0.0469
12074W        W27968   6.342  17.003   1.309 -0.2677  0.2197  0.1304
12075W        W27969   6.128  10.038   4.139 -0.4053 -0.2821 -0.1025
12076W        W27970   1.257   5.898  15.926 -0.1153 -0.0421 -0.2043
12077W        W27971   7.098   0.035   1.681  0.1356 -0.0006 -0.1493
12078W        W27972   0.703   5.126   3.064  0.1081  0.1880 -0.1845
12079W        W27973  10.074   4.225   1.855 -0.1148  0.2528 -0.0245
12080W        W27974  12.874   2.861  15.884 -0.1745 -0.2578 -0.1498
12081W        W27975  10.253   4.700   2.176  0.0483 -0.2149  0.1133
12082W        W27976  10.343  11.563   6.510  0.0808 -0.2653 -0.0317
12083W        W27977   1.816  11.308  15.411  0.1284  0.0037  0.1308
12084W        W27978  16.760  11.422   3.761  0.0130 -0.3108 -0.0427
12085W        W27979   0.414   2.691   1.951  0.1810  0.0658  0.3925
12086W        W27980   4.863  16.191   4.412  0.2157  0.0642 -0.2933
12087W        W27981   8.448   6.682  15.794  0.0767 -0.2187  0.1389
12088W        W27982   5.556   4.530   0.013  0.1484  0.0266 -0.1059
12089W        W27983  15.399   4.635  13.525 -0.1358 -0.1190  0.0054
12090W        W27984  15.463  14.018  13.906 -0.0157 -0.1877  0.0536
12091W        W27985   7.397   7.522   5.514 -0.1097  0.1162 -0.1025
12092W        W27986   2.190   0.077  12.510  0.2166 -0.1301 -0.4032
12093W        W27987   7.140  16.351  14.817 -0.4376 -0.2456  0.1216
12094W        W27988   2.483  14.321  14.940 -0.3702  0.1422  0.0616
12095W        W27989   9.009  12.256  13.601 -0.0695 -0.1299 -0.1418
12096W        W27990   6.960  10.348   5.678  0.3119  0.0761  0.4536
12097W        W27991   5.088  13.780   0.697 -0.0572 -0.0515  0.0319
12098W        W27992   5.402  12.568  12.757 -0.0205  0.2220  0.0986
12099W        W27993   3.628   0.592  16.855 -0.1531  0.1457 -0.1176
12100W        W27994   9.047   4.258   2.214  0.1254  0.2151  0.2929
12101W        W27995  10.293   8.863  14.882 -0.0980 -0.0705  0.1061
12102W        W27996   4.540  11.946  14.604  0.0317 -0.2468 -0.2519
12103W        W27997   0.198   6.606   2.496 -0.1491 -0.0147  0.0738
12104W        W27998   7.947   2.846   3.954  0.0737 -0.0749 -0.2461
12105W        W27999  15.622  15.181   5.031 -0.4986 -0.1706  0.2836
12106W        W28000   9.280  15.612  14.796  0.2703 -0.0057 -0.2590
12107W        W28001   2.234   8.285   2.269 -0.2167  0.1880 -0.4243
12108W        W28002  15.856   0.369   5.174  0.0400 -0.1077 -0.0770
12109W        W28003   9.954   5.841   0.195 -0.0111  0.0184 -0.1272
12110W        W28004   1.343   8.701   6.320 -0.4004 -0.1437 -0.1491
12111W        W28005   8.013  16.413  15.160 -0.0726  0.1226  0.1525
12112W        W28006   9.203  10.615   1.586 -0.3484  0.1574 -0.2912
12113W        W28007  11.727  11.341  13.516  0.1001 -0.0296 -0.1492
12114W        W28008  15.656  17.678   0.241  0.2048  0.0604 -0.2436
12115W        W28009   0.133   9.137   3.936 -0.1777 -0.0467  0.0883
12116W        W28010   3.551  13.356   5.865  0.1535 -0.1089  0.1296
12117W        W28011   7.496   8.479   0.351 -0.1358 -0.1479  0.2670
12118W        W28012   6.713  17.841  14.022  0.0887  0.0305 -0.5484
12119W        W28013   3.963  11.447  15.956 -0.1975 -0.0288 -0.0066
12120W        W28014   8.989  13.749  16.725  0.0295 -0.1333  0.1712
12121W        W28015   7.227  12.575   0.940 -0.2628 -0.0352 -0.0685
12122W        W28016  11.153   3.575   3.917 -0.0416 -0.1888  0.2055
12123W        W28017   9.643  12.262  16.080 -0.1085 -0.0874  0.0771
12124W        W28018  10.851  14.771   4.998 -0.1458 -0.1908  0.0159
12125W        W28019   6.887   3.936   0.470  0.1095 -0.2229 -0.0384
12126W        W28020   8.828  11.126  12.813  0.1611  0.0761 -0.1439
12127W        W28021   6.214   3.816   1.040  0.1725  0.0548 -0.2570
12128W        W28022   6.831  13.716   4.378 -0.0901  0.0158  0.0191
12129W        W28023  14.759   9.348  12.382 -0.3759 -0.0837 -0.1003
12130W        W28024  17.451  15.078   4.110  0.2819  0.0303  0.1060
12131W        W28025   4.468   8.528   3.444 -0.1182  0.1386 -0.0354
12132W        W28026   4.258  17.665  15.176  0.3368 -0.1810  0.5244
12133W        W28027   0.142  11.707  13.233 -0.1559  0.0764 -0.0544
12134W        W28028  15.060  13.284  16.489  0.2313  0.1967  0.1387
12135W        W28029   7.334  10.669  16.789 -0.0160 -0.1632  0.1978
12136W        W28030   0.876   1.383   3.470  0.0279  0.1177 -0.0507
12137W        W28031  13.497   3.318   3.879  0.1595 -0.1284 -0.0872
12138W        W28032   4.243   7.041  12.224  0.0598 -0.1122  0.0842
12139W        W28033   5.156   0.372  14.322  0.0269  0.2533 -0.0406
12140W        W28034  12.341   0.684  14.371  0.0871 -0.1507  0.1457
12141W        W28035  11.512  17.551   5.943 -0.0631  0.0229 -0.1731
12142W        W28036   2.577   6.517   2.891  0.1761 -0.1011 -0.0903
12143W        W28037   9.732  12.253   2.197 -0.1628 -0.1304 -0.2811
12144W        W28038  15.563  14.288  13.120 -0.0792  0.0178  0.0326
12145W        W28039  15.284   9.182   3.486  0.0245 -0.0865  0.1759
12146W        W28040  15.820   1.872   2.510 -0.1410 -0.1904 -0.1408
12147W        W28041   4.656   7.819   1.888  0.1148 -0.0105 -0.2149
12148W        W28042   6.794   4.470  15.980  0.1580  0.4205  0.1260
12149W        W28043   2.058  13.703  15.113 -0.0450 -0.2665 -0.1777
12150W        W28044   1.533  15.076   1.299 -0.1250 -0.4143 -0.2669
12151W        W28045   0.007   1.881  13.910  0.3050  0.3106  0.2987
12152W        W28046   7.468  15.506  13.750 -0.2216  0.1234 -0.1742
12153W        W28047  14.504   9.871   0.662 -0.0776 -0.1077  0.1781
12154W        W28048  13.968  16.823   3.007  0.1045 -0.0167 -0.0539
12155W        W28049   7.704   0.827   2.588 -0.2302  0.1445 -0.2009
12156W        W28050   8.978   2.962   4.472 -0.2690  0.0962 -0.0375
12157W        W28051  10.898   3.951   3.032  0.3976 -0.0639 -0.2578
12158W        W28052   4.398  11.683  14.145  0.1655  0.2151 -0.1573
12159W        W28053   9.245  15.304  13.805  0.2178 -0.0562  0.1245
12160W        W28054   1.729  13.307   3.867  0.1177  0.1400 -0.0376
12161W        W28055  17.557   1.756   1.054 -0.2411 -0.0206 -0.0193
12162W        W28056   9.594   7.525   3.074 -0.2016  0.1136  0.1678
12163W        W28057  16.024  16.884   1.901  0.2085  0.1113  0.1405
12164W        W28058  12.381  12.251   5.542 -0.0242  0.0056 -0.0207
12165W        W28059   7.459   5.635   1.240 -0.1084  0.5138  0.2316
12166W        W28060   5.469   3.114  10.739 -0.0120  0.1032  0.0718
12167W        W28061   2.548   5.621  16.330  0.0448  0.0547 -0.3872
12168W        W28062   7.092  11.625   1.412 -0.0357  0.0456  0.2837
12169W        W28063   1.079  17.441   5.352 -0.3131 -0.1220 -0.0410
12170W        W28064  10.431   4.158  12.971  0.3946  0.0513  0.0274
12171W        W28065  16.058  17.514   3.017  0.1952  0.0764  0.0741
12172W        W28066  15.961  16.126  10.892  0.0619 -0.0241  0.1591
12173W        W28067   8.764   0.502   1.907  0.0792  0.0626 -0.2353
12174W        W28068   4.571   4.658   1.108 -0.0700 -0.2117  0.0551
12175W        W28069   5.111   2.392  15.662 -0.0293 -0.2410 -0.0152
12176W        W28070  13.648   8.582   1.063 -0.0638  0.2492 -0.0761
12177W        W28071   6.891  12.014   5.252  0.0647  0.1299 -0.1288
12178W        W28072  11.879   2.106  12.191  0.0507  0.2793 -0.1101
12179W        W28073  14.594   4.441  16.382  0.0410 -0.3021 -0.0205
12180W        W28074   6.028   0.588   4.869  0.1090  0.0767  0.1751
12181W        W28075  12.080  13.251  16.092 -0.1571 -0.1732 -0.1114
12182W        W28076  14.321   3.468   3.215 -0.0895 -0.2931  0.1597
12183W        W28077   4.956  11.031   4.542  0.1886 -0.0602 -0.0359
12184W        W28078  12.281   9.574  15.758  0.1062 -0.1632 -0.0100
12185W        W28079   7.854   7.966  12.952 -0.3390 -0.0584  0.3562
12186W        W28080   3.622  15.677  14.988 -0.0806 -0.0277  0.0050
12187W        W28081  17.688  13.559  15.548  0.0467 -0.1096 -0.0279
12188W        W28082   4.213  10.687  15.570  0.0510  0.2173  0.0940
12189W        W28083  11.347   1.449   2.365 -0.1644 -0.2147  0.1571
12190W        W28084   8.672  11.920  14.745  0.1116 -0.2138  0.3885
12191W        W28085   0.110   0.342  14.729  0.0260  0.1917 -0.1516
12192W        W28086  12.193   2.161   3.286  0.1035 -0.1608  0.3214
12193W        W28087  15.475   6.523   4.969 -0.0812  0.0571  0.1133
12194W        W28088   1.489  16.069   2.931 -0.1644  0.3973 -0.0680
12195W        W28089   6.222  12.779  15.291  0.1697  0.1390 -0.0953
12196W        W28090   6.361   5.984  16.385 -0.0548  0.3197  0.0880
12197W        W28091   4.195  15.237  15.155  0.4946 -0.0764  0.1437
12198W        W28092  13.080  16.828  13.004 -0.3488 -0.0519 -0.1263
12199W        W28093  17.529  15.935  11.824  0.0765 -0.0025  0.2276
12200W        W28094   7.699  16.557   5.717 -0.0290 -0.0843 -0.1567
12201W        W28095  12.670   7.871  13.552 -0.0247 -0.1255 -0.0080
12202W        W28096   7.871   0.114  13.056  0.0722  0.0115  0.1034
12203W        W28097   8.906   4.248  15.479  0.2357  0.0292  0.1728
12204W        W28098   1.029   6.306  15.808  0.2029 -0.3381  0.0345
12205W        W28099   1.132  14.031   3.959  0.1585 -0.0636  0.0831
12206W        W28100  10.470   3.032   4.315 -0.3148  0.1497  0.3445
12207W        W28101  12.315   7.660  11.749 -0.0729 -0.1936  0.1509
12208W        W28102   3.832   2.525   2.363  0.1383  0.2645 -0.0167
12209W        W28103  12.934  11.646  13.118  0.0888  0.1968 -0.0198
12210W        W28104  12.300  17.182  15.879 -0.1216 -0.2049 -0.0141
12211W        W28105  13.030   1.745  15.463  0.1026  0.0689 -0.2799
12212W        W28106  16.803  12.761  13.204 -0.0355 -0.3000 -0.0841
12213W        W28107  12.496   8.248  15.123  0.0753 -0.2897 -0.0303
12214W        W28108  17.434   2.297   5.125 -0.3224 -0.0852 -0.4150
12215W        W28109  12.577  15.439   0.279 -0.2357  0.0651 -0.0388
12216W        W28110  14.790   5.081  13.945 -0.1727 -0.1072  0.1647
12217W        W28111  11.405   6.433   1.337 -0.1314 -0.4017  0.0729
12218W        W28112   0.504  17.295  12.402  0.4379 -0.1359  0.1181
12219W        W28113   2.279   2.794   0.952  0.1232  0.0284 -0.1639
12220W        W28114  10.251  13.434   4.738 -0.1847 -0.3818  0.2281
12221W        W28115   0.570  10.295   0.931  0.2256 -0.2354 -0.0307
12222W        W28116   3.017   8.529  15.246 -0.2811 -0.2408 -0.0143
12223W        W28117  10.133   8.352  14.709 -0.0422  0.2615  0.1000
12224W        W28118   6.085   7.848   0.689 -0.1478 -0.2841  0.2219
12225W        W28119  17.044   6.883  14.338  0.0516  0.2710  0.2854
12226W        W28120  13.258  13.148   4.645  0.2745 -0.0461 -0.0143
12227W        W28121   5.045   7.325  12.863 -0.2744 -0.0669  0.1011
12228W        W28122   2.260  15.371   1.057  0.1618  0.1078  0.3228
12229W        W28123   4.941   2.246  16.580 -0.0338  0.1569 -0.0443
12230W        W28124  14.080   0.950   1.201  0.1188 -0.1802  0.0261
12231W        W28125  14.758   1.646  12.759  0.1308  0.0211 -0.2096
12232W        W28126   0.362   7.598   2.905 -0.2022 -0.1410 -0.0088
12233W        W28127   3.410   2.861  15.250 -0.2971  0.2892  0.2913
12234W        W28128   8.729   0.693  10.868 -0.0802 -0.1429  0.2138
12235W        W28129   3.457   9.966   2.062 -0.1260  0.3327  0.0121
12236W        W28130   8.134   5.546  16.594  0.0249  0.0417  0.0145
12237W        W28131   6.715   1.895  12.662  0.1094  0.0057 -0.0318
12238W        W28132  13.668   1.168   1.340  0.0762  0.1699 -0.0584
12239W        W28133  13.214   6.055   1.696 -0.0810 -0.0491 -0.1944
12240W        W28134  15.144   5.426   5.466  0.2999  0.1783 -0.1143
12241W        W28135   1.505   4.633   1.924  0.1235 -0.1054 -0.4994
12242W        W28136   1.052   4.708  11.544 -0.1371  0.1980 -0.0377
12243W        W28137   5.810   7.223  16.151  0.0263  0.0265  0.0572
12244W        W28138   0.504   5.589   1.834 -0.1130 -0.1172 -0.1639
12245W        W28139   0.962   8.392  12.230 -0.0841  0.1419 -0.0041
12246W        W28140  10.190  14.265  13.230 -0.2333  0.0433  0.1457
12247W        W28141   7.078  15.576   1.501 -0.0560 -0.1604 -0.0158
12248W        W28142   5.801   2.518   5.281 -0.1133 -0.0886  0.0340
12249W        W28143  15.280  12.120  13.667  0.2668 -0.0429  0.0926
12250W        W28144   0.370  12.091  14.970 -0.0930  0.3123 -0.3290
12251W        W28145   0.725  12.113  13.012 -0.2677  0.1365  0.0060
12252W        W28146   1.322   9.346   1.074 -0.0345 -0.0092 -0.2731
12253W        W28147   8.505  13.113  12.203 -0.2785 -0.1154  0.0032
12254W        W28148  17.485   4.334  14.130  0.0724 -0.0602 -0.0670
12255W        W28149  12.540  13.262   5.238 -0.1133 -0.1068  0.0502
12256W        W28150   8.708   2.222   2.572 -0.0297  0.0377  0.2519
12257W        W28151  17.124   0.711  16.056  0.0896  0.1057  0.0781
12258W        W28152  17.575   0.467  11.571  0.0749  0.3154 -0.0318
12259W        W28153  15.384  13.930   0.928 -0.0503  0.0127 -0.3063
12260W        W28154   4.739   9.728   4.605  0.2448 -0.1246 -0.1011
12261W        W28155   6.523  13.978  13.030 -0.1551  0.2122  0.3556
12262W        W28156  16.603   5.568   2.315 -0.0546 -0.1151 -0.0818
12263W        W28157   9.235  14.307   2.437  0.0513 -0.0042  0.1289
12264W        W28158   0.354   8.396   4.446  0.3737  0.2029 -0.0605
12265W        W28159   9.124   0.103   0.874 -0.1947 -0.1111  0.1178
12266W        W28160   0.839  14.753  13.837 -0.2980 -0.0626 -0.1452
12267W        W28161  13.061  10.899  14.752 -0.1411  0.1922 -0.0471
12268W        W28162  12.157   1.845  12.508  0.2284 -0.2161 -0.0308
12269W        W28163  14.279  15.565   5.330 -0.2368 -0.2254 -0.1586
12270W        W28164   5.476   4.019  13.141 -0.1093  0.0695 -0.0615
12271W        W28165  16.261  11.982  14.585  0.1396 -0.0188  0.3706
12272W        W28166  13.110  11.532   4.868 -0.2161  0.1472 -0.1173
12273W        W28167  15.917  13.461   4.386 -0.3212  0.3937  0.1887
12274W        W28168   2.983  16.662   4.871 -0.1974  0.2704 -0.0924
12275W        W28169   2.814  15.674  14.920 -0.0328 -0.2212  0.2322
12276W        W28170   3.949  10.138   1.457  0.0711  0.0400  0.3186
12277W        W28171   4.590   2.198   3.376  0.3118  0.1742  0.1158
12278W        W28172   7.863   0.863   5.530  0.1931  0.1410 -0.1372
12279W        W28173   0.854   0.259  13.291 -0.1118 -0.0605  0.0415
12280W        W28174   6.582   7.019  13.730  0.0435 -0.0286  0.0071
12281W        W28175   4.528  15.974   4.905  0.0109  0.1338  0.1878
12282W        W28176   1.834  15.575  11.759 -0.2824  0.1287  0.0301
12283W        W28177   1.944  16.833  12.147 -0.5025 -0.1457 -0.2726
12284W        W28178   3.554   1.464   2.516  0.3733  0.0478 -0.0802
12285W        W28179  14.453   3.322   1.768 -0.0245  0.1932  0.1031
12286W        W28180  11.698  15.195   5.931 -0.3195 -0.1266  0.0626
12287W        W28181   6.173  17.203   4.148 -0.0766 -0.0143  0.2565
12288W        W28182  15.522   3.701   4.492  0.0456  0.1672 -0.0281
12289W        W28183  16.605  15.495   5.859 -0.1945 -0.0930 -0.1258
12290W        W28184   2.619   7.651  13.148  0.0733 -0.3978 -0.0278
12291W        W28185   0.337  16.337   0.653 -0.3408  0.0543  0.2530
12292W        W28186  15.527  16.884   5.024 -0.0415  0.0903  0.0537
12293W        W28187   8.605   2.289  13.333  0.0315  0.0066  0.2533
12294W        W28188   2.689  12.896   0.493 -0.2358  0.0592 -0.0244
12295W        W28189   1.125   5.405  15.114  0.0504 -0.0121 -0.2294
12296W        W28190   7.883  12.769  11.784 -0.0725 -0.0645 -0.2954
12297W        W28191   4.676   0.548  15.689  0.1842  0.0938 -0.1605
12298W        W28192   6.543   5.890   1.694 -0.0714  0.2118  0.1707
12299W        W28193   9.306   2.286   2.377 -0.1500  0.4107 -0.0466
12300W        W28194  13.413  16.479   4.671 -0.2622  0.1100  0.0684
12301W        W28195  14.192  15.762  16.366  0.1820  0.2146 -0.0774
12302W        W28196  15.673  14.594  14.139  0.1973 -0.3162 -0.1258
12303W        W28197   1.618   2.051  13.822  0.2125  0.0137 -0.0401
12304W        W28198   3.216   8.047   1.601 -0.1969  0.0554  0.0538
12305W        W28199  16.580   3.112  12.276 -0.1163 -0.0294 -0.0903
12306W        W28200  17.311  16.070  14.624  0.1000  0.1154 -0.1945
12307W        W28201  17.146  12.243   2.582  0.2270 -0.0414  0.0725
12308W        W28202   5.958   1.796   2.029  0.0961 -0.1234  0.1849
12309W        W28203   5.861  15.150   0.177 -0.0177 -0.0698  0.0646
12310W        W28204  12.663   0.737   4.289  0.2432 -0.0167 -0.1170
12311W        W28205  10.676  16.466  16.504  0.0273  0.2020 -0.2235
12312W        W28206  12.503   3.886   0.664  0.1124 -0.3176  0.0456
12313W        W28207   9.598  13.913  15.375 -0.0256 -0.0327  0.3137
12314W        W28208  12.383   5.402   6.396  0.1867 -0.0900 -0.0630
12315W        W28209   2.403   1.448   1.698  0.1288  0.0244  0.0550
12316W        W28210  12.326   2.591  11.511  0.0755 -0.1947  0.0253
12317W        W28211   1.915  15.623  14.542 -0.1411  0.0856  0.1928
12318W        W28212  14.513   6.581   5.670  0.3029  0.1865 -0.3055
12319W        W28213   1.071  14.728  14.821  0.3574 -0.1118 -0.0367
12320W        W28214   1.894  12.675  16.362  0.0357 -0.0298  0.2988
12321W        W28215   1.025  16.689  12.015 -0.1331 -0.0485  0.0048
12322W        W28216   9.023  12.354   0.314 -0.0791  0.4377 -0.0710
12323W        W28217  15.312   2.632  16.849 -0.1561  0.0187 -0.0651
12324W        W28218   6.833  17.128  12.002 -0.2230  0.4070 -0.2666
12325W        W28219   1.386   2.311  16.354  0.0921 -0.1097 -0.3438
12326W        W28220  10.645   5.663  14.093  0.1671  0.0102  0.0631
12327W        W28221   7.909  17.517  11.699 -0.1012 -0.2720 -0.4146
12328W        W28222   2.896   1.617  11.562  0.0812  0.1075  0.3052
12329W        W28223   6.104  11.896  13.282  0.0595 -0.1384  0.3129
12330W        W28224  13.825   3.687   4.077 -0.0748 -0.0257  0.0781
12331W        W28225   5.918  14.961   3.829 -0.1485  0.1194 -0.0856
12332W        W28226   5.623   0.694   3.571  0.3198  0.2014  0.0411
12333W        W28227  17.259   1.235   0.441  0.1405  0.1593  0.1352
12334W        W28228  14.084   7.065   2.321 -0.1883  0.0715  0.4518
12335W        W28229  17.481   6.776   5.301 -0.4030 -0.0366  0.0784
12336W        W28230   7.588  11.207  15.597  0.1630  0.1697  0.0831
12337W        W28231   6.459   3.455  13.146  0.1720 -0.0385 -0.1109
12338W        W28232  16.077   3.617   0.802 -0.0446  0.0978  0.1608
12339W        W28233  13.239   5.312  12.754 -0.0491  0.0360  0.4521
12340W        W28234   2.016   5.369  16.185 -0.0714 -0.3112  0.0462
12341W        W28235   6.170   9.667   1.012  0.2595 -0.1923 -0.0890
12342W        W28236  16.779   3.397  13.199 -0.0478  0.0463  0.2735
12343W        W28237   6.235  11.934  12.039 -0.0117  0.2323  0.1075
12344W        W28238   2.082  11.437   3.593  0.1144  0.1674 -0.0505
12345W        W28239   4.711  12.824   4.737  0.0618  0.3077  0.0748
12346W        W28240   7.105   9.406  14.542  0.2096  0.1444 -0.2533
12347W        W28241   1.101   4.444  12.919  0.0233  0.2680  0.2945
12348W        W28242  15.831  13.899   0.708 -0.1914 -0.1399 -0.0053
12349W        W28243   4.262   3.115  13.867 -0.0052 -0.1324 -0.0210
12350W        W28244   7.830   7.738  16.516  0.0512  0.1109  0.3467
12351W        W28245  14.642  12.360  14.597 -0.1567 -0.0675  0.2362
12352W        W28246  13.182   4.623  15.838  0.1331 -0.2863  0.2662
12353W        W28247   1.817   7.791  13.369  0.2818 -0.2925 -0.1992
12354W        W28248  14.227  15.289   5.803  0.1476  0.1228  0.0469
12355W        W28249   9.971  16.170   2.868  0.0257 -0.1157 -0.0372
12356W        W28250   1.545   1.668  14.664 -0.0922 -0.1465 -0.4385
12357W        W28251  17.500  17.642  13.212  0.4011 -0.0945  0.0785
12358W        W28252  13.139   6.011   4.510 -0.1964 -0.0747 -0.3248
12359W        W28253   6.282  15.159  12.172  0.0488  0.1998  0.2138
12360W        W28254  10.274   0.898  15.744  0.1229  0.1752 -0.0246
12361W        W28255  14.105   9.719   1.976  0.4955 -0.1016  0.1451
12362W        W28256  14.146   8.260   1.793 -0.1090 -0.1714  0.0694
12363W        W28257  15.907   6.859   1.478 -0.0121  0.0369  0.0458
12364W        W28258   2.836   4.118   0.770 -0.2810  0.2191 -0.1578
12365W        W28259  10.035  13.298   1.504 -0.0952  0.0363 -0.3205
12366W        W28260   2.008  14.664  14.794 -0.3684  0.0339  0.1914
12367W        W28261  14.509   3.090  13.308 -0.0922  0.2482  0.0346
12368W        W28262   4.060   8.926  13.747  0.0183 -0.1515  0.1386
12369W        W28263   2.669  14.214  16.267 -0.1899 -0.1280 -0.1918
12370W        W28264  10.482   4.453  14.402 -0.3347  0.0594 -0.1086
12371W        W28265   5.282  14.792   1.548 -0.0120  0.0584 -0.3630
12372W        W28266  14.231   3.533  13.311  0.0331  0.1313  0.2646
12373W        W28267  11.565   3.361   4.062 -0.1942 -0.1283 -0.2370
12374W        W28268  11.442  10.913   0.045 -0.0317  0.0908 -0.1258
12375W        W28269  13.309   6.563   2.633  0.2030 -0.0422  0.0513
12376W        W28270   8.119   6.692   1.049 -0.0654 -0.2173  0.2234
12377W        W28271   5.339   0.254   0.435 -0.0031 -0.1852  0.1097
12378W        W28272   5.895  15.938  11.788  0.0825 -0.0258  0.2419
12379W        W28273   9.950   0.667  13.544  0.1121  0.0433  0.1483
12380W        W28274   9.052   4.866   0.369 -0.1532 -0.0077  0.0374
12381W        W28275  15.783  15.938   2.716 -0.0708 -0.0439 -0.0399
12382W        W28276  16.091   9.442  13.356 -0.2378 -0.1340  0.2160
12383W        W28277   7.267  16.969   1.336 -0.0908 -0.1457  0.0061
12384W        W28278  12.122   0.128   0.640 -0.0184  0.0433 -0.1897
12385W        W28279   0.783   4.459   1.801  0.0994  0.0182  0.0177
12386W        W28280  16.977  14.199   0.909 -0.2103  0.3397  0.0685
12387W        W28281  15.434   1.306  11.903  0.1195 -0.0953  0.0757
12388W        W28282   7.350   1.969  16.761  0.5056  0.1614  0.2564
12389W        W28283   7.348   2.884  12.311 -0.3988 -0.1178  0.0808
12390W        W28284  14.854   3.520   0.378 -0.4071 -0.0658  0.3073
12391W        W28285   9.278  11.190  13.063 -0.1396  0.3431  0.3436
12392W        W28286   7.596  16.409  14.943 -0.0169  0.0074 -0.1445
12393W        W28287   1.055   4.140  14.674  0.2765 -0.0790 -0.0440
12394W        W28288   6.468   6.564  16.203  0.2061  0.0469 -0.2613
12395W        W28289   8.091  10.077   2.605  0.1560  0.1339 -0.0526
12396W        W28290   6.816   1.562   2.572 -0.1866 -0.0979  0.0424
12397W        W28291   5.079  15.556   1.177  0.0889 -0.1590  0.2979
12398W        W28292   7.942   5.905   5.923 -0.2076  0.1540  0.0356
12399W        W28293   4.922  12.939   3.826  0.1116  0.2790  0.0839
12400W        W28294  16.826   0.023  13.769 -0.1117 -0.0349  0.4708
12401W        W28295   8.602  17.393  12.729  0.0006  0.1751  0.2299
12402W        W28296  11.375  16.670  14.426 -0.2255  0.1379  0.1871
12403W        W28297  14.832  13.751   5.976  0.0847  0.2902 -0.0429
12404W        W28298   7.047   9.240   0.501  0.0108 -0.1167  0.1702
12405W        W28299   7.042   2.057  15.877 -0.1296 -0.2769  0.2796
12406W        W28300  15.251   4.697   0.176 -0.0782  0.1799 -0.1240
12407W        W28301  14.762  17.002  13.196  0.0824  0.2142 -0.0201
12408W        W28302   6.629   7.285  13.152  0.0522  0.0215 -0.2474
12409W        W28303  10.895   2.493  11.765 -0.1450  0.3182 -0.1350
12410W        W28304  10.067  15.923  14.081  0.0537 -0.0293 -0.0993
12411W        W28305  13.223   5.053   0.778 -0.0818  0.1164 -0.0736
12412W        W28306   2.355  16.199   3.257 -0.0667  0.1933  0.1360
12413W        W28307  15.704   0.795   3.516  0.3398  0.2395  0.2842
12414W        W28308   0.889  14.032  15.561  0.0235  0.0107 -0.1750
12415W        W28309   4.078  17.457   2.151 -0.1700  0.1076  0.0092
12416W        W28310  17.600  16.158   5.469 -0.0841  0.0470  0.1866
12417W        W28311  11.596   9.364  15.606  0.1107  0.0038  0.0273
12418W        W28312   7.365   9.916  16.583 -0.0008  0.1072  0.0348
12419W        W28313  15.415   6.086  15.041 -0.0977 -0.2317 -0.4507
12420W        W28314  11.463   1.395   6.029  0.1252  0.1106  0.0099
12421W        W28315   5.513  17.057   2.766 -0.0110  0.2662 -0.0634
12422W        W28316   1.803   2.230  11.962 -0.0885  0.0799  0.2256
12423W        W28317  10.909   2.463  14.715  0.1233  0.3334 -0.0487
12424W        W28318   1.761   9.912  13.687  0.0696 -0.0731 -0.0817
12425W        W28319  12.741  16.234  11.891 -0.3166  0.3173  0.0973
12426W        W28320   4.759   1.409  12.979 -0.0064 -0.1366  0.1923
12427W        W28321   1.761  16.946  11.707 -0.0322 -0.2213  0.0620
12428W        W28322  11.270   8.152   4.076  0.1685 -0.0289 -0.1425
12429W        W28323   4.836   1.993  14.340 -0.1745 -0.1848  0.4003
12430W        W28324  12.438   7.422  15.993 -0.0062 -0.3145  0.0121
12431W        W28325   4.213   5.406  15.947 -0.2650  0.0391 -0.0025
12432W        W28326   9.170   0.715  16.199 -0.1177  0.1471 -0.1217
12433W        W28327   6.312  15.144   4.686 -0.0453  0.1051  0.1597
12434W        W28328   1.121   8.513   5.173  0.0614 -0.0806  0.0805
12435W        W28329   5.197  16.528  13.424 -0.0677 -0.2498 -0.0152
12436W        W28330  12.956   8.062   0.742  0.0252 -0.0949 -0.0166
12437W        W28331  13.574  13.004   4.209  0.1978 -0.2417  0.1346
12438W        W28332   6.482   1.476   0.634 -0.0762 -0.1697 -0.3711
12439W        W28333  12.981   8.277   3.127  0.0167 -0.1304  0.1446
12440W        W28334  11.953   5.135  15.923  0.1751  0.1239 -0.1627
12441W        W28335   1.609   9.735   1.085  0.1463  0.0441 -0.3044
12442W        W28336  17.843  14.778   1.275  0.3276  0.0652  0.1687
12443W        W28337   6.718  10.626   6.176  0.2276  0.0439  0.0345
12444W        W28338   1.352   8.420  16.836 -0.3018  0.3287 -0.0016
12445W        W28339   1.984  12.530  11.857  0.1850 -0.0086  0.4868
12446W        W28340   7.559  11.073  13.118  0.0771  0.1346 -0.0486
12447W        W28341   8.772  12.621   3.999  0.1059  0.1821  0.1325
12448W        W28342   1.132   6.559  13.074  0.3221  0.1153 -0.0239
12449W        W28343  11.708  12.749   3.037  0.1734  0.3359  0.0846
12450W        W28344   7.855   9.180  12.758  0.0129  0.1069 -0.1962
12451W        W28345  17.445  16.831  12.143 -0.1065 -0.1284  0.0313
12452W        W28346  10.908  12.619  14.117 -0.2679 -0.0289 -0.0883
12453W        W28347   2.967   8.108   5.933  0.2083 -0.0606  0.0309
12454W        W28348   5.937  12.890  12.076  0.0069  0.0707  0.0549
12455W        W28349   8.471  15.762  15.826  0.1542  0.0248  0.0045
12456W        W28350   8.146  11.504   2.710  0.1349 -0.1034  0.0159
12457W        W28351  17.226  15.784   2.182 -0.0334  0.1399  0.3625
12458W        W28352  12.765   3.683  16.874 -0.2439 -0.0043  0.3646
12459W        W28353   9.544  16.433  11.989 -0.0621 -0.0495 -0.1434
12460W        W28354   3.299   6.662  12.319  0.0786  0.1598 -0.1017
12461W        W28355   3.336   7.662  13.808 -0.2157  0.4507 -0.0687
12462W        W28356  14.478   9.114   3.300  0.1965  0.1143  0.1665
12463W        W28357   0.025  13.065  15.589 -0.0042 -0.2490  0.1624
12464W        W28358   0.980   4.982  13.778 -0.0503  0.4336  0.1130
12465W        W28359   1.264  12.717   1.730 -0.0262 -0.0967 -0.4280
12466W        W28360   9.045   9.270   4.521 -0.6510 -0.3591 -0.2719
12467W        W28361   8.959   3.854  15.180 -0.2347 -0.1012 -0.2690
12468W        W28362  14.275   2.043   2.690  0.1717 -0.2064 -0.1243
12469W        W28363   7.577   9.307  12.329 -0.2937 -0.1155  0.0996
12470W        W28364   2.048  15.860  16.513 -0.1787  0.0456  0.1176
12471W        W28365   9.269   8.412   0.876  0.2764  0.0098 -0.0243
12472W        W28366  17.054   1.530   4.496 -0.4008 -0.1236  0.1193
12473W        W28367   8.188  16.088   0.328  0.3597 -0.2248  0.0172
12474W        W28368  17.380  16.643  16.576  0.0939  0.0913 -0.3072
12475W        W28369   7.943  13.068  14.320 -0.0605  0.0137  0.0905
12476W        W28370   3.557   2.196   0.128  0.3037 -0.0375 -0.0821
12477W        W28371   1.702   0.309   0.428 -0.1241  0.2602 -0.3230
12478W        W28372  12.892  10.909   5.677 -0.2023 -0.0890 -0.1316
12479W        W28373   5.860   6.920   4.235 -0.0668  0.0788  0.1772
12480W        W28374   5.165   0.351   1.307 -0.1448 -0.2187 -0.0045
12481W        W28375  13.816  15.086   0.685  0.1217  0.0120 -0.0805
12482W        W28376   6.706  17.367   1.405  0.1720 -0.1735  0.0908
12483W        W28377   1.074   6.285  15.282 -0.2259  0.1107  0.0936
12484W        W28378   7.997   2.815   3.073 -0.1538 -0.1002 -0.2888
12485W        W28379  14.355  12.122   1.397 -0.2130 -0.0671  0.3380
12486W        W28380   0.773  17.851  16.874  0.0970  0.2795  0.0177
12487W        W28381   4.775   8.112   4.493 -0.0479 -0.0894  0.0435
12488W        W28382   4.559   6.075  14.227 -0.0914  0.2598 -0.0120
12489W        W28383  15.940   3.581  11.927  0.1075  0.1654 -0.0636
12490W        W28384   6.208  16.603  16.536 -0.0154 -0.2061  0.2073
12491W        W28385   5.678  13.735  13.360 -0.1066  0.2019  0.0688
12492W        W28386   6.649   7.194   5.121 -0.1547  0.0332  0.1259
12493W        W28387   4.211  14.705   0.818 -0.0491  0.1602 -0.1076
12494W        W28388   1.894   0.159  13.762  0.1895  0.0036 -0.1295
12495W        W28389  16.571  11.696  15.613  0.1726  0.0219 -0.2211
12496W        W28390   4.817  10.193   5.166  0.0282  0.1922 -0.2653
12497W        W28391  10.708  13.170   1.077 -0.3355 -0.2651 -0.0198
12498W        W28392   9.825   2.654   3.571  0.0827 -0.0613  0.4227
12499W        W28393   8.060  17.691   5.647  0.0656 -0.1484  0.2213
12500W        W28394   3.794   3.776   5.161  0.0163 -0.0744 -0.0558
12501W        W28395  13.930  16.647  15.234  0.0032 -0.0135  0.2718
12502W        W28396   7.165  13.345  16.379 -0.0141 -0.1348  0.0890
12503W        W28397   7.545   9.236   4.263  0.3346  0.0495 -0.2042
12504W        W28398   5.188   7.010   4.726  0.1568 -0.2092 -0.2069
12505W        W28399  17.300   9.930   5.464 -0.1880  0.1237 -0.1233
12506W        W28400  17.312   5.977  14.379 -0.1787 -0.0255  0.1616
12507W        W28401   7.859   2.094   6.060 -0.4932 -0.0751  0.2811
12508W        W28402   2.250   8.533   0.086 -0.1366  0.0795  0.0933
12509W        W28403   5.597  15.612  12.546 -0.0366 -0.1249 -0.1655
12510W        W28404   2.133  15.366   5.740  0.1169 -0.1925 -0.1567
12511W        W28405   4.899   9.661  11.033  0.0895  0.1843 -0.0990
12512W        W28406   6.053   9.908  16.042  0.2394  0.2492  0.0362
12513W        W28407   5.382  12.955   0.397  0.0337 -0.0078 -0.0881
12514W        W28408  15.127   2.734  15.912 -0.1757 -0.0482 -0.0832
12515W        W28409  12.798   4.542   4.766  0.1443  0.1427 -0.0506
12516W        W28410  14.774   2.563   4.272  0.3742 -0.5084  0.1605
12517W        W28411  17.521   9.022  12.931 -0.1611  0.2442 -0.2262
12518W        W28412   7.175  10.256  12.163 -0.1028  0.1718  0.0796
12519W        W28413  15.468   5.784   4.074 -0.0269  0.1344 -0.0459
12520W        W28414  10.201   6.279  11.662 -0.1250 -0.1328 -0.3356
12521W        W28415   0.721   3.462   1.714 -0.2202 -0.1597 -0.1155
12522W        W28416   0.482   5.133   0.034 -0.0153  0.0106 -0.0407
12523W        W28417   8.310   7.654   4.484 -0.2536  0.0260 -0.0095
12524W        W28418   8.911  11.675   5.659  0.0314  0.1610  0.0831
12525W        W28419  16.764   7.216  15.844 -0.2355 -0.2349 -0.1851
12526W        W28420   0.186   3.802  15.186  0.0103 -0.2401 -0.0201
12527W        W28421  10.584  10.951   4.151  0.1787 -0.2665  0.1732
12528W        W28422   4.515  15.211   2.430  0.2627  0.0197 -0.2497
12529W        W28423  14.763   8.387   0.355 -0.0015  0.0999  0.1627
12530W        W28424  16.611  11.925   5.521  0.1957  0.2133  0.0207
12531W        W28425   5.906  14.747  12.096 -0.0344 -0.0042  0.0448
12532W        W28426   0.083  12.830  14.007  0.1707 -0.0083 -0.3809
12533W        W28427   9.746   2.521   2.613  0.0980  0.3615  0.1089
12534W        W28428   5.437   4.954  16.464  0.3458  0.1566 -0.0669
12535W        W28429  10.835  17.451  13.918  0.1371 -0.0432 -0.1291
12536W        W28430   2.111  10.036   0.232 -0.0088 -0.2257 -0.1967
12537W        W28431  17.828   4.746  16.360  0.0656 -0.2936 -0.0916
12538W        W28432  10.803  12.096  12.408  0.0972 -0.1913  0.0917
12539W        W28433  14.384   6.840  15.594 -0.3313  0.0653 -0.2907
12540W        W28434   5.872  17.166   1.215 -0.0314  0.2797  0.0461
12541W        W28435   3.675   8.227   0.348 -0.3570 -0.4562  0.2875
12542W        W28436  14.954   2.975  13.161  0.0277 -0.0021 -0.1532
12543W        W28437  15.786   9.868  15.868 -0.2620 -0.1262  0.1456
12544W        W28438   4.116  13.286   3.440 -0.0908  0.0834 -0.1607
12545W        W28439  15.194   8.166  15.320  0.0678  0.1697 -0.1624
12546W        W28440  15.224   1.741  15.768  0.0629 -0.0854 -0.1776
12547W        W28441   0.684   1.040  13.813  0.2315 -0.1221 -0.0399
12548W        W28442   4.541  14.720  16.007 -0.0136  0.0967  0.1903
12549W        W28443   6.369   1.422  12.820  0.0568 -0.3548  0.1057
12550W        W28444  11.492   9.222   4.542 -0.0855 -0.0763 -0.0128
12551W        W28445  15.365   3.747   0.666 -0.1279  0.0288  0.1078
12552W        W28446   6.606   4.630   5.623 -0.0194  0.0759  0.3113
12553W        W28447  12.815   9.597  15.680  0.1594  0.2941 -0.3200
12554W        W28448   0.418   9.253  14.245  0.2670 -0.0597 -0.0068
12555W        W28449  15.073  12.024   5.635  0.0544 -0.1437  0.0797
12556W        W28450  16.313   6.229  16.114  0.4330  0.4910 -0.0593
12557W        W28451   0.940   9.195   1.398 -0.1276  0.0648  0.2024
12558W        W28452   0.538   1.051  11.464 -0.1350 -0.1955  0.0424
12559W        W28453  10.607  17.017  16.773  0.0323  0.0846  0.1669
12560W        W28454   6.096  17.234  15.574 -0.1530  0.1973 -0.0156
12561W        W28455  10.646   4.432  14.910 -0.0979  0.6184  0.1932
12562W        W28456   5.736  12.517   4.941 -0.0240  0.1382 -0.0671
12563W        W28457   8.091   6.420  11.635 -0.1628  0.1217  0.0993
12564W        W28458   3.537   6.191   2.623 -0.0460  0.0176  0.2432
12565W        W28459  13.288  17.100   3.830  0.0159  0.2381  0.0192
12566W        W28460  17.581  15.561   0.516  0.0208 -0.0611 -0.1137
12567W        W28461  17.757   9.342  13.697  0.1758  0.2383  0.1946
12568W        W28462   6.704   8.397  12.651  0.2172  0.0666  0.1694
12569W        W28463  12.942  15.092  15.191  0.1023  0.1665 -0.0094
12570W        W28464  11.355   0.710   0.792 -0.4104  0.2165  0.2475
12571W        W28465  13.070   2.460  15.578 -0.1901  0.1004 -0.1035
12572W        W28466   9.501  13.093   5.985 -0.3402  0.2220  0.0258
12573W        W28467  15.473  13.659   1.534  0.0714 -0.1208  0.0042
12574W        W28468   4.631   1.992  12.397  0.2713  0.1838 -0.3896
12575W        W28469  17.620   1.627   3.559 -0.2526 -0.0020  0.1466
12576W        W28470   7.992  15.987   3.149 -0.4230 -0.1938 -0.0022
12577W        W28471  10.014   8.124   2.159  0.3101 -0.1582  0.1255
12578W        W28472  12.509   5.413   4.923 -0.0956 -0.1937 -0.1157
12579W        W28473  10.354  10.768   3.691  0.2457 -0.1112  0.0783
12580W        W28474   9.224  16.893  15.996  0.0721 -0.0996  0.0814
12581W        W28475  12.298  15.207   4.295 -0.1675 -0.0783 -0.0438
12582W        W28476   2.903   0.205   3.313  0.3835  0.0738 -0.0683
12583W        W28477  11.521   3.031   3.244 -0.0952 -0.0760 -0.0574
12584W        W28478   7.978   6.364   6.215 -0.1803 -0.2918  0.0850
12585W        W28479   6.438   6.147  13.612 -0.2617 -0.0814  0.1296
12586W        W28480   9.397   9.284   3.287  0.1804  0.0946 -0.1185
12587W        W28481   2.578   9.788  15.145 -0.2416  0.0487 -0.0263
12588W        W28482  13.026   8.551   5.272  0.0261 -0.2319  0.2924
12589W        W28483  15.959   7.102   4.265 -0.2802  0.1264 -0.0659
12590W        W28484  16.956  11.593  16.906 -0.3580  0.3704  0.0884
12591W        W28485  16.901   4.814  15.131  0.4170  0.3033 -0.1782
12592W        W28486   2.739   0.799  15.855 -0.2064  0.1674 -0.3900
12593W        W28487   5.968   9.361   1.734  0.1934  0.1780 -0.0011
12594W        W28488   6.009   2.862  13.643 -0.0787  0.1817  0.1822
12595W        W28489  16.343  17.661  16.376  0.3163 -0.1199 -0.0603
12596W        W28490   9.213  12.413  15.868  0.0820  0.0171 -0.0571
12597W        W28491   0.022   2.383   2.026 -0.0269 -0.0362 -0.3466
12598W        W28492  10.627  11.796   3.173 -0.0018 -0.0637  0.0399
12599W        W28493   7.003  17.537  12.201  0.2170 -0.0345 -0.3689
12600W        W28494   7.296   5.303   3.537  0.0311  0.2363 -0.1052
12601W        W28495   3.063  16.020  16.867 -0.0585 -0.0204 -0.0425
12602W        W28496   3.324   2.537   2.348  0.0807  0.1742  0.3994
12603W        W28497  12.075   5.210   4.841  0.1099 -0.1540  0.3435
12604W        W28498   9.059   6.033   0.151 -0.2040  0.0543 -0.0285
12605W        W28499  11.718   5.486  16.624  0.1872  0.1222 -0.0653
12606W        W28500   8.145  10.363   4.661 -0.0744  0.0140  0.1089
12607W        W28501   4.157  16.267   5.302  0.2281 -0.2872  0.0889
12608W        W28502   4.780   8.311   3.828  0.0820  0.1266  0.0345
12609W        W28503   3.519   4.642   2.148  0.0776  0.0666 -0.0946
12610W        W28504  13.796  10.247   3.953  0.0304  0.0774  0.2038
12611W        W28505  14.888  15.260  16.150 -0.3753 -0.2033  0.2845
12612W        W28506  16.534  13.676   3.117  0.0988  0.1138 -0.1098
12613W        W28507  10.090   4.197   3.352  0.3814  0.0442  0.1000
12614W        W28508   7.519  15.996  13.744  0.2398  0.0018 -0.1688
12615W        W28509   8.510   2.800  12.606 -0.0879 -0.1207 -0.1531
12616W        W28510   1.019   9.917   5.151 -0.1455  0.2995  0.2797
12617W        W28511   1.400  17.000  13.331  0.1526 -0.1570 -0.0254
12618W        W28512   1.860   7.311   3.538 -0.3544 -0.1105  0.2850
12619W        W28513  11.451   5.174   3.930 -0.1073  0.1617 -0.0349
12620W        W28514   1.290   4.078   5.444  0.0104 -0.1468  0.0070
12621W        W28515   5.507   8.212  13.565  0.1288 -0.3036 -0.0672
12622W        W28516   8.692  17.290   2.648 -0.0183  0.2278 -0.2288
12623W        W28517  16.682   8.755  13.120  0.2875  0.1138 -0.2193
12624W        W28518  10.888  15.210   6.334 -0.2445 -0.0051 -0.1299
12625W        W28519  12.489   4.719  14.673  0.3446  0.0661  0.1117
12626W        W28520   6.745  14.137   4.613  0.0439 -0.0524 -0.0327
12627W        W28521   3.907   0.161  13.897 -0.0542  0.0015 -0.2759
12628W        W28522  17.706  11.055   0.892  0.0491 -0.2357  0.2046
12629W        W28523   0.360  14.316  14.586  0.1138 -0.1086  0.0256
12630W        W28524   5.829   8.899   3.597 -0.0120  0.0141  0.1518
12631W        W28525  15.869   5.346  11.253  0.1088 -0.0110 -0.0350
12632W        W28526  13.991  16.509  11.673 -0.0071 -0.2355 -0.0720
12633W        W28527  10.763  16.869   1.270 -0.0819  0.1413  0.0712
12634W        W28528   2.140   7.793   3.116 -0.1490 -0.1174 -0.0669
12635W        W28529  12.004  14.868   2.136  0.1485 -0.1131 -0.2530
12636W        W28530  12.535  10.471   2.712  0.0247  0.1678 -0.2804
12637W        W28531   2.165   4.355  16.237  0.1848 -0.3303 -0.1280
12638W        W28532   1.155   1.597  11.806 -0.0936 -0.1037  0.1052
12639W        W28533   3.927   9.018   2.154 -0.0109  0.0914 -0.0113
12640W        W28534   8.550  15.601   0.619  0.4465  0.3015 -0.2079
12641W        W28535  16.947   5.116   3.402  0.1265 -0.0477  0.1204
12642W        W28536   8.691  16.195  14.937  0.0227 -0.0938 -0.0929
12643W        W28537  14.284   3.945   3.007 -0.0144 -0.1494 -0.1013
12644W        W28538  10.725  10.799   0.116 -0.0440 -0.0462 -0.1176
12645W        W28539   5.343  13.257   2.639 -0.1675 -0.0644  0.1514
12646W        W28540  15.448   5.636  15.382 -0.3347  0.0810  0.1657
12647W        W28541  12.971  17.522   3.364 -0.3193  0.3272  0.0689
12648W        W28542  12.378  13.705   0.007 -0.1433  0.0190 -0.2566
12649W        W28543  16.303  10.012  15.702 -0.0714  0.1673  0.2214
12650W        W28544  16.672   0.052   1.071 -0.0544 -0.2052 -0.1291
12651W        W28545   0.411  12.970   5.520  0.1746 -0.0376 -0.2524
12652W        W28546   6.075   8.896  16.363 -0.2682  0.1553 -0.0222
12653W        W28547  17.091   2.140   2.185 -0.0829 -0.3447 -0.1232
12654W        W28548  11.962   6.040  14.122  0.0798 -0.2004  0.0924
12655W        W28549  16.677   9.905   2.315  0.1807 -0.0132 -0.0722
12656W        W28550   1.242   6.060   3.547 -0.1300 -0.4013 -0.1390
12657W        W28551   9.766  10.909  14.194  0.2343 -0.2179 -0.1627
12658W        W28552   3.763   0.791  15.976  0.2083 -0.1660  0.3322
12659W        W28553   2.639  12.607   2.115 -0.3352 -0.0090  0.2545
12660W        W28554   3.889  10.440  13.940  0.0123 -0.1376 -0.0953
12661W        W28555  15.673  17.196   3.260 -0.1309 -0.0951 -0.2014
12662W        W28556  15.567  13.623  14.732 -0.3110  0.1671 -0.2627
12663W        W28557  17.497   6.824   4.597 -0.2403  0.2434 -0.0722
12664W        W28558  10.952   7.422  13.175 -0.0471 -0.0294 -0.0362
12665W        W28559   0.014   3.291  11.833 -0.2247 -0.3122 -0.0412
12666W        W28560   4.157   7.114  14.431 -0.3603 -0.2738  0.1528
12667W        W28561  11.622  16.963  14.045 -0.1235  0.2108  0.1269
12668W        W28562  11.971  17.186   3.214 -0.1271 -0.1512  0.0956
12669W        W28563  13.505  16.861   1.867  0.2137 -0.0849  0.1194
12670W        W28564   5.655   7.337   2.510 -0.0512 -0.1220  0.1073
12671W        W28565   0.787   3.361  11.359  0.1934  0.0500  0.4514
12672W        W28566   9.616  17.480  16.176 -0.2402  0.3315  0.0352
12673W        W28567  15.165  14.689  11.799 -0.4351  0.1337 -0.0562
12674W        W28568   8.808  15.439   3.373  0.0136  0.1936 -0.0890
12675W        W28569   6.860   5.983  12.377 -0.1538  0.0352  0.0107
12676W        W28570   0.515   6.538  15.988  0.2063 -0.1233 -0.2215
12677W        W28571   9.694  14.502  14.357 -0.1256 -0.1090  0.1846
12678W        W28572  16.773  13.781  15.365 -0.2366 -0.1268  0.2161
12679W        W28573   7.033  12.730   3.364  0.0659 -0.1703  0.1310
12680W        W28574   3.049   3.341   3.631 -0.0290  0.1209  0.0379
12681W        W28575   9.390   1.976   1.331  0.1780  0.0437  0.1701
12682W        W28576  10.740   3.937  12.274 -0.1798 -0.0479  0.0949
12683W        W28577  15.204   6.160  11.622  0.1545  0.1276 -0.0504
12684W        W28578  12.632   3.090  13.488  0.1191 -0.1150  0.1963
12685W        W28579  12.185   2.772   0.131 -0.1603 -0.0277  0.0865
12686W        W28580   4.303  10.913  13.891  0.0286 -0.0056 -0.1072
12687W        W28581  12.577   3.762   1.292 -0.3502  0.1783 -0.1111
12688W        W28582   5.355   3.659   1.832  0.1447  0.0401  0.0815
12689W        W28583  10.819   3.466   1.735  0.0985  0.0311  0.1320
12690W        W28584  13.283   6.061   2.289  0.2039  0.0156  0.2278
12691W        W28585  16.928   3.578  16.485 -0.1195  0.0809 -0.0168
12692W        W28586  13.117   2.044   0.924  0.0527 -0.2880  0.1291
12693W        W28587   1.134   4.335   2.124 -0.0776 -0.0228 -0.3183
12694W        W28588   9.920  11.153   0.732 -0.1767  0.0882  0.2139
12695W        W28589  16.461   5.966   3.953 -0.0224  0.2828  0.0237
12696W        W28590   9.992   4.184   2.854 -0.0340  0.0102 -0.2918
12697W        W28591   8.707   3.964   4.038 -0.0336  0.1920 -0.1295
12698W        W28592   1.544   4.423  16.838 -0.2039 -0.0740 -0.0436
12699W        W28593   0.777   0.823  15.920 -0.0778  0.0845 -0.1718
12700W        W28594   9.466  12.770  14.171  0.1409  0.0535 -0.2070
12701W        W28595   2.222   5.864   3.597  0.0144 -0.1583  0.3507
12702W        W28596  16.332   7.188  12.051 -0.0802 -0.0729  0.0222
12703W        W28597   9.301   3.989  11.881 -0.3152  0.0466 -0.0972
12704W        W28598   9.032  12.685   4.438  0.3269  0.0768  0.3211
12705W        W28599  15.420  11.423  12.574  0.0419 -0.1018 -0.2388
12706W        W28600   6.947  16.094   4.347  0.0229 -0.0074 -0.0380
12707W        W28601  11.619   5.523  15.362 -0.0577  0.0140 -0.2431
12708W        W28602   8.967  16.781  13.563  0.1331  0.1098 -0.0459
12709W        W28603   6.197   2.016   2.993  0.1938 -0.1004 -0.1383
12710W        W28604   8.168   9.488  13.506  0.1096  0.2608 -0.2256
12711W        W28605   7.627   2.057  11.659  0.0406 -0.0006 -0.0975
12712W        W28606  11.666  17.726  13.639  0.1180  0.1141 -0.0386
12713W        W28607   7.742   2.305  13.735 -0.1952 -0.0913  0.1704
12714W        W28608  11.433  11.793   5.555  0.0764  0.1113  0.0552
12715W        W28609  10.150  11.307  15.847  0.0734  0.0401 -0.1493
12716W        W28610  15.326   3.193   2.270  0.0008  0.1851 -0.3687
12717W        W28611   9.579   1.018  15.247  0.2549 -0.0263 -0.2380
12718W        W28612  13.082  14.763   0.533 -0.0022 -0.3298 -0.2794
12719W        W28613  16.729   9.367  15.961  0.3768  0.0456  0.1044
12720W        W28614   0.042   2.308   1.467  0.0921  0.0362 -0.0995
12721W        W28615   8.831  10.951  12.284 -0.2669 -0.0254  0.2264
12722W        W28616   2.026  14.180   2.696 -0.1188 -0.3731 -0.0023
12723W        W28617   7.655   6.538   3.643  0.0489 -0.0724  0.0001
12724W        W28618   4.602   4.005   0.433  0.1441  0.0075  0.0418
12725W        W28619  16.264   4.499  15.182 -0.3259  0.1828 -0.3868
12726W        W28620   9.820   8.263  13.507 -0.3703 -0.1303 -0.2825
12727W        W28621   7.715   0.783   0.766 -0.0620  0.1029  0.0510
12728W        W28622  13.866  14.735  15.559  0.2009 -0.2592  0.0728
12729W        W28623   7.406  16.089  14.528  0.1695  0.0474 -0.0643
12730W        W28624  14.530  17.328   3.045 -0.0004  0.1410 -0.1016
12731W        W28625   7.287  14.678  16.442 -0.0061  0.1777 -0.2181
12732W        W28626  16.062  14.431  13.867 -0.1221  0.1770  0.1899
12733W        W28627  10.678  15.853  16.680 -0.3524  0.1514 -0.2207
12734W        W28628   3.850  16.787  14.310 -0.0705  0.3188  0.0664
12735W        W28629   9.456   8.029  15.301 -0.1228  0.1598  0.1699
12736W        W28630  12.491   5.404  15.237 -0.0615  0.1685 -0.1258
12737W        W28631  11.670   3.302   0.567  0.0917 -0.0196  0.2188
12738W        W28632   8.524   8.364  14.878  0.1671 -0.2054 -0.5605
12739W        W28633   2.138   9.109  16.294 -0.1334 -0.1353  0.1529
12740W        W28634   8.341   9.872   4.532  0.2234 -0.0259 -0.2655
12741W        W28635  11.068   3.951  11.039  0.3898  0.0135  0.3414
12742W        W28636  15.603   2.517  14.451 -0.0869  0.0675  0.2669
12743W        W28637  17.216   9.068  16.057 -0.0533  0.3343  0.1088
12744W        W28638   9.769   8.751  16.573 -0.0590  0.2898 -0.1504
12745W        W28639  10.091  13.988   0.795 -0.1269  0.0461 -0.0847
12746W        W28640  12.933   6.681  12.383  0.0352 -0.1876 -0.1021
12747W        W28641  13.479   1.827   1.321 -0.2449 -0.0460 -0.2284
12748W        W28642   5.687   5.858   2.072 -0.0438 -0.2331  0.1866
12749W        W28643   8.412   2.834  11.944  0.1669 -0.0747  0.4110
12750W        W28644   3.641   6.576  13.633  0.0588 -0.0491  0.0082
12751W        W28645  12.661  12.607   5.189  0.2065  0.3339  0.2499
12752W        W28646   2.669   4.184   5.679  0.1787 -0.1037  0.1165
12753W        W28647  11.470  10.851   2.664 -0.1344  0.0430  0.2706
12754W        W28648   5.057  17.404   2.676  0.1624  0.1523 -0.4156
12755W        W28649   9.066   5.153   1.684 -0.0077  0.0395 -0.1561
12756W        W28650  17.101  16.888  15.456  0.0810  0.5117 -0.0555
12757W        W28651   5.055   2.644   1.868  0.0901  0.0241  0.0045
12758W        W28652  11.558  10.402  13.469 -0.0464  0.1044 -0.0050
12759W        W28653   0.630  16.748  16.188  0.1323 -0.1814  0.1501
12760W        W28654   8.794  13.611   5.614 -0.0554  0.1713 -0.0289
12761W        W28655   2.008  14.710   4.226 -0.2238 -0.1108 -0.2577
12762W        W28656  14.383   6.552   0.210 -0.2681 -0.2119  0.0118
12763W        W28657   5.690   0.061  16.673 -0.1876  0.4385 -0.1410
12764W        W28658  13.489  15.533  14.769  0.0787  0.0324  0.0077
12765W        W28659   4.034  16.868   2.705  0.0425  0.3221  0.0474
12766W        W28660   9.978  15.157   1.458  0.0882  0.0676 -0.1358
12767W        W28661  16.106   4.221  12.834  0.0591  0.1013  0.0852
12768W        W28662   9.775  14.436   0.496  0.0456  0.0045  0.1264
12769W        W28663   6.830  11.425   2.366  0.0511  0.2398 -0.0321
12770W        W28664   3.845  15.396   3.225  0.1058 -0.1867 -0.3167
12771W        W28665   3.284  11.787   3.965  0.0877  0.0994  0.1654
12772W        W28666  14.926   8.506   2.154  0.0271 -0.0701 -0.3753
12773W        W28667  16.903   4.899  16.368 -0.0873 -0.0454  0.0710
12774W        W28668  15.154  11.371   3.295 -0.0633  0.0443  0.0484
12775W        W28669  13.077   5.042  16.202 -0.1438  0.1864 -0.0310
12776W        W28670  13.609   5.262   1.847  0.1084 -0.0019  0.0947
12777W        W28671  14.696   4.012   4.017  0.1668 -0.2696  0.1451
12778W        W28672   4.949   3.032  15.152 -0.1424  0.1636 -0.2246
12779W        W28673   3.675  15.960   1.626 -0.0467 -0.1746  0.1318
12780W        W28674  17.438   2.620  11.437 -0.1702 -0.2276 -0.6323
12781W        W28675  13.183   2.052  14.440 -0.2025 -0.0686 -0.3196
12782W        W28676   5.795  10.782  11.774 -0.2627  0.1967 -0.1898
12783W        W28677  10.565   8.957  14.466 -0.0614  0.1680 -0.0734
12784W        W28678  15.893   9.578  13.875 -0.1355 -0.2638 -0.0634
12785W        W28679   1.522   6.897   3.608 -0.0886 -0.0793 -0.1667
12786W        W28680  14.965   9.711  12.135 -0.3136  0.0229 -0.1881
12787W        W28681  10.419   5.932  16.414 -0.3388 -0.1137  0.1535
12788W        W28682   1.665   8.582   5.178  0.0742 -0.0419  0.0540
12789W        W28683   3.001  15.089  14.405  0.2598 -0.0680  0.2410
12790W        W28684  12.574   0.354  11.103 -0.0144 -0.2503  0.1746
12791W        W28685   2.835   1.808   3.842  0.0830  0.2141  0.0810
12792W        W28686   2.871  14.825  15.253 -0.1415  0.0248 -0.2456
12793W        W28687   5.010   0.069  11.267 -0.0943 -0.0346 -0.3445
12794W        W28688  16.957   0.099  12.745  0.0383  0.0166  0.0885
12795W        W28689  14.194  15.180   0.266  0.0916  0.0209  0.2666
12796W        W28690  17.786   5.268  11.877 -0.1339 -0.1334 -0.1165
12797W        W28691  13.657  15.832   2.986 -0.0342 -0.1326 -0.2541
12798W        W28692  10.569  15.712   1.211 -0.0842  0.1442  0.5910
12799W        W28693  10.010   4.181  14.335  0.2715 -0.1478 -0.0368
12800W        W28694  17.219   8.578  13.110  0.0656  0.0592  0.0012
12801W        W28695   5.503   6.786   3.917 -0.2593  0.2684  0.2313
12802W        W28696   8.963  13.412   2.458 -0.0496  0.2400 -0.1090
12803W        W28697   6.552   7.758   4.078 -0.2277 -0.2112 -0.0414
12804W        W28698  16.654  14.985  13.118 -0.1487  0.0185 -0.2434
12805W        W28699   2.819   4.011  11.188  0.0165 -0.0405 -0.1051
12806W        W28700   6.438  14.911   1.627  0.3320  0.0462 -0.2334
12807W        W28701  11.998   3.527  16.700  0.0032  0.0193  0.1447
12808W        W28702  11.104  13.084  16.720  0.0692  0.1725 -0.1332
12809W        W28703   4.592   2.526   0.160 -0.2727  0.0654  0.0482
12810W        W28704   4.970  13.437   2.979 -0.1264  0.2374 -0.0507
12811W        W28705  11.010  11.084   2.593  0.4095  0.2387  0.1772
12812W        W28706   7.348   4.146  14.174  0.1092  0.1051 -0.0004
12813W        W28707   6.328   5.239  12.533 -0.1239 -0.0237  0.0339
12814W        W28708  12.618  11.336  13.352 -0.1261  0.0654 -0.2003
12815W        W28709   4.458   0.601  15.197 -0.3454 -0.3235  0.0454
12816W        W28710   3.663   1.665   3.298  0.1024 -0.0203 -0.1405
12817W        W28711  10.567   2.616   2.567 -0.2394 -0.2123 -0.1943
12818W        W28712   6.701   6.387   2.915 -0.3091 -0.0074  0.1091
12819W        W28713  10.186   1.729  15.925 -0.1779 -0.0520  0.3038
12820W        W28714   4.795  10.904  10.612 -0.0737 -0.1334  0.0029
12821W        W28715  11.610  12.395  14.815 -0.2937  0.5239 -0.1342
12822W        W28716   1.156  10.543   5.920 -0.1282 -0.0125 -0.1295
12823W        W28717   4.269  12.665  16.706 -0.0801  0.0056  0.3423
12824W        W28718  10.045   0.118  11.717 -0.1438 -0.0895  0.0246
12825W        W28719   7.044  10.494  12.605 -0.0031 -0.0633 -0.2123
12826W        W28720   0.796   3.444   3.844  0.3201  0.1282  0.1988
12827W        W28721  12.984  13.583   2.623 -0.0486 -0.0427  0.2768
12828W        W28722   5.249   9.945   6.365 -0.2100 -0.1266  0.0626
12829W        W28723  16.605  17.284  14.510 -0.0505  0.1979 -0.5116
12830W        W28724  17.010   6.868  13.851 -0.0145  0.1059  0.0769
12831W        W28725   1.351   2.075   5.128 -0.0464  0.1465 -0.0054
12832W        W28726  11.199   5.896   2.987  0.0495  0.0237  0.1200
12833W        W28727  16.767  11.737   5.986  0.0285  0.2582 -0.2534
12834W        W28728  17.335   5.712  11.231 -0.3059 -0.0531  0.2463
12835W        W28729   1.919   7.108  11.691 -0.1664  0.0633 -0.0840
12836W        W28730  11.092   0.878  12.802 -0.0707 -0.1516  0.0302
12837W        W28731  16.472  15.003  16.696  0.1141 -0.1119 -0.3725
12838W        W28732  15.745   3.998   4.108  0.2698  0.2251 -0.0297
12839W        W28733   3.734  12.820  14.717 -0.1817 -0.0119  0.0590
12840W        W28734   2.692   9.132   1.619  0.0774 -0.1339 -0.1087
12841W        W28735   8.438  14.043   0.478  0.1425 -0.3611 -0.1065
12842W        W28736   0.219   1.039  14.249 -0.0912  0.1157  0.2461
12843W        W28737   4.375  16.719  16.117 -0.1241 -0.1382 -0.0596
12844W        W28738  16.704  13.857   5.783  0.0452 -0.1276 -0.2071
12845W        W28739   1.335   0.148   4.520  0.0742  0.1664  0.1889
12846W        W28740  12.971   0.380  16.524 -0.2655 -0.0286  0.1332
12847W        W28741   0.491   9.575  13.287  0.0400  0.2547 -0.2752
12848W        W28742  11.602  11.704   1.501 -0.0117  0.1227 -0.0742
12849W        W28743   2.646   7.034   2.069 -0.0656  0.1490 -0.1171
12850W        W28744   4.987  10.198  15.290 -0.0061 -0.1272  0.0590
12851W        W28745   2.980   9.556  14.091 -0.0431 -0.0648 -0.0649
12852W        W28746  14.027   9.066   3.016  0.0745  0.0275  0.3750
12853W        W28747  17.825  10.535  14.466 -0.0255 -0.0025  0.0779
12854W        W28748   4.226  13.696   5.699 -0.0445  0.1675  0.2032
12855W        W28749  17.564  16.853  12.656  0.1349 -0.1091  0.2973
12856W        W28750   8.993  15.826   1.667 -0.2592 -0.0010  0.2427
12857W        W28751   1.269   6.547   1.955  0.0476  0.1105 -0.1833
12858W        W28752  13.019  16.856   1.001 -0.2788 -0.1565 -0.2347
12859W        W28753   0.366  16.841   1.439  0.2052 -0.2556 -0.2458
12860W        W28754   0.507   7.159  14.135 -0.0138  0.0585  0.2252
12861W        W28755   7.381  12.942  16.056  0.0043  0.1794 -0.2379
12862W        W28756   4.144  17.459   0.551 -0.3071  0.0780 -0.0572
12863W        W28757   3.740  11.517  12.013  0.0009  0.0977  0.0741
12864W        W28758  11.574  13.642   1.620 -0.2177  0.0574  0.0774
12865W        W28759   3.353  10.526  13.898 -0.1692 -0.3015 -0.3679
12866W        W28760   1.763   7.223   4.006 -0.3870  0.1574  0.2423
12867W        W28761   8.464  14.567   3.585  0.3219  0.2189 -0.3018
12868W        W28762   1.405   3.918  12.746 -0.3674 -0.1380 -0.1166
12869W        W28763  17.207   4.551   4.324 -0.0698 -0.0860 -0.2869
12870W        W28764   3.608  16.285  14.177  0.1508 -0.0443 -0.0590
12871W        W28765  11.894   8.150   1.022  0.2610  0.0349 -0.1603
12872W        W28766   5.016   0.884   4.572 -0.0740 -0.0974  0.0812
12873W        W28767   0.446  15.694  14.802  0.0619 -0.2456  0.4892
12874W        W28768  17.322   0.527   1.516  0.0099  0.0510  0.2105
12875W        W28769  15.477   1.928   6.303 -0.2326 -0.2205  0.0045
12876W        W28770  12.251  13.061  13.632  0.0817  0.1295  0.0078
12877W        W28771   5.512  11.601  12.261 -0.2378 -0.1250 -0.0791
12878W        W28772   6.896  16.608   4.183  0.2069 -0.0324  0.0731
12879W        W28773  15.334   0.212  11.398  0.1921 -0.1337 -0.1168
12880W        W28774  14.435  17.565  13.835  0.0839  0.0959  0.1160
12881W        W28775  14.830  17.806  16.021 -0.2510 -0.0940 -0.0363
12882W        W28776  15.504   4.604   1.537 -0.2558 -0.2205 -0.0196
12883W        W28777  12.239   6.301  12.596 -0.3174  0.1393  0.4219
12884W        W28778  12.432   1.694   3.293  0.1035  0.0344 -0.1382
12885W        W28779  10.930   1.191   2.119  0.3052 -0.0948  0.1054
12886W        W28780   4.382  14.549  14.484  0.1584  0.1309 -0.0003
12887W        W28781   4.991  13.226   0.222  0.1799 -0.3870 -0.1589
12888W        W28782   5.803   9.074  15.570  0.0081 -0.0723  0.0811
12889W        W28783  16.256   8.731  14.223 -0.2429 -0.1528 -0.0248
12890W        W28784  13.477   9.294   6.623  0.0948  0.0301 -0.5377
12891W        W28785   6.368   1.020   0.553 -0.0454 -0.2982 -0.1012
12892W        W28786  15.694   1.191  13.760 -0.2036 -0.2130  0.0001
12893W        W28787   0.039   3.148   2.309  0.1517  0.1182 -0.1415
12894W        W28788  14.400   3.972   0.875 -0.2135  0.4350 -0.2104
12895W        W28789  12.249  13.074  13.117 -0.0141 -0.0861  0.1898
12896W        W28790  10.040   6.728  11.840 -0.1414  0.1351 -0.0777
12897W        W28791   0.444  10.282   2.955  0.0387  0.2291  0.2464
12898W        W28792   5.548   3.262   4.297 -0.2835  0.2873 -0.0128
12899W        W28793  13.454  12.491  12.981  0.2504 -0.1856  0.0388
12900W        W28794   0.804  12.414  15.616 -0.3330  0.2456 -0.2416
12901W        W28795  17.835  10.009   4.884  0.0422  0.0818  0.0315
12902W        W28796  12.715   3.929  15.236 -0.2774  0.1628  0.1178
12903W        W28797   5.123  11.870   1.157  0.1048  0.0422  0.1131
12904W        W28798   6.583  13.191  15.679 -0.0396 -0.0291 -0.0372
12905W        W28799  16.095   3.197   3.493 -0.1590 -0.0895 -0.0446
12906W        W28800   3.102   5.335  12.046  0.1414 -0.1476  0.0638
12907W        W28801   1.389   8.935   5.481  0.1219 -0.0277 -0.0280
12908W        W28802  17.475  11.705   4.716 -0.0218  0.2647  0.0330
12909W        W28803  10.444  12.922  12.873 -0.1435 -0.1214  0.0987
12910W        W28804   3.258  12.643   1.116 -0.1071  0.0969  0.0895
12911W        W28805   3.385  13.906   5.119  0.3172 -0.0668 -0.2343
12912W        W28806  15.981   4.680  12.993 -0.0133 -0.1479 -0.0274
12913W        W28807   1.382  15.168  14.447  0.1274  0.3035 -0.3674
12914W        W28808   3.958  10.631   5.239 -0.0420 -0.1874 -0.1846
12915W        W28809  10.878   2.273  15.288 -0.0373  0.1592 -0.1696
12916W        W28810   0.921  16.010   2.425 -0.2456 -0.1907 -0.2943
12917W        W28811   2.546   5.846  16.824 -0.0172 -0.1245 -0.0420
12918W        W28812   3.153  15.683   0.496  0.3570  0.0877 -0.1588
12919W        W28813   6.494  11.468   3.282 -0.0355 -0.3321  0.0076
12920W        W28814   0.624   7.570   1.123 -0.1787  0.0197  0.1957
12921W        W28815   7.352   0.494   2.461  0.3495  0.1269  0.1530
12922W        W28816  12.524  16.068   3.636 -0.1385 -0.0630  0.0200
12923W        W28817   7.072   7.081  12.925 -0.1063 -0.2217 -0.3690
12924W        W28818   4.254  14.998  12.853  0.0421 -0.1037 -0.1380
12925W        W28819  15.643   5.151  12.245 -0.4685 -0.0667  0.0242
12926W        W28820  17.812   9.947   5.375  0.3350 -0.2878 -0.3124
12927W        W28821  15.437  11.146   5.681  0.0808 -0.2281 -0.1932
12928W        W28822  12.921  12.890  11.769 -0.1307  0.1018  0.1167
12929W        W28823  11.387  10.112  13.083  0.0369 -0.0195  0.1653
12930W        W28824   7.402  10.809   3.896  0.1121  0.2299  0.1414
12931W        W28825   8.412   4.363   2.836 -0.1384 -0.2294 -0.1702
12932W        W28826  17.689  10.991  14.774 -0.0274  0.2267  0.2541
12933W        W28827   8.069  15.552  16.084 -0.2840  0.1716  0.2497
12934W        W28828   4.717   3.668  13.097  0.0191  0.0397 -0.0759
12935W        W28829   1.254   3.217   2.968 -0.0603  0.0433  0.1020
12936W        W28830   7.523  13.357   5.386  0.1083 -0.1626 -0.0999
12937W        W28831  16.815  12.573  11.990 -0.0338  0.1527 -0.3020
12938W        W28832  13.186   6.161  13.344 -0.0611 -0.2105  0.0663
12939W        W28833   9.369  12.899   5.499 -0.0523  0.0577 -0.3058
12940W        W28834   6.724   8.122   2.177  0.0505 -0.4096  0.1462
12941W        W28835  17.373  10.538  14.108 -0.0167 -0.1166  0.0281
12942W        W28836   2.798  15.447  11.695  0.1732  0.3984  0.2005
12943W        W28837   7.653  12.846   5.274  0.0664  0.4108 -0.1373
12944W        W28838  10.516   3.779   3.326 -0.1057 -0.0147  0.0302
12945W        W28839   4.916  13.415   4.031 -0.1869  0.0361 -0.0625
12946W        W28840   3.921  14.007   0.296 -0.1073  0.0174 -0.0673
12947W        W28841  17.767   7.074  12.735 -0.2562 -0.0734  0.4462
12948W        W28842   8.530   7.814  15.974 -0.0701 -0.1343 -0.1352
12949W        W28843  12.881   3.364   4.125  0.5748  0.0727  0.2701
12950W        W28844   2.456   6.289   1.226  0.2623  0.2357  0.1411
12951W        W28845  10.195   2.076   5.190  0.1731  0.0441  0.2214
12952W        W28846   5.185  17.589   4.660  0.2618  0.0598  0.1488
12953W        W28847  13.808   7.415   2.038 -0.0580 -0.0082  0.1023
12954W        W28848   4.265  12.572   4.851  0.0559 -0.0142 -0.0196
12955W        W28849  13.821   3.277   1.484 -0.2443  0.0248  0.2078
12956W        W28850   1.119   0.295  14.567  0.0586 -0.0979  0.2872
12957W        W28851   5.584  10.870  12.301  0.0297  0.0171 -0.2558
12958W        W28852  17.090  17.439   1.498 -0.1488 -0.1190 -0.1644
12959W        W28853   7.571   9.408   3.306 -0.1841  0.0016  0.0259
12960W        W28854  16.475   6.592  15.003  0.0196  0.0978 -0.1471
12961W        W28855   8.824   9.709   2.125  0.5213  0.0073  0.0593
12962W        W28856   7.769   2.748   0.647 -0.1809  0.1062  0.0233
12963W        W28857   8.068  17.562  13.977  0.0222 -0.2310  0.2005
12964W        W28858  12.713   0.662  13.727  0.0164 -0.1545  0.1219
12965W        W28859   9.146  12.667  16.277 -0.0695  0.0748  0.0240
12966W        W28860  11.129  12.597   4.080 -0.0301 -0.1198 -0.0982
12967W        W28861  14.584   6.593   3.408 -0.2491 -0.0924 -0.1819
12968W        W28862  10.447   0.103   1.207  0.0477  0.3214  0.0092
12969W        W28863  14.529   4.075   4.496 -0.1204 -0.0892  0.2046
12970W        W28864  12.510  15.817  15.854  0.0015 -0.1867  0.0406
12971W        W28865  13.681   4.912  14.812  0.0009  0.2423  0.0349
12972W        W28866   5.746  14.503  16.373 -0.2173 -0.0153 -0.1147
12973W        W28867  16.977   9.142  11.859 -0.0169  0.1278 -0.1331
12974W        W28868  13.325  11.996  12.227 -0.1607 -0.2523 -0.0349
12975W        W28869  16.818  10.390  14.005  0.1365  0.1673 -0.0978
12976W        W28870   7.362  15.338   3.990  0.0044  0.0719 -0.2409
12977W        W28871   1.248   9.859   2.548 -0.0288 -0.0431  0.0341
12978W        W28872  15.406  10.360  15.328 -0.2554  0.3827 -0.1835
12979W        W28873   9.200  15.201  16.264 -0.0175  0.3087 -0.1454
12980W        W28874  14.596   2.550   1.745  0.1611  0.0833  0.2186
12981W        W28875   9.398  17.214  14.633 -0.1997 -0.0547  0.3523
12982W        W28876   4.423   1.611  15.737  0.3879  0.1980 -0.2429
12983W        W28877  11.572   6.074  13.793  0.1229  0.2091 -0.2154
12984W        W28878   2.431   4.217   1.121  0.0468 -0.2427 -0.0042
12985W        W28879  14.682  14.009   4.664 -0.0237 -0.1057  0.0258
12986W        W28880   1.980   3.072  11.883  0.0669 -0.0016  0.1323
12987W        W28881  11.394  14.054   3.612  0.1734  0.0056 -0.0687
12988W        W28882  14.109   9.893  16.744  0.0264  0.0694 -0.0547
12989W        W28883   9.515   0.183  16.457  0.0008  0.2016 -0.2072
12990W        W28884   0.924   4.857   0.958 -0.5313 -0.2914 -0.0977
12991W        W28885  15.733   1.022  11.471 -0.1308  0.1483  0.1486
12992W        W28886   9.024  15.199   4.700  0.0375  0.2633  0.1850
12993W        W28887  15.358  12.549   2.044  0.0040 -0.0848 -0.1542
12994W        W28888   8.224  11.602   5.529 -0.4422  0.3641  0.1441
12995W        W28889   3.675   9.044   3.012  0.1474 -0.0041  0.0801
12996W        W28890  15.105   3.809  13.454  0.1444 -0.4131  0.5229
12997W        W28891  13.028   3.213   0.350  0.3159 -0.0230  0.2244
12998W        W28892   0.376   0.406   3.466  0.0581 -0.2236  0.1840
12999W        W28893   3.316   1.765  16.732  0.1663 -0.2185  0.3292
13000W        W28894  14.093  11.527   0.770 -0.1656  0.2299  0.2401
13001W        W28895  15.019   3.025  12.060  0.1273  0.0346 -0.1190
13002W        W28896   6.368   2.270  12.931 -0.1918 -0.1426  0.0328
13003W        W28897  13.317   7.172   1.405 -0.0898  0.2571 -0.0650
13004W        W28898  12.381  10.989   1.564  0.0473 -0.0069 -0.0049
13005W        W28899   0.860   8.851  13.405  0.0717 -0.1007 -0.0953
13006W        W28900   6.957  12.329  16.532  0.0486 -0.1888  0.1867
13007W        W28901   9.865  15.169   2.434 -0.1652 -0.2563  0.0691
13008W        W28902  16.788   8.873   3.054 -0.1186 -0.0027  0.2072
13009W        W28903   7.157   2.479   4.894  0.2960  0.1148  0.1622
13010W        W28904  16.153   5.433   3.640  0.2406  0.0036  0.1161
13011W        W28905  10.721  13.916  16.268  0.0581 -0.2524  0.1351
13012W        W28906  10.367   6.235  12.093 -0.2194 -0.1375 -0.1200
13013W        W28907  15.258  16.916   2.682  0.0299 -0.0444  0.0757
13014W        W28908  15.636  16.367   1.142  0.3664 -0.1675 -0.1012
13015W        W28909   9.774   7.229  11.864  0.2380  0.1340  0.2703
13016W        W28910   2.240   2.629   6.116 -0.3090  0.3072 -0.1966
13017W        W28911  14.225   1.805   2.186 -0.0944  0.2183 -0.0484
13018W        W28912  16.522   5.707  13.151 -0.1019 -0.2582  0.2125
13019W        W28913   3.989   4.417  12.233 -0.0166 -0.2457 -0.0600
13020W        W28914  11.784  12.285  14.019 -0.0278 -0.1937  0.4377
13021W        W28915  14.691  17.340   2.108  0.0958 -0.2383 -0.0122
13022W        W28916   0.262   6.378   5.842  0.1063 -0.4726  0.3290
13023W        W28917   3.130  17.026   3.778 -0.0782 -0.1040  0.0378
13024W        W28918  11.086  15.779   1.223  0.0441  0.0198  0.1389
13025W        W28919  15.997   0.848   2.147  0.0953 -0.1394  0.2961
13026W        W28920  13.025  15.155  12.443  0.1092  0.0013 -0.0155
13027W        W28921   5.366   1.131  14.508  0.1118  0.0167  0.3169
13028W        W28922   1.795   1.943   4.902 -0.4386  0.4074  0.0595
13029W        W28923  10.898   9.267   2.502 -0.0605 -0.0077  0.2666
13030W        W28924  16.776   7.010  16.680  0.1234  0.2866 -0.0266
13031W        W28925   2.910   1.117  13.633 -0.1416  0.0418  0.3334
13032W        W28926   9.290  14.269   1.396  0.0053 -0.0793 -0.2174
13033W        W28927  15.365   3.087  13.841  0.1972 -0.1795  0.0596
13034W        W28928   9.626  17.188  12.559 -0.3859 -0.0568  0.0813
13035W        W28929  12.599   9.652  14.559 -0.0158  0.2005 -0.1000
13036W        W28930   1.597   7.967   0.100  0.0055 -0.0064 -0.2818
13037W        W28931   5.037  11.085   5.449  0.1921 -0.3154  0.3139
13038W        W28932   6.762  12.938  14.840 -0.4407  0.2047  0.1002
13039W        W28933  15.684  14.484   2.867  0.0985  0.1162 -0.1275
13040W        W28934   4.613   5.028   0.375  0.0322  0.0423 -0.0732
13041W        W28935   7.075  13.272  14.536 -0.0918 -0.2349 -0.0340
13042W        W28936   1.911   6.633  16.102  0.1966 -0.0790 -0.0429
13043W        W28937  13.857  15.549  13.743  0.1270 -0.1706  0.2884
13044W        W28938   7.225   9.858   1.006 -0.0338  0.0765  0.0858
13045W        W28939   1.844  16.360   5.719  0.0823 -0.0781  0.0093
13046W        W28940   0.981   2.098  16.575  0.0046  0.0644 -0.0487
13047W        W28941  12.957  11.697   3.563  0.2025  0.1766 -0.0260
13048W        W28942   1.139   5.298   2.240  0.0492  0.2562  0.2220
13049W        W28943  10.111   3.719   3.651 -0.0419  0.1590 -0.0346
13050W        W28944  11.211   7.910   5.368  0.1226 -0.2018 -0.0609
13051W        W28945  11.310   7.062   5.923  0.0918 -0.0660  0.1595
13052W        W28946   4.048   6.282   5.925  0.1453  0.0386  0.1585
13053W        W28947   1.209   6.014   5.663 -0.2333  0.3452  0.1412
13054W        W28948   1.861  13.220   5.843  0.4027  0.0471  0.1351
13055W        W28949   5.961   2.571  12.525  0.0429  0.0609 -0.2926
13056W        W28950   8.134   8.523   2.053 -0.4058 -0.3152  0.0854
13057W        W28951   6.191   9.558  14.799  0.2306  0.1345  0.2205
13058W        W28952   9.154   4.683   1.403  0.1466  0.2348  0.0841
13059W        W28953  11.154  10.519  14.397  0.1761 -0.3352  0.2445
13060W        W28954   6.005   7.689  12.861 -0.1446  0.4679 -0.0363
13061W        W28955   1.145  15.907  12.846  0.0041 -0.1582  0.0031
13062W        W28956   1.532  11.656  12.448  0.0426  0.1832 -0.1877
13063W        W28957   5.288   1.982   0.505  0.2715 -0.0692 -0.0837
13064W        W28958  10.304   3.906  16.476 -0.0911 -0.1005  0.1238
13065W        W28959   7.451   4.460   5.216  0.0707  0.0190 -0.0269
13066W        W28960  10.260  16.454   4.658 -0.0382 -0.1525 -0.0677
13067W        W28961   9.828  14.915  16.888  0.2027 -0.0046 -0.4271
13068W        W28962   2.201   9.166   4.523 -0.0058  0.1505 -0.1442
13069W        W28963   7.681  12.134   6.361 -0.1951  0.0525 -0.0955
13070W        W28964  17.699  15.764  12.886  0.1689 -0.0971  0.2414
13071W        W28965   0.443  16.569  12.670 -0.0953 -0.3565  0.6967
13072W        W28966   4.661   4.057  14.374 -0.0766  0.0788  0.0499
13073W        W28967  17.203  10.187   1.115  0.0813 -0.0538  0.3575
13074W        W28968   3.012  13.460  11.796  0.0871 -0.2426 -0.2530
13075W        W28969   6.431   3.977  16.847 -0.3153 -0.0458  0.3956
13076W        W28970   9.640  11.496   4.447 -0.0212  0.1878 -0.0093
13077W        W28971  16.033   8.157   3.393  0.4303  0.0710  0.1864
13078W        W28972   5.573   8.610   3.311  0.1477  0.1368 -0.2971
13079W        W28973   5.072   3.172   4.477 -0.1177 -0.0629 -0.0774
13080W        W28974   6.288   5.091  14.277 -0.0208  0.0807 -0.1708
13081W        W28975   2.967   8.422   1.707 -0.1835  0.3601  0.0144
13082W        W28976   8.552  11.872   5.251 -0.2898 -0.0458 -0.0458
13083W        W28977   4.797  12.188  15.749 -0.3331  0.2529  0.1388
13084W        W28978   3.680   9.802   3.294 -0.0183 -0.1347 -0.1320
13085W        W28979  14.754   4.090   1.238 -0.1393  0.0523  0.4674
13086W        W28980   7.378  12.261  12.381  0.2485 -0.1875  0.2670
13087W        W28981  17.585  14.030  14.766  0.0063 -0.1433  0.0487
13088W        W28982   4.999  17.103   3.403  0.3118 -0.0847  0.0765
13089W        W28983  13.792   1.824   4.786  0.3165  0.0451  0.0024
13090W        W28984   4.343  16.883  11.691 -0.3473 -0.0643  0.1039
13091W        W28985  12.748  10.457  15.605  0.0735  0.1216 -0.4221
13092W        W28986   4.618  13.685  12.364  0.1011 -0.0746  0.0877
13093W        W28987  14.867  16.058   3.475  0.3229 -0.1840 -0.1871
13094W        W28988  10.672  16.601   0.845  0.1886 -0.0780 -0.0206
13095W        W28989  12.910   3.804  14.685 -0.2161 -0.0493 -0.0914
13096W        W28990   6.524   0.248   2.964 -0.2893  0.1731 -0.1602
13097W        W28991  16.567  13.125   2.835  0.1120 -0.0339 -0.1197
13098W        W28992  11.421   8.960  14.854 -0.3966  0.0096  0.0666
13099W        W28993  15.279  12.717   5.118 -0.1165 -0.1389  0.4220
13100W        W28994  11.902   4.716   1.154  0.2200 -0.1459 -0.1551
13101W        W28995  16.303   4.510   3.286  0.3089  0.0197 -0.0183
13102W        W28996  10.257   3.868  13.977  0.0962 -0.0524 -0.0203
13103W        W28997   3.538  17.246   0.453  0.0091 -0.2794  0.1240
13104W        W28998   0.404  10.050  13.622  0.0401 -0.1488 -0.0795
13105W        W28999  15.997  16.221  16.168  0.1567 -0.3145 -0.1371
13106W        W29000  11.984   7.330   4.785 -0.1496 -0.1951  0.0921
13107W        W29001   0.005  14.919  13.399 -0.1468  0.2800  0.1075
13108W        W29002   2.954   6.509  12.592 -0.5042  0.0992 -0.0991
13109W        W29003  12.112   2.244   4.058  0.1489  0.1745 -0.1213
13110W        W29004  10.478   8.230  14.325 -0.0087  0.0672  0.1259
13111W        W29005   2.102   3.948  11.709 -0.0704 -0.3472 -0.0749
13112W        W29006  14.400   0.930  15.830 -0.0993  0.0033 -0.0311
13113W        W29007  12.535   8.708  15.754  0.0338 -0.1984  0.4113
13114W        W29008   6.950  17.197   4.545 -0.3417  0.1177  0.3065
13115W        W29009  16.292   7.850   5.937  0.1759  0.0988 -0.0620
13116W        W29010  10.710  12.865   2.679  0.0331  0.0098 -0.2268
13117W        W29011   7.751   6.986   4.393 -0.0460  0.0796  0.0207
13118W        W29012   9.166   0.509   5.041  0.0944  0.0746  0.0162
13119W        W29013  13.136  16.879  13.729 -0.0421  0.1230 -0.0596
13120W        W29014   7.383   2.426  12.704  0.0118 -0.0245  0.2726
13121W        W29015  17.548   4.696   5.232 -0.1982 -0.0694 -0.1358
13122W        W29016   8.372  14.405   1.914  0.0051  0.1415  0.0151
13123W        W29017  11.576   0.049  16.867  0.0401  0.1360  0.1674
13124W        W29018   0.988   2.912  14.646 -0.1808 -0.1824 -0.0361
13125W        W29019  16.927  11.235   2.884 -0.0094  0.3028 -0.1206
13126W        W29020   8.665  11.433  14.735 -0.1595  0.2584 -0.0121
13127W        W29021  16.166  11.075  15.868 -0.1862 -0.0305 -0.5119
13128W        W29022  10.221   7.001  13.162 -0.1708 -0.4492 -0.0463
13129W        W29023   7.641  14.902   1.224 -0.0390  0.2449  0.1324
13130W        W29024   8.675  15.747  15.254  0.0355 -0.2319 -0.0514
13131W        W29025  17.805   0.508   4.871 -0.2132  0.0005  0.3165
13132W        W29026   3.540   5.532  11.681  0.1630  0.3487 -0.0343
13133W        W29027   6.951  16.873  14.174  0.1028  0.0188  0.1165
13134W        W29028  16.878  14.688  15.247  0.0966  0.2029 -0.0214
13135W        W29029   9.592  11.439  12.655 -0.1235  0.1658  0.1219
13136W        W29030  16.916   1.856  12.945 -0.1694 -0.1160 -0.2709
13137W        W29031  14.929  16.490   0.510 -0.1817  0.0379  0.0205
13138W        W29032  11.367  10.323   1.596  0.3660  0.1303  0.0535
13139W        W29033   4.167   3.667   3.661 -0.0124  0.1420 -0.2965
13140W        W29034   9.340  14.260   4.956 -0.0417  0.0059 -0.0117
13141W        W29035   7.526   5.094  15.523  0.1526  0.0110  0.3049
13142W        W29036  14.106  14.180  13.449  0.2610  0.0415  0.0866
13143W        W29037  13.339  13.146   1.433  0.1260  0.1892 -0.0903
13144W        W29038   7.957   8.252   2.440 -0.0495  0.1379  0.1334
13145W        W29039   9.083  14.523  15.667 -0.2794 -0.0241  0.0462
13146W        W29040  13.961  14.018   0.474 -0.1302  0.2138  0.0642
13147W        W29041  16.069   9.259   4.758  0.4401 -0.2127 -0.0545
13148W        W29042  11.302   7.811  15.342 -0.0575  0.2656  0.1497
13149W        W29043   4.262  15.857  12.731 -0.4080  0.1029  0.0255
13150W        W29044   1.322   5.701   1.422  0.0613 -0.1769  0.0882
13151W        W29045  10.609  17.332   1.474  0.1126  0.2166  0.3098
13152W        W29046  12.557  12.516   1.599 -0.2575  0.1059  0.2676
13153W        W29047   7.698   0.094  13.874  0.1579 -0.2549  0.0679
13154W        W29048  12.878   7.363   1.493  0.2517  0.0816  0.1614
13155W        W29049   6.020   6.972  13.658  0.1033  0.0726 -0.1376
13156W        W29050   8.099   4.215  16.401 -0.3331 -0.1647  0.0412
13157W        W29051  11.472  16.502  11.365 -0.0382  0.3020  0.1568
13158W        W29052   5.650   3.143  13.861  0.0317  0.2372 -0.3009
13159W        W29053  12.185  15.922   0.922  0.0275 -0.3164 -0.1605
13160W        W29054   5.225   6.747  13.304 -0.2498  0.0338 -0.1198
13161W        W29055  15.244  17.601  14.320 -0.0440 -0.1880 -0.2036
13162W        W29056   5.894   0.732   1.158  0.1711  0.3728  0.0196
13163W        W29057   1.756   9.292  11.015  0.1006  0.1742  0.0366
13164W        W29058  11.226   6.492   3.798 -0.0987  0.1710 -0.2561
13165W        W29059  15.316   2.952  15.498 -0.1426  0.0574 -0.0703
13166W        W29060  14.474  15.872   3.210  0.0788 -0.3895 -0.1111
13167W        W29061   3.074  15.748   3.643  0.4491  0.1223  0.0447
13168W        W29062   1.283   1.805  15.697 -0.2062  0.0384  0.1228
13169W        W29063   2.355   4.689  13.587  0.0563 -0.0315 -0.0509
13170W        W29064  17.656   8.261   4.403  0.1504  0.0299  0.1373
13171W        W29065   8.001  13.675   4.265  0.2167 -0.0753  0.0039
13172W        W29066  17.487   2.290  16.672 -0.1267  0.0954  0.1433
13173W        W29067  13.151  16.193   2.341  0.1121 -0.0265 -0.2806
13174W        W29068   4.731   5.702   2.065 -0.0508 -0.1130 -0.2214
13175W        W29069  15.684  11.927  11.890 -0.0679 -0.1387 -0.2288
13176W        W29070   4.241   2.326  13.203  0.0369 -0.1775 -0.2442
13177W        W29071   8.291   9.498  14.953 -0.0573 -0.0718  0.0740
13178W        W29072  13.944   7.173  14.493  0.3470  0.0418  0.3608
13179W        W29073  10.242   0.651   4.069 -0.2663  0.0777 -0.0205
13180W        W29074  17.138   2.976  13.859 -0.2339  0.2520  0.2900
13181W        W29075   9.485  10.421   3.658  0.1461 -0.0861  0.1504
13182W        W29076   3.771   1.165   2.093  0.1981 -0.0626  0.0980
13183W        W29077   7.516  14.970   3.129 -0.2681 -0.1913  0.0736
13184W        W29078  10.378  13.287  12.242  0.0724  0.0715  0.1169
13185W        W29079  14.815   4.145  14.895  0.1152  0.0749  0.0314
13186W        W29080  11.195   5.049   5.063 -0.3153 -0.0570  0.0299
13187W        W29081   5.413   7.041  15.957  0.2416  0.2000  0.2528
13188W        W29082   6.056  12.676  14.215  0.1213 -0.4005  0.0780
13189W        W29083   2.281  11.148  14.697  0.0353 -0.0567  0.0437
13190W        W29084  16.196   3.506  12.341 -0.1086 -0.3912  0.3365
13191W        W29085   7.673   2.668  13.049 -0.0617 -0.1300 -0.1424
13192W        W29086  16.066   2.423  16.677  0.1502 -0.1130  0.1751
13193W        W29087  13.236   2.991   4.179  0.0592  0.1774 -0.1048
13194W        W29088  16.341  14.180  13.396 -0.1899 -0.0997 -0.1021
13195W        W29089  11.472   4.109  11.460  0.0139 -0.0083 -0.3230
13196W        W29090   3.954   5.865   4.117  0.2415  0.0624  0.3626
13197W        W29091   1.185  13.110  10.914  0.1542 -0.0655 -0.1332
13198W        W29092  11.246   0.323  12.331  0.1119 -0.2408 -0.0154
13199W        W29093  10.887   5.419  13.651  0.2346 -0.1377  0.0440
13200W        W29094   5.651  10.320  15.752 -0.0212 -0.3271  0.0404
13201W        W29095  16.585   0.089   0.181  0.1709  0.2805  0.2623
13202W        W29096   1.099  12.030   0.306 -0.1533  0.0508  0.0157
13203W        W29097   9.663   0.127   5.636  0.3167 -0.0595 -0.0547
13204W        W29098  12.255   7.641   0.464 -0.2322 -0.0757 -0.0076
13205W        W29099   9.496  16.999   3.555 -0.1841 -0.1173  0.0900
13206W        W29100  13.119  13.951  15.242 -0.0779  0.1423  0.0743
13207W        W29101   9.999   3.582   1.662  0.0114 -0.1739 -0.3580
13208W        W29102  12.696  13.450   3.802 -0.2867 -0.0468 -0.1934
13209W        W29103   3.971  15.039   1.270 -0.2475  0.1453  0.2195
13210W        W29104   2.071   8.529   4.687  0.0876  0.0461 -0.0456
13211W        W29105  12.515  16.256  14.147 -0.2365  0.1976  0.3973
13212W        W29106   1.680  15.326  14.906 -0.1799 -0.1252 -0.1375
13213W        W29107  10.224   8.054   0.793  0.0049 -0.1480  0.0752
13214W        W29108  16.265  11.477  13.178 -0.0122  0.3341 -0.1139
13215W        W29109  17.093   6.465   0.759 -0.0338  0.2450  0.0376
13216W        W29110  12.040   0.984  15.673  0.1397  0.2474  0.1778
13217W        W29111  14.497   8.214   4.779  0.2587 -0.0905 -0.1583
13218W        W29112   8.667  12.968   6.101  0.2634  0.0117  0.2054
13219W        W29113   5.560  10.410   0.934  0.0020  0.0675  0.2975
13220W        W29114   0.811   1.181  16.233 -0.0813  0.1607 -0.3753
13221W        W29115  13.377   0.199   0.523 -0.1567  0.2413  0.0163
13222W        W29116   6.627  15.903   1.553 -0.0621  0.1598  0.2267
13223W        W29117   2.099  10.145   5.384 -0.2476  0.0013 -0.2396
13224W        W29118  17.128   9.492   1.599 -0.1918  0.1595  0.0524
13225W        W29119  14.119  10.995   2.881 -0.2324 -0.5178 -0.1047
13226W        W29120   5.815   8.319  13.988 -0.1323  0.2393 -0.1824
13227W        W29121   3.134  14.397   0.851  0.1443  0.1281  0.1815
13228W        W29122   4.575   4.574  12.997 -0.1392 -0.2069  0.1824
13229W        W29123   2.773   6.887  11.664  0.0001 -0.1312 -0.1285
13230W        W29124   8.466  12.668   2.672  0.0994  0.0276 -0.0025
13231W        W29125   6.295   9.857  15.225  0.1127 -0.2524 -0.0717
13232W        W29126  16.003   0.384  15.478  0.2435 -0.0045  0.0310
13233W        W29127   4.475   9.621  13.268  0.1111  0.0783  0.2488
13234W        W29128  10.666   4.875   4.398 -0.0764 -0.0364  0.1554
13235W        W29129   7.757   4.145  12.089 -0.0635 -0.0807  0.1498
13236W        W29130   2.334   4.994   0.057  0.3389  0.1542  0.0399
13237W        W29131   5.034   7.360  14.349  0.2508 -0.0883 -0.1735
13238W        W29132   3.430   5.271  11.144  0.1733  0.2638  0.1234
13239W        W29133   5.835   1.722   1.002 -0.0457  0.0706  0.2724
13240W        W29134   8.549   7.314   0.967 -0.2030  0.0898  0.1502
13241W        W29135  15.331  11.390   6.240  0.0131 -0.1747  0.1872
13242W        W29136   3.761  12.928   5.676 -0.1600  0.1013 -0.1238
13243W        W29137  11.741  15.230   5.085  0.0058 -0.2697  0.1673
13244W        W29138  13.517  16.114   3.576  0.1755  0.0899 -0.0221
13245W        W29139   8.622   0.429  14.545  0.1602  0.0999 -0.1370
13246W        W29140   1.540  16.475   1.506  0.1032  0.2433 -0.1147
13247W        W29141  15.550   3.203   4.362 -0.1624 -0.0906 -0.2060
13248W        W29142   1.855   5.762   0.592  0.1031 -0.1847  0.1551
13249W        W29143  16.845  12.341   6.387 -0.0424 -0.1289  0.0673
13250W        W29144   4.854  15.119  15.886  0.2360  0.2828  0.0175
13251W        W29145   4.785  11.698   2.788  0.1802 -0.0018 -0.2217
13252W        W29146   3.613   4.906  12.956  0.1502 -0.1426 -0.0318
13253W        W29147   4.392  13.884   3.628 -0.0084  0.0738 -0.0428
13254W        W29148  15.159  17.097   1.464 -0.1003  0.1345 -0.2317
13255W        W29149   4.335  11.040   5.098 -0.1126  0.2189 -0.1357
13256W        W29150   9.983   5.530   4.608 -0.0216  0.0151  0.2054
13257W        W29151  12.422   5.112  12.028 -0.0653 -0.1011 -0.0143
13258W        W29152   8.723   5.140   3.321 -0.3155 -0.3734  0.0736
13259W        W29153  11.107  15.905  14.775  0.4009  0.0377 -0.1833
13260W        W29154  15.469   5.108  15.452 -0.0072 -0.1325  0.0516
13261W        W29155  13.696  13.225   1.844 -0.1712 -0.0680 -0.3430
13262W        W29156   1.568  14.840  14.860 -0.1870  0.0378 -0.3589
13263W        W29157   6.375  10.511  12.362  0.0379  0.1869 -0.1075
13264W        W29158  12.230  13.660  11.809  0.1357 -0.2029 -0.1499
13265W        W29159   0.332   0.765  15.123 -0.1573  0.2355 -0.4655
13266W        W29160   6.666  11.668   1.919  0.1038  0.4083  0.1497
13267W        W29161   5.726  12.912   2.552 -0.2440 -0.1589 -0.2165
13268W        W29162   5.002   9.884   5.944  0.0088 -0.0504 -0.2849
13269W        W29163  12.875   4.223   5.440 -0.0428 -0.1689  0.0281
13270W        W29164   7.669   9.678  12.650 -0.1142 -0.0253 -0.0396
13271W        W29165   0.157  11.101  12.107 -0.0144  0.1799 -0.0788
13272W        W29166   3.116   4.126  11.693 -0.0253  0.2977  0.3115
13273W        W29167   1.599   9.432  12.361 -0.0476  0.0776 -0.1551
13274W        W29168  12.557   7.709  14.446  0.2917  0.1354  0.0491
13275W        W29169   4.817  13.479   1.149 -0.1517 -0.1561 -0.1516
13276W        W29170   1.669   8.114   1.414  0.0136 -0.0089  0.1269
13277W        W29171  11.206   7.761   1.797  0.0482 -0.4263  0.1184
13278W        W29172  11.539   5.049  16.278  0.2111  0.0449  0.2035
13279W        W29173   4.402   6.611  14.310 -0.2108 -0.3493  0.1138
13280W        W29174  12.524   1.011   1.603  0.2726  0.0670  0.1999
13281W        W29175  11.075   5.594   3.812 -0.2309 -0.0479 -0.2173
13282W        W29176  10.060  13.079   3.259 -0.2418  0.1072 -0.2228
13283W        W29177   7.003   4.285  15.121 -0.2109 -0.1128 -0.0362
13284W        W29178   3.947  11.767  14.928  0.0779 -0.4168 -0.2199
13285W        W29179   1.007   6.666   0.000  0.0917 -0.0024  0.0907
13286W        W29180  14.621   6.957  12.457  0.0626  0.0805 -0.2107
13287W        W29181   7.157   6.754  13.584  0.0971 -0.0024  0.2022
13288W        W29182  11.477  11.671  15.911  0.0346  0.2111 -0.1129
13289W        W29183  10.257   2.824   2.122 -0.2122  0.1247  0.0930
13290W        W29184   8.221  15.168   2.441  0.1260 -0.2440 -0.0986
13291W        W29185   7.625  14.565   6.026 -0.0947 -0.0992  0.3370
13292W        W29186  12.505  12.706   4.392 -0.0312 -0.0619 -0.1241
13293W        W29187  13.828  14.508   4.834 -0.1086  0.2877 -0.1453
13294W        W29188  13.340  15.363   2.716 -0.1460  0.1755 -0.1916
13295W        W29189  17.361  10.536  11.929 -0.1274 -0.1512 -0.1917
13296W        W29190  11.122   5.929   5.350  0.0316 -0.0978  0.1489
13297W        W29191   4.762  10.971   3.619 -0.1885 -0.0150  0.1361
13298W        W29192   7.541  13.487  15.853  0.1664  0.2803 -0.0757
13299W        W29193  13.737   6.868   4.146  0.1877  0.1621 -0.0114
13300W        W29194   8.328   7.757  13.044 -0.2918 -0.1878  0.0721
13301W        W29195  11.059   5.562  13.212 -0.1069 -0.1522  0.2627
13302W        W29196   3.058   4.752   4.394  0.0667 -0.1029 -0.1506
13303W        W29197  12.732   6.226  12.370  0.0166 -0.0862 -0.1193
13304W        W29198  12.570   2.307   2.832 -0.0972  0.0843  0.1637
13305W        W29199   6.478   8.720  14.385 -0.1231  0.0678  0.0358
13306W        W29200  16.829   2.638  16.014 -0.0219  0.0729 -0.3581
13307W        W29201  11.268   7.158   2.481  0.1637 -0.0233 -0.1405
13308W        W29202  15.305  14.149  14.918  0.1994  0.0575  0.0559
13309W        W29203   9.183   5.934   5.220  0.0421 -0.0039 -0.1861
13310W        W29204  12.461   5.924   2.683  0.1115  0.3380  0.0303
13311W        W29205  14.555  14.985   5.585 -0.2407 -0.1553 -0.0410
13312W        W29206  11.227   2.241  12.126  0.1271 -0.3414  0.2978
13313W        W29207   4.852  10.703   2.773 -0.2204 -0.0734 -0.1772
13314W        W29208   4.481  15.812  13.415  0.1532  0.1270 -0.0466
13315W        W29209  17.786   4.710   3.540 -0.2781 -0.1015  0.4331
13316W        W29210   2.301   1.148  14.633  0.3029 -0.0634 -0.0506
13317W        W29211  11.860  12.064   0.667  0.1961 -0.1239  0.0752
13318W        W29212   5.996   9.492  13.350 -0.3848 -0.1619 -0.2612
13319W        W29213  11.286   4.161  12.741 -0.0587  0.0345 -0.2807
13320W        W29214  12.539  16.555   3.800  0.1566  0.0567 -0.4224
13321W        W29215   9.269   3.978   6.420 -0.0386  0.0238 -0.0812
13322W        W29216  12.587   2.041   0.772  0.0184 -0.1775  0.3279
13323W        W29217   5.224  15.364   5.459 -0.0359 -0.0336 -0.1873
13324W        W29218   4.229   0.239  13.541 -0.0280  0.0204 -0.2358
13325W        W29219  12.218  16.371  12.496  0.1869 -0.2818 -0.0494
13326W        W29220   0.291  12.242  13.173  0.1312  0.0117  0.2662
13327W        W29221  11.229  14.506  11.970 -0.1754  0.2185  0.2953
13328W        W29222  14.771   5.307  13.311  0.0519 -0.3178  0.1485
13329W        W29223  12.682   1.800   1.216  0.0357 -0.1515  0.3135
13330W        W29224   0.007  17.004   2.663  0.1352 -0.2731  0.0396
13331W        W29225   1.904  10.388   4.173  0.0301 -0.4465  0.0725
13332W        W29226   3.938   8.042   3.090  0.1105  0.1462  0.1244
13333W        W29227   5.301  14.169  16.756 -0.0287  0.1264  0.3310
13334W        W29228   9.057   0.204  13.252 -0.2701  0.0211  0.1498
13335W        W29229  12.923  15.993  12.660  0.1344 -0.1055 -0.1296
13336W        W29230  17.566   9.438  14.927  0.1945  0.2623  0.3064
13337W        W29231   3.090  11.033   0.901 -0.0820 -0.0406 -0.1171
13338W        W29232   3.036  10.623  12.849 -0.0633  0.1093 -0.5219
13339W        W29233   6.068  11.681   1.089  0.4251 -0.0826 -0.1215
13340W        W29234   5.947   2.252   4.798 -0.2085  0.0616 -0.1624
13341W        W29235   5.692  11.342   2.536  0.2445 -0.1958  0.0873
13342W        W29236  14.285   8.367  14.083  0.1605  0.0221  0.0218
13343W        W29237   0.435   0.284   4.549 -0.0308  0.1186 -0.1318
13344W        W29238  13.472   7.213  11.775 -0.0805  0.2805  0.0407
13345W        W29239   5.836   6.803  15.652  0.2882 -0.1737 -0.0835
13346W        W29240   5.676  13.129   2.121 -0.0984  0.0721  0.3196
13347W        W29241   3.931   7.812  15.668 -0.1121  0.0581  0.0712
13348W        W29242   5.058   8.901   6.120 -0.1320  0.2241  0.2311
13349W        W29243   7.536  12.831   3.226  0.0963  0.2224  0.2675
13350W        W29244  15.921   7.885  14.155  0.0555  0.1379  0.0455
13351W        W29245   6.205  17.450  14.509  0.0973 -0.2294  0.1354
13352W        W29246   9.640  17.129  15.825  0.0287  0.0909  0.1327
13353W        W29247   8.777  10.433  13.530  0.2822  0.0346 -0.2247
13354W        W29248   8.416   8.222  16.386 -0.0497 -0.2158 -0.3125
13355W        W29249   9.060   9.941  15.012  0.1891  0.1141  0.0251
13356W        W29250   2.610   6.210   3.783 -0.0578  0.0939  0.1102
13357W        W29251  10.062  11.292  12.543  0.1206  0.0978  0.4039
13358W        W29252   1.138   0.647  13.572 -0.1473 -0.2493 -0.2189
13359W        W29253  11.661   0.448  15.921  0.1406  0.0734 -0.1239
13360W        W29254   7.963   4.305   2.667 -0.0398  0.6744 -0.1661
13361W        W29255  15.570  11.169  15.916  0.3887  0.0401 -0.0262
13362W        W29256   9.943   6.015  14.541 -0.0445 -0.0482  0.0334
13363W        W29257   7.870   0.389  12.459 -0.0092 -0.0880 -0.0237
13364W        W29258   9.902   1.508   4.392  0.0958 -0.0606 -0.2209
13365W        W29259   8.525   4.217   4.827  0.3957 -0.1260 -0.3722
13366W        W29260   2.795  14.474   3.632 -0.1160  0.4119 -0.2068
13367W        W29261   9.103   0.202  15.362 -0.0839  0.1359  0.1555
13368W        W29262   0.654  14.199  12.384 -0.1095 -0.1174  0.0616
13369W        W29263   8.369  14.620   3.088  0.0072  0.1548  0.0524
13370W        W29264   9.443   4.648  11.367 -0.1132 -0.1713 -0.0991
13371W        W29265   7.539   0.815  12.572 -0.1543 -0.1007  0.0321
13372W        W29266  11.476  17.069   2.346  0.0097 -0.0084  0.0706
13373W        W29267   7.498   4.133   2.851 -0.0284  0.1055 -0.1786
13374W        W29268  11.746   2.490   0.634  0.0189 -0.1060  0.0523
13375W        W29269   2.894  17.598   2.198  0.0734  0.0666  0.1789
13376W        W29270  15.596  17.362   1.369  0.0520  0.2013  0.0279
13377W        W29271  15.458  14.088   5.771 -0.0407 -0.1433 -0.0629
13378W        W29272   2.255  11.337  15.748 -0.0806 -0.1496  0.0105
13379W        W29273  15.840  16.291  13.888 -0.0243  0.0178  0.0840
13380W        W29274   2.027  14.203   0.701  0.0318  0.2571  0.1503
13381W        W29275   2.070   9.319  11.382 -0.1545  0.2963 -0.1234
13382W        W29276   7.893  12.444  15.595 -0.2360 -0.0969 -0.1220
13383W        W29277   3.586   4.489   2.615  0.1569 -0.2782 -0.0720
13384W        W29278   4.699   5.488  13.586  0.1004 -0.1758  0.0819
13385W        W29279  12.395   5.699   1.663 -0.0648  0.0907 -0.2154
13386W        W29280  17.740  15.310  13.141  0.0573 -0.4062  0.1498
13387W        W29281   1.435  16.259   5.372 -0.0749 -0.3017  0.0149
13388W        W29282   3.129   5.845   1.552 -0.2731 -0.2236  0.1244
13389W        W29283   2.827  11.888  16.085 -0.2529  0.1981  0.0230
13390W        W29284   7.674   6.242  14.062  0.1062 -0.0927 -0.1835
13391W        W29285  17.152   1.830   5.929 -0.1529 -0.0766 -0.0447
13392W        W29286   2.692  13.743   1.689  0.0085  0.1546  0.2426
13393W        W29287   6.304   0.729  13.577  0.0804 -0.1823 -0.1927
13394W        W29288   1.930  14.981  15.178 -0.0472  0.2370  0.0174
13395W        W29289   3.760  11.628  16.471 -0.2474  0.3105 -0.1574
13396W        W29290  16.736  15.887   5.520  0.0898 -0.3257 -0.2680
13397W        W29291  12.245   2.215   2.481  0.0698  0.0306  0.0179
13398W        W29292  13.282  12.687   0.767  0.0632  0.3684 -0.1588
13399W        W29293  11.556  16.824   5.278 -0.0707 -0.2524 -0.0935
13400W        W29294  16.893  17.015  10.753  0.0635  0.1300 -0.3062
13401W        W29295   1.891   0.415  14.302 -0.0563  0.0028 -0.2624
13402W        W29296   1.443   7.894  15.949  0.0435 -0.0030  0.1789
13403W        W29297   8.178  14.782   4.134 -0.0694 -0.0113  0.0129
13404W        W29298  12.852   8.894  12.136 -0.4064  0.1886  0.2148
13405W        W29299   7.764   0.145   4.794 -0.0028 -0.0519  0.0107
13406W        W29300  16.848   4.603   3.334  0.1956  0.1816 -0.2275
13407W        W29301   9.213  16.821   6.362  0.0569  0.1073  0.0785
13408W        W29302   1.228  17.222   3.704  0.1169 -0.1045 -0.0271
13409W        W29303   8.239   5.497   1.881 -0.0625 -0.0950  0.1434
13410W        W29304  17.401   6.094  16.539  0.0689  0.2642 -0.2404
13411W        W29305  13.453   1.326  13.827  0.2290 -0.1094 -0.1448
13412W        W29306  15.810   3.122  14.092  0.1470 -0.0051  0.2408
13413W        W29307   7.574   2.341  12.288  0.1242 -0.1599 -0.2334
13414W        W29308   5.908  14.109   1.106 -0.1264 -0.1155 -0.3438
13415W        W29309  13.396  14.125   1.305 -0.2271 -0.0706 -0.0556
13416W        W29310  13.383   3.847  16.451 -0.0387 -0.2367  0.0905
13417W        W29311   3.099   2.995   1.238 -0.1075 -0.0233 -0.2073
13418W        W29312   4.138  16.307   2.053  0.0536  0.0434 -0.1557
13419W        W29313   1.567  15.800   0.923  0.0436 -0.1650  0.1272
13420W        W29314   2.633   4.310   2.757 -0.2170 -0.1477 -0.1109
13421W        W29315   5.557  12.868  14.241  0.0040 -0.2743 -0.2132
13422W        W29316  14.572   6.543  14.697 -0.0044 -0.0885 -0.0400
13423W        W29317  12.180  13.528   4.106 -0.2274  0.1555 -0.0572
13424W        W29318   0.612  14.195  14.117 -0.3329  0.3288 -0.1843
13425W        W29319   5.615  11.412  12.774  0.2403 -0.0114  0.1224
13426W        W29320  13.000   7.993   3.932 -0.0888 -0.1150 -0.3290
13427W        W29321   8.427   1.423  15.134 -0.2597  0.1722 -0.0926
13428W        W29322  13.020  14.473   3.043 -0.0596 -0.2505  0.0211
13429W        W29323   9.642   5.574  14.394  0.0526  0.2431 -0.0470
13430W        W29324  17.122   5.324  16.569 -0.0800  0.2244  0.0489
13431W        W29325   2.499  15.217  16.163  0.1540 -0.2719  0.0765
13432W        W29326  16.068   5.244  15.660  0.0475  0.2783  0.0436
13433W        W29327  10.437   1.091  12.255 -0.0360 -0.0790 -0.0212
13434W        W29328   3.285   6.161  12.603 -0.1939 -0.1784 -0.0089
13435W        W29329  10.822   3.808   4.269  0.2625  0.1028  0.1693
13436W        W29330  10.097  12.332   1.427  0.1505  0.1629 -0.1453
13437W        W29331  17.244  12.196  12.600  0.2079  0.2677  0.3543
13438W        W29332   4.822   4.920   4.735 -0.0723  0.3318 -0.0134
13439W        W29333  14.386   5.090   1.436  0.1253 -0.1497 -0.1118
13440W        W29334   0.274  16.202  13.601  0.1092 -0.0012 -0.1648
13441W        W29335  10.595  10.235   0.943  0.0391  0.2691 -0.1415
13442W        W29336  15.319  12.738   4.554 -0.0921  0.0570 -0.0591
13443W        W29337  14.781   5.577  12.329  0.2754  0.1926  0.2435
13444W        W29338   8.519  13.409  13.076 -0.2041 -0.1405  0.0357
13445W        W29339  10.807   3.158   1.288 -0.2251 -0.3911 -0.2119
13446W        W29340   2.174  13.469  13.392  0.2056 -0.3146 -0.1166
13447W        W29341  10.203   6.120   2.350  0.0848  0.0731  0.0410
13448W        W29342   4.380   4.452   4.966 -0.1168  0.1259  0.3710
13449W        W29343   0.850   8.291   3.877 -0.0376 -0.0332 -0.2430
13450W        W29344   2.676  13.379  12.923  0.1394  0.3800  0.2109
13451W        W29345  15.394   9.827   4.007 -0.1439  0.0887  0.4381
13452W        W29346  13.686   1.607   2.211  0.0370  0.0399 -0.1524
13453W        W29347   0.140   7.161   0.314 -0.0213  0.1178 -0.2318
13454W        W29348  17.522  10.187  13.193  0.0635 -0.0149 -0.0495
13455W        W29349  10.934  15.540   0.771  0.1638 -0.1751  0.2802
13456W        W29350   5.276   6.931   2.600  0.0393  0.1562 -0.3282
13457W        W29351   7.260   3.003  11.440  0.1824 -0.1110 -0.0766
13458W        W29352   9.646  15.057   1.828 -0.0704  0.2208  0.2914
13459W        W29353   6.475   1.121  13.258 -0.0408 -0.3913 -0.1549
13460W        W29354   1.979   9.669   5.506  0.0057  0.0637  0.0608
13461W        W29355   1.048  16.521   2.203  0.0885  0.0156 -0.2270
13462W        W29356  15.340  12.264   5.076  0.2887 -0.0170  0.3387
13463W        W29357   6.050   7.624  14.907 -0.0354 -0.0961 -0.1123
13464W        W29358   8.882   9.440   4.061 -0.2059  0.1138 -0.2367
13465W        W29359   3.249  12.269   0.747  0.2828  0.2695  0.2937
13466W        W29360  11.769  11.538   5.208  0.0578 -0.1052 -0.1661
13467W        W29361   6.275  14.044   0.794  0.1833 -0.0938  0.2067
13468W        W29362   1.597  16.733   0.165  0.1557  0.2060  0.2705
13469W        W29363  14.083  10.670   0.114 -0.1636 -0.0553 -0.2125
13470W        W29364   3.734  15.849   3.513  0.1024 -0.2077  0.0122
13471W        W29365   1.054  17.815  12.973 -0.0306  0.1102  0.1195
13472W        W29366  17.821  16.934   1.042  0.0455 -0.0413  0.0172
13473W        W29367   9.081  13.751  12.284 -0.3292 -0.0467 -0.1056
13474W        W29368   8.628   7.447   3.503  0.0493 -0.2946 -0.2498
13475W        W29369  10.730  11.263  15.950  0.1218 -0.2911 -0.1645
13476W        W29370  12.518  16.636   1.525  0.0135  0.1440 -0.0648
13477W        W29371  16.507  10.587  11.163  0.0822 -0.2135  0.2521
13478W        W29372  14.069   1.415  13.326 -0.0756 -0.2076  0.1979
13479W        W29373   0.008   6.570   2.942  0.3256  0.0203 -0.4729
13480W        W29374  17.800   9.429   0.343  0.0552  0.2522  0.3650
13481W        W29375  11.808  12.856  15.442  0.2226 -0.1486 -0.3440
13482W        W29376  13.015   8.508   6.122  0.3013  0.0038  0.2739
13483W        W29377  12.862  12.130   3.809  0.0917  0.0804 -0.3300
13484W        W29378  14.655   5.460  15.068  0.0450  0.0776 -0.3669
13485W        W29379   1.863  14.195  16.654 -0.3535  0.0784  0.1980
13486W        W29380   1.915  13.680   0.992  0.1827 -0.0312 -0.1637
13487W        W29381  13.948   9.243  15.092 -0.2625 -0.0336  0.1363
13488W        W29382   6.350  17.198  13.512 -0.0217  0.0171 -0.2739
13489W        W29383  11.951   4.247   6.364 -0.1735  0.1611  0.2333
13490W        W29384  10.709  12.466  13.619  0.0420 -0.1655 -0.0578
13491W        W29385  12.882   2.855   4.512 -0.2066  0.0471 -0.1789
13492W        W29386   0.074  16.175   3.148 -0.0438  0.0909  0.0730
13493W        W29387   5.638  13.757   0.782 -0.2007 -0.1818  0.0593
13494W        W29388  11.571   4.816   4.874  0.1902  0.2749 -0.3895
13495W        W29389  14.438  12.827   5.224  0.0221 -0.0532  0.0018
13496W        W29390   7.346   2.832   0.836 -0.1141  0.1153  0.0539
13497W        W29391  11.961   3.162   3.632  0.0703  0.0263  0.2104
13498W        W29392  15.350   5.392  14.388  0.2133 -0.2303 -0.1861
13499W        W29393   5.755   9.393   3.433  0.0886 -0.1261  0.0793
13500W        W29394  13.062   9.358  15.361 -0.0658 -0.2632 -0.0021
13501W        W29395   9.129   6.158   4.727 -0.2927 -0.1169 -0.2292
13502W        W29396  17.237   7.269   4.948 -0.2684 -0.1353 -0.1488
13503W        W29397   7.758   7.791   0.466  0.0684 -0.1799 -0.0282
13504W        W29398  16.548   9.936   0.195  0.0229  0.2052 -0.0639
13505W        W29399   1.274   2.372  15.201 -0.1133  0.0970 -0.0792
13506W        W29400   4.040   2.372   0.908 -0.0434 -0.0326 -0.0484
13507W        W29401  17.350   9.408   3.087 -0.0651  0.2856  0.0857
13508W        W29402   4.734   8.939   3.461 -0.0641 -0.6226  0.1921
13509W        W29403   9.593   9.841  15.048  0.2152 -0.0747 -0.0388
13510W        W29404  10.111   8.382   1.230 -0.1197  0.0675  0.3110
13511W        W29405   6.341   1.558  14.579  0.0738 -0.0760  0.1648
13512W        W29406  17.378   9.820  13.570  0.0824  0.0480  0.0974
13513W        W29407   2.644   7.272  16.510  0.0613  0.2067 -0.1183
13514W        W29408   6.806  11.854  10.724  0.0130 -0.0801 -0.1079
13515W        W29409   2.163  12.402  14.608  0.0398  0.0676  0.0202
13516W        W29410  16.514   0.806   5.537  0.0890 -0.3659  0.2250
13517W        W29411   2.934   3.977   5.340  0.4498 -0.3877 -0.1194
13518W        W29412   6.248   3.578   4.761 -0.2609 -0.1968 -0.0574
13519W        W29413   2.512  17.484   4.404 -0.1792  0.1400 -0.0245
13520W        W29414   7.380  11.943   4.429  0.0351 -0.2546  0.0543
13521W        W29415  12.271  13.457  12.324 -0.1739  0.2646  0.1374
13522W        W29416   9.868   5.031   0.889  0.2920 -0.1162  0.0437
13523W        W29417   7.121  12.446  12.049  0.2981 -0.1205  0.2071
13524W        W29418  10.818   3.297  12.992 -0.1131  0.0787 -0.0768
13525W        W29419   4.022   7.060  16.848 -0.1230 -0.0709  0.0347
13526W        W29420  16.021   4.597   6.289  0.3713 -0.2179 -0.0624
13527W        W29421   9.389   6.571   5.301  0.1555  0.1381  0.0853
13528W        W29422  13.283   7.522  13.933 -0.0429 -0.1513 -0.1762
13529W        W29423   4.043   4.923   4.087 -0.0576  0.1126 -0.0093
13530W        W29424   6.565   9.404   0.483 -0.3641 -0.1255 -0.0928
13531W        W29425  11.025  16.732   0.003 -0.3213 -0.0288 -0.6023
13532W        W29426  12.256   8.456   2.342 -0.3590 -0.0532 -0.1968
13533W        W29427  10.570   1.694   5.184  0.1295 -0.1084  0.1486
13534W        W29428  13.514  12.176   2.567 -0.2941 -0.4215  0.3494
13535W        W29429   3.563   5.974   2.106  0.0046 -0.2201  0.0054
13536W        W29430  15.041   9.383   3.881  0.0868 -0.0153  0.0289
13537W        W29431  13.466  10.393  12.520  0.0047 -0.0722 -0.3053
13538W        W29432   7.447  15.828   3.247 -0.0487  0.0662  0.0941
13539W        W29433  10.359   9.503   4.458 -0.1693  0.1406 -0.1507
13540W        W29434   0.039  13.618   0.987  0.0248 -0.3006 -0.1564
13541W        W29435  17.588  17.068  16.380 -0.0018  0.2574 -0.0475
13542W        W29436   1.345   1.487  13.101  0.0803 -0.0427 -0.1424
13543W        W29437   0.212  17.120   3.631  0.2709  0.0156 -0.1044
13544W        W29438   2.268  15.354   4.736 -0.2442  0.2508  0.1356
13545W        W29439  16.974  13.280   1.403 -0.0142 -0.0713  0.0921
13546W        W29440   5.889   2.238  16.549  0.1805 -0.1754 -0.0831
13547W        W29441  11.215  15.662   4.579  0.0059 -0.1514 -0.0754
13548W        W29442   5.619   2.064  13.999  0.0339 -0.1623  0.0254
13549W        W29443   3.561   6.042   3.792 -0.0816 -0.1172 -0.0564
13550W        W29444   7.372  13.904  14.086 -0.0551 -0.0677  0.0122
13551W        W29445  12.864   0.622   3.208  0.0408  0.0620 -0.0751
13552W        W29446   1.980   9.316  13.530 -0.2282 -0.4182  0.1001
13553W        W29447   0.578   5.670  12.589  0.1267  0.2620 -0.1023
13554W        W29448   1.186   8.137   0.323 -0.4497  0.0496 -0.1903
13555W        W29449  10.906  11.978   0.733  0.2758  0.0901  0.0097
13556W        W29450  11.282  14.874   6.301 -0.0734 -0.0403  0.1265
13557W        W29451   4.119  16.356  15.094  0.1962 -0.1772  0.2797
13558W        W29452  15.541  16.624  12.912  0.2098  0.1783 -0.0232
13559W        W29453  16.477   8.014   3.550  0.1004 -0.1858 -0.0854
13560W        W29454   5.020   3.926   2.119  0.0209  0.0638 -0.1644
13561W        W29455   8.587   7.594  14.087 -0.1037 -0.1233 -0.0000
13562W        W29456  11.601   0.386   5.183 -0.1938 -0.1375 -0.6347
13563W        W29457   4.914   5.539   4.773  0.0549 -0.1011  0.0036
13564W        W29458  10.247   9.510   3.759  0.1429  0.1143 -0.2922
13565W        W29459  15.883   6.520  13.041 -0.0634  0.1939 -0.0737
13566W        W29460   6.585   5.004   5.071  0.1874 -0.0167  0.0602
13567W        W29461   7.042  10.375   1.174 -0.1560 -0.0351 -0.1337
13568W        W29462  15.514   0.616  12.399  0.1968  0.3058  0.2287
13569W        W29463   4.474   8.892  12.142  0.0137 -0.3996  0.0528
13570W        W29464  10.055   9.314   5.942  0.2293 -0.1299  0.0896
13571W        W29465  13.789   4.948  16.569  0.1388 -0.3003 -0.1526
13572W        W29466  11.460  12.762  14.405  0.0782  0.2302 -0.0141
13573W        W29467   2.346  11.364  16.624 -0.0541 -0.0143 -0.2824
13574W        W29468   2.400   8.350   2.853 -0.2077 -0.3790  0.0448
13575W        W29469   3.286   7.993  16.334 -0.0369  0.2513 -0.0090
13576W        W29470  16.861   1.143  12.762 -0.2375 -0.0424  0.2920
13577W        W29471   3.351  11.397   5.533 -0.0578 -0.1357  0.0117
13578W        W29472   5.952   3.392  15.767 -0.0991  0.2478 -0.1827
13579W        W29473   1.271   1.712   1.742  0.3424 -0.1652 -0.3074
13580W        W29474  13.375  11.117  16.866 -0.1223  0.2150 -0.3063
13581W        W29475   2.642  15.777   3.859  0.1660 -0.0020 -0.1997
13582W        W29476   4.781   5.288  15.918  0.1445  0.2843 -0.0054
13583W        W29477  13.940   2.976   1.100 -0.0393  0.1967 -0.0763
13584W        W29478  15.992   3.360   1.472  0.2495 -0.2074 -0.0436
13585W        W29479  11.369  10.845  16.474  0.1370 -0.4413  0.0848
13586W        W29480   5.324  14.582   2.395 -0.1292 -0.2924 -0.0425
13587W        W29481  16.298   4.497   3.978  0.1540 -0.0223 -0.2614
13588W        W29482   1.152   8.743  11.391 -0.0108 -0.0894  0.1526
13589W        W29483  10.793   6.564  14.228  0.1166  0.0679 -0.1388
13590W        W29484   7.991   1.207  15.303 -0.0169 -0.0532  0.1026
13591W        W29485  14.668   1.155  15.476 -0.0426  0.0192  0.1905
13592W        W29486  11.001  15.482   5.455 -0.3207 -0.0725 -0.4170
13593W        W29487   2.602   8.698  13.974  0.0536 -0.2814 -0.1961
13594W        W29488  12.468  10.681  12.600  0.1406 -0.0073  0.0628
13595W        W29489   9.702   2.314   5.238 -0.0225 -0.0977  0.0497
13596W        W29490  11.594   5.767   5.306 -0.1784  0.0080 -0.2569
13597W        W29491   5.817  10.752   6.261  0.0200 -0.1832  0.3365
13598W        W29492   3.041  11.141   3.339  0.0682  0.1313  0.0579
13599W        W29493   6.808   3.632  12.030 -0.1553  0.2045 -0.2137
13600W        W29494   4.356   5.732   0.243  0.0440 -0.0128 -0.0655
13601W        W29495   9.781   9.936   0.718 -0.1366  0.0274 -0.0098
13602W        W29496  11.158  11.409  11.736 -0.0710 -0.1105  0.1907
13603W        W29497  13.066   2.226  12.195  0.1588  0.2834 -0.0649
13604W        W29498   9.430   6.370   4.397  0.1211 -0.2814  0.0441
13605W        W29499   8.894  17.061   2.120 -0.0209  0.0407 -0.1657
13606W        W29500   8.649  15.183   1.538  0.0847 -0.6733 -0.1634
13607W        W29501   0.684   6.657  14.607 -0.0377 -0.2341  0.0463
13608W        W29502  13.502   5.608  14.526  0.1293 -0.0426 -0.0885
13609W        W29503   8.744   0.388   2.406 -0.0222  0.0376 -0.0746
13610W        W29504   8.415   2.374  11.709 -0.2675 -0.0328 -0.0005
13611W        W29505  15.777  17.553  16.557 -0.0297  0.3013  0.1837
13612W        W29506   1.196  13.629   2.529 -0.1233 -0.0951 -0.1215
13613W        W29507   2.306   4.016  16.722 -0.0521  0.2902 -0.3241
13614W        W29508   3.978  11.843  13.841  0.0635 -0.2752 -0.2228
13615W        W29509   9.472   7.065   3.191  0.3434 -0.3156  0.0905
13616W        W29510   5.295  11.715   1.600 -0.3524  0.2268  0.0258
13617W        W29511   2.315   3.301   1.038  0.0014  0.1435  0.0371
13618W        W29512  10.411  13.474  16.373 -0.2855 -0.0310 -0.1525
13619W        W29513  10.368   8.182  16.059  0.0551  0.0977 -0.0296
13620W        W29514  17.051   3.823  13.286 -0.0645 -0.2301 -0.1256
13621W        W29515   3.617   6.924  15.635 -0.1088 -0.1421  0.0616
13622W        W29516   3.195   2.297  16.694 -0.1525 -0.0016  0.0978
13623W        W29517  11.065  10.746   1.671 -0.1795 -0.0899 -0.1635
13624W        W29518  14.299   6.096  12.435 -0.0553  0.0353 -0.1963
13625W        W29519   9.004   7.932  15.864 -0.0638 -0.0001 -0.1050
13626W        W29520  11.030   9.679  13.181 -0.1789 -0.0970  0.2139
13627W        W29521   1.573   0.408  14.815 -0.2700  0.0295 -0.0899
13628W        W29522   2.742   2.369  14.545  0.1123  0.1000  0.2320
13629W        W29523  15.874   5.453  12.630  0.0988  0.0794  0.0385
13630W        W29524   6.227   4.009   1.695 -0.1085 -0.1593 -0.1480
13631W        W29525  16.853  10.283  16.802 -0.1612 -0.1714 -0.1282
13632W        W29526   9.438   7.744  15.719  0.0064  0.0449 -0.0498
13633W        W29527   9.835  12.306   5.463  0.2634  0.0314 -0.4150
13634W        W29528   0.197   0.696   5.708  0.1627 -0.0851  0.1251
13635W        W29529   8.694   0.059  14.847  0.0624 -0.5193  0.0792
13636W        W29530  11.438  16.011   4.300  0.5582  0.0898  0.0819
13637W        W29531   8.060   8.356  12.161  0.1831  0.0118  0.0402
13638W        W29532   9.672   2.477  14.050 -0.1730  0.0479  0.0292
13639W        W29533  17.184   8.309   4.687 -0.0157 -0.0534 -0.0222
13640W        W29534  16.527  15.130   1.295 -0.1488 -0.2179 -0.2181
13641W        W29535   6.724  11.520  16.496 -0.0297  0.0188 -0.4176
13642W        W29536  12.548   7.351   2.972  0.2134 -0.0902 -0.1294
13643W        W29537  11.544  11.836   0.043  0.0965  0.0796 -0.0652
13644W        W29538   2.608   9.296  16.049 -0.2879  0.2054  0.1921
13645W        W29539   3.997   8.469   1.753 -0.1364  0.2487 -0.1335
13646W        W29540  16.354  13.282   4.359 -0.0877  0.0459  0.3344
13647W        W29541  10.402  10.701  15.308  0.1336  0.0312  0.1761
13648W        W29542  12.598   8.172  11.932  0.2619 -0.1529  0.0481
13649W        W29543   8.527   9.515  12.500 -0.1010 -0.0739 -0.1908
13650W        W29544  14.828   8.176   5.561 -0.2093 -0.1964  0.3604
13651W        W29545  11.157  14.754   1.155  0.1781 -0.1340  0.0871
13652W        W29546   2.787   1.970   4.272 -0.0532  0.3937 -0.1706
13653W        W29547   9.764  10.384  15.842  0.1154  0.0010  0.0083
13654W        W29548   3.661  10.845   0.069 -0.2098  0.0731 -0.2409
13655W        W29549   4.599  11.567  11.904  0.4553 -0.1755  0.2085
13656W        W29550  17.255   7.331   1.319  0.0907  0.3024  0.3019
13657W        W29551  14.326  13.901   0.189  0.1602  0.1879 -0.0939
13658W        W29552  12.050  15.049  15.669  0.2644 -0.1623  0.2373
13659W        W29553  16.950  12.583   2.205  0.1581 -0.1239  0.0568
13660W        W29554   2.289  10.183  12.281  0.0512  0.2322 -0.2406
13661W        W29555  12.548  10.582  14.112  0.1889  0.0205  0.0174
13662W        W29556   6.826   2.447  12.649 -0.1552  0.2291 -0.4284
13663W        W29557  11.942   4.511   0.118 -0.2532  0.3833  0.1583
13664W        W29558   9.232   8.711  16.331  0.0912  0.0237  0.2441
13665W        W29559  17.841   3.696  15.649 -0.2847 -0.3096  0.0890
13666W        W29560   3.000   6.193  15.076  0.0486  0.0657 -0.0722
13667W        W29561   4.719   9.924  14.980 -0.1328 -0.2496 -0.1565
13668W        W29562  12.947  14.909   3.677  0.2837 -0.0484  0.1566
13669W        W29563   9.090  16.628   4.950 -0.0673  0.1176  0.0921
13670W        W29564  16.279  14.751   1.150  0.3737 -0.1775 -0.0953
13671W        W29565   1.904  16.437   3.205 -0.1030 -0.2523 -0.1612
13672W        W29566  16.689  11.053  12.263  0.0364 -0.0910  0.2173
13673W        W29567   1.729  14.185  14.461 -0.0427 -0.2123 -0.1264
13674W        W29568   5.206   9.347   0.887 -0.0594  0.2084  0.0341
13675W        W29569  12.896  14.839  11.893 -0.3663  0.1329 -0.1585
13676W        W29570   3.242  17.579  15.295 -0.1142 -0.1037 -0.0493
13677W        W29571  12.291   0.298   1.376 -0.1218 -0.2516  0.0840
13678W        W29572   8.123   7.274  16.078 -0.0922 -0.1649  0.0788
13679W        W29573  15.314   9.292   0.076 -0.0324  0.1541 -0.0183
13680W        W29574   1.884   8.286  16.726  0.0715 -0.1065 -0.1105
13681W        W29575  12.336   7.744  15.583 -0.2846 -0.1202  0.1396
13682W        W29576  15.689   5.898   2.253  0.1050  0.2048 -0.0499
13683W        W29577  15.108  16.982   0.633 -0.1455 -0.0411 -0.0314
13684W        W29578   6.897   8.692  14.686  0.2387  0.0618 -0.2704
13685W        W29579  17.023   7.027   2.539  0.1241 -0.2650  0.0881
13686W        W29580   0.941  12.104  14.338  0.1093 -0.0241 -0.1015
13687W        W29581   5.605  15.451  16.774  0.1539  0.1467 -0.0152
13688W        W29582  14.337   2.222   0.846 -0.2256 -0.1715 -0.1290
13689W        W29583  17.371  14.599  12.380  0.0333 -0.1267  0.2000
13690W        W29584  17.386  17.214  16.860 -0.0636 -0.1792 -0.1443
13691W        W29585  11.134  14.836  16.134 -0.2319  0.2913  0.0082
13692W        W29586   8.392  10.841  12.769  0.2334  0.0869 -0.0041
13693W        W29587   8.652   3.856   2.446  0.3880  0.1179  0.2738
13694W        W29588  15.121   7.579  16.250  0.0025 -0.0990 -0.0838
13695W        W29589   9.045   5.615   6.058 -0.1137 -0.0495  0.1346
13696W        W29590  10.678   9.142  15.774  0.0381 -0.3850  0.0618
13697W        W29591  15.597   8.841  14.345 -0.1018  0.1753  0.0280
13698W        W29592   3.221  13.509  12.762  0.0076  0.2763 -0.0921
13699W        W29593  10.531  14.620   2.399  0.1591  0.1330 -0.0026
13700W        W29594   6.368   8.002  12.505  0.2609  0.1387  0.1513
13701W        W29595   5.973  10.606  16.793  0.1417 -0.2368  0.0023
13702W        W29596  15.062  11.880   3.283  0.0280  0.1919 -0.0837
13703W        W29597   4.111  12.294   0.611  0.0746  0.1945 -0.0858
13704W        W29598   0.839   4.555  12.453  0.0950  0.0849 -0.1169
13705W        W29599   1.758   3.155   0.452  0.1369  0.0801 -0.1849
13706W        W29600   4.887  16.597   1.680  0.0273  0.1396  0.4297
13707W        W29601  10.331   8.221   2.619 -0.4307 -0.5891  0.1720
13708W        W29602  14.252   7.936   1.447  0.0390  0.0434 -0.1729
13709W        W29603   0.308  15.464  13.339 -0.1273  0.0201 -0.1143
13710W        W29604  15.623   4.605   4.908 -0.1008 -0.1648 -0.3449
13711W        W29605  17.046  12.305  15.033 -0.1756  0.1463 -0.0908
13712W        W29606  10.310  11.135  15.005 -0.1724  0.3597  0.2371
13713W        W29607  14.837   7.643   4.367  0.0902 -0.0476 -0.2836
13714W        W29608   0.360   1.202  12.329 -0.0635 -0.0525 -0.1630
13715W        W29609   3.881  17.761   4.266  0.0117  0.2493 -0.0080
13716W        W29610   3.578   1.297   4.486  0.2698 -0.1653  0.1800
13717W        W29611  17.499   4.051  15.737  0.1380  0.3383  0.0137
13718W        W29612   1.890   3.600  15.841  0.0698  0.1219 -0.1480
13719W        W29613  11.306   7.952  15.919  0.0141 -0.2417 -0.0192
13720W        W29614  10.781   5.457  11.550 -0.0077 -0.2990  0.0896
13721W        W29615  10.724  10.013   6.051  0.0683  0.3826  0.2777
13722W        W29616   1.115   1.833  14.582 -0.0543 -0.0733  0.1118
13723W        W29617   6.362   9.625  16.901  0.1210  0.1178 -0.4427
13724W        W29618   9.742   0.559  11.707 -0.1772  0.1068  0.1542
13725W        W29619   7.762   1.429  13.938  0.0271 -0.1903  0.2038
13726W        W29620   0.073  16.561   4.879 -0.2289 -0.0169 -0.0692
13727W        W29621  10.460  16.701  14.275  0.1652  0.2996 -0.0136
13728W        W29622   0.907   7.244   5.006  0.1144  0.0952  0.1624
13729W        W29623   8.387   4.087   0.630 -0.3740  0.0028 -0.1310
13730W        W29624   0.989  11.633   6.589 -0.0130 -0.0238  0.0910
13731W        W29625  16.032   8.805   4.486  0.0238 -0.0951 -0.0366
13732W        W29626  13.736   0.077  15.171  0.2311 -0.0549 -0.1317
13733W        W29627  14.138   5.215   0.510 -0.0361  0.2373 -0.1200
13734W        W29628   4.942  14.221   0.217  0.2195 -0.2053  0.2768
13735W        W29629  15.022  14.217  12.586  0.0881  0.0088 -0.2186
13736W        W29630   5.077  10.019   2.047  0.0874 -0.0170  0.3637
13737W        W29631   6.175   3.149  14.006 -0.1275 -0.2094 -0.0250
13738W        W29632  10.742  14.569  12.324 -0.0167  0.0740 -0.0698
13739W        W29633   2.440   2.221  16.127 -0.0693  0.0463  0.0758
13740W        W29634   8.976   3.259   1.799  0.2353  0.0533 -0.2522
13741W        W29635  10.356   9.049   1.936  0.0265  0.1185  0.1426
13742W        W29636  15.677   4.492  14.510  0.4190 -0.2940  0.0844
13743W        W29637  15.249   8.709  15.156 -0.1700 -0.0625 -0.0941
13744W        W29638  15.915  13.575   4.843 -0.0021 -0.3222  0.0196
13745W        W29639  11.858  14.270   3.746  0.1043 -0.0219  0.0506
13746W        W29640   4.031   9.595  11.408 -0.1782  0.2247  0.0485
13747W        W29641   3.149  12.850  16.089  0.1632  0.0474 -0.1418
13748W        W29642  14.125  10.017   4.957  0.2150 -0.0572  0.0426
13749W        W29643  16.879  10.727  11.892 -0.0722 -0.0240  0.2507
13750W        W29644   5.955   7.038  12.716  0.3097  0.0595 -0.2830
13751W        W29645   8.478   8.554   5.651 -0.0655  0.1815 -0.0181
13752W        W29646  15.046   3.763   3.687 -0.2038 -0.0629 -0.0905
13753W        W29647  11.904  14.326  13.605 -0.2781  0.0954  0.1987
13754W        W29648   3.271   4.419  13.156  0.0065 -0.0670  0.0947
13755W        W29649   2.301   2.270  11.721 -0.0870 -0.1434 -0.0914
13756W        W29650   1.229  15.538  13.145 -0.1905 -0.1286 -0.2126
13757W        W29651   0.687   7.351  13.182  0.1820 -0.0007  0.0457
13758W        W29652   8.274  14.059  15.340  0.1723  0.0569  0.0748
13759W        W29653  12.017   9.978   5.321 -0.2333 -0.0193  0.1025
13760W        W29654   6.599  12.441   3.553 -0.1304 -0.3293  0.1036
13761W        W29655  10.874  17.117  13.456 -0.3259 -0.0030 -0.0235
13762W        W29656  15.943  12.955  16.279 -0.0357  0.2691  0.1237
13763W        W29657  10.051  10.965  12.188  0.0101 -0.1476  0.4143
13764W        W29658   4.137   5.301  13.754 -0.3112 -0.2479 -0.1892
13765W        W29659   2.492  13.020   2.271  0.2223 -0.0653 -0.1307
13766W        W29660   6.293  14.273   2.196 -0.0035  0.2404  0.1934
13767W        W29661   0.260   0.104  11.731 -0.2410 -0.2494 -0.2989
13768W        W29662  14.227  11.909   5.582  0.0632 -0.2463  0.0565
13769W        W29663   8.005   3.291   2.904 -0.0587 -0.2830  0.2226
13770W        W29664   5.995   0.688  12.201  0.2872  0.0966  0.0287
13771W        W29665  12.995  15.531   3.484 -0.1697 -0.0483 -0.0933
13772W        W29666   3.280  17.385   1.981  0.2586 -0.2382  0.1284
13773W        W29667  14.073  14.245  12.654 -0.0354 -0.1955  0.1454
13774W        W29668   0.076   0.903   2.818 -0.2152  0.1473  0.0605
13775W        W29669   6.263   1.947  16.914 -0.1093 -0.0224 -0.1148
13776W        W29670   5.103   4.602  16.775 -0.3095  0.0295 -0.3435
13777W        W29671   8.304  17.584  16.656 -0.0169 -0.1793  0.0991
13778W        W29672   2.284  13.400  16.054 -0.0657  0.1816  0.2366
13779W        W29673  15.531   6.827   2.212 -0.2342  0.4076 -0.2964
13780W        W29674  12.330   8.650   5.370  0.0295 -0.0772  0.0692
13781W        W29675   3.298  13.083  15.270 -0.2452 -0.0242  0.3472
13782W        W29676   0.735  11.463   0.666 -0.1653  0.0858  0.1088
13783W        W29677  11.303   4.377   0.876 -0.2159 -0.3996 -0.0382
13784W        W29678   6.636   1.519   4.239 -0.1024 -0.0073 -0.0634
13785W        W29679  16.706  13.937   0.144 -0.0235 -0.2194 -0.1573
13786W        W29680   0.747   9.125   1.924  0.0161 -0.0868  0.2869
13787W        W29681   0.017  11.046   3.249  0.1402  0.3337  0.2086
13788W        W29682  17.689   7.629  16.501 -0.0795 -0.2242 -0.1788
13789W        W29683   4.400   5.155  15.580 -0.1626  0.0103 -0.0013
13790W        W29684   5.873  10.427  12.236  0.0111  0.1451  0.0873
13791W        W29685  14.423   4.548  16.864  0.0980 -0.1025 -0.2022
13792W        W29686   2.496   9.946   0.606  0.0253 -0.2882 -0.3172
13793W        W29687  17.782  12.524   2.856  0.2139  0.1928 -0.0951
13794W        W29688   0.200  11.650   1.731  0.6939  0.1579  0.3005
13795W        W29689   9.788   5.772  12.671 -0.1866 -0.1088  0.1413
13796W        W29690   8.800   9.012  15.942  0.1908 -0.2497  0.1456
13797W        W29691   3.602  14.009   3.476 -0.1080  0.1783  0.1516
13798W        W29692  10.262   4.586  13.051  0.2789  0.1000  0.1707
13799W        W29693   8.849  13.593   4.365 -0.0696  0.2636 -0.2406
13800W        W29694  10.324  16.040   2.120 -0.0107  0.2175 -0.0982
13801W        W29695   0.307   5.510  13.525  0.0411  0.1757  0.4840
13802W        W29696   0.587   5.737   2.345 -0.1994 -0.1341 -0.3567
13803W        W29697  11.556  14.799  16.480 -0.1858 -0.0120 -0.1277
13804W        W29698  16.442   9.611   2.651  0.1004  0.0954  0.2073
13805W        W29699  13.350   2.461  14.703 -0.1279  0.1912 -0.1129
13806W        W29700  10.847   7.140   2.951  0.1430 -0.1167 -0.0640
13807W        W29701   4.773   1.934   4.637  0.1660  0.0427  0.1221
13808W        W29702   6.477  12.276   2.756  0.4019 -0.0521  0.0528
13809W        W29703   8.452  10.263  11.797 -0.0402  0.0854  0.2767
13810W        W29704  11.645   0.720   5.666  0.3063 -0.1362  0.0499
13811W        W29705   7.757  14.231  15.429 -0.1188 -0.3154 -0.0607
13812W        W29706   9.934   4.619   2.583 -0.0456 -0.4701  0.1221
13813W        W29707   1.616  14.938   2.086 -0.0622  0.1789  0.0060
13814W        W29708   1.872  14.849  16.481  0.0069 -0.0312  0.0051
13815W        W29709   1.460   7.680   0.504  0.1022  0.0700  0.2380
13816W        W29710  12.884   7.427  13.619  0.0363 -0.0499 -0.3066
13817W        W29711   5.686   7.127   2.938  0.1601 -0.1536  0.1138
13818W        W29712  16.965   5.493   0.081 -0.3466 -0.0164  0.0915
13819W        W29713   7.125  14.431  11.527 -0.2072  0.3300  0.0830
13820W        W29714   2.008   7.664   4.211 -0.2119  0.0215  0.0143
13821W        W29715  14.758   2.766   3.815 -0.0371  0.3386 -0.1014
13822W        W29716   4.276  12.597  13.057 -0.1486  0.0057 -0.1267
13823W        W29717  14.838   8.983   3.594  0.0439 -0.2066  0.2024
13824W        W29718   8.836  16.797  16.258 -0.0452  0.0039 -0.4326
13825W        W29719   5.395   2.774   2.247 -0.2392 -0.0415  0.2347
13826W        W29720  12.727   7.451  12.404  0.3665 -0.1475  0.1099
13827W        W29721  10.231  12.311  14.325  0.0054  0.2634  0.0999
13828W        W29722   8.262  16.971   0.497 -0.3431 -0.2434 -0.1519
13829W        W29723   1.181  16.285   4.813  0.0333 -0.1015  0.0609
13830W        W29724   0.474   4.179  13.326  0.0200  0.0009 -0.0316
13831W        W29725   0.951  14.917   5.866 -0.1901 -0.3120 -0.1428
13832W        W29726   5.528   7.675   4.334  0.1908 -0.0884 -0.3394
13833W        W29727   4.899  14.299  12.995 -0.0782 -0.2017  0.0351
13834W        W29728  16.616   4.576   5.397  0.1282 -0.0304 -0.1218
13835W        W29729   0.977   7.404   1.524 -0.0650 -0.1801 -0.4163
13836W        W29730   3.742  10.459   3.279 -0.3286 -0.3052  0.1991
13837W        W29731  15.743   0.115   1.276 -0.3942 -0.0348  0.0755
13838W        W29732  12.378   8.181  16.479  0.0490  0.0318  0.0609
13839W        W29733  15.322   2.188  12.191  0.0193  0.4910 -0.0595
13840W        W29734  12.234  10.593  16.336  0.2617 -0.2286  0.0951
13841W        W29735   6.086   3.905  16.490 -0.2552  0.0007 -0.1840
13842W        W29736   6.582  11.203   2.813  0.1198 -0.1598 -0.0579
13843W        W29737   6.223  17.306  12.938 -0.0868 -0.3278 -0.0813
13844W        W29738   5.175  16.529   2.109  0.0685 -0.0175  0.0454
13845W        W29739   4.474   5.231   2.259  0.0896 -0.1197  0.2072
13846W        W29740  13.383  14.471  13.362 -0.0814  0.4275  0.1667
13847W        W29741  14.973  15.800   1.226 -0.0126 -0.3807 -0.2962
13848W        W29742   3.710  14.390   0.679  0.1132 -0.1127 -0.2348
13849W        W29743   1.938   9.237   2.843  0.2791  0.0137 -0.0525
13850W        W29744   2.900   1.486   0.641 -0.1584 -0.2611  0.0828
13851W        W29745   1.081  14.053   1.790  0.1675  0.0326  0.2597
13852W        W29746  13.868  17.016   1.269 -0.1071 -0.1517 -0.0217
13853W        W29747  10.407  10.302  12.151  0.0607  0.1026  0.0057
13854W        W29748   6.099   9.159  12.570 -0.0460 -0.0507 -0.0065
13855W        W29749   4.888   2.430   0.919 -0.4485 -0.1414 -0.0549
13856W        W29750   7.131  14.588  12.565  0.1792  0.1779  0.1800
13857W        W29751  14.357   5.600   2.444 -0.1560  0.2938 -0.1481
13858W        W29752  14.163  12.081  13.377 -0.1267  0.1147  0.2029
13859W        W29753  11.317   9.512   2.424 -0.1304  0.1656 -0.0177
13860W        W29754   8.703   0.516   0.407 -0.0538 -0.1955 -0.2344
13861W        W29755   2.885   2.768   2.563 -0.0692  0.0199 -0.0253
13862W        W29756   5.735  17.818  11.536  0.3647  0.0325  0.2520
13863W        W29757   5.964  15.966  12.255 -0.1687 -0.2530  0.3027
13864W        W29758   5.507   0.004   0.943  0.0555  0.2311  0.0617
13865W        W29759   9.422  11.084   0.274  0.3964  0.1053  0.1280
13866W        W29760   1.006   0.821  14.610  0.3400  0.2550 -0.1916
13867W        W29761   7.721  13.323  12.166  0.0850 -0.1361 -0.2059
13868W        W29762   8.809  11.286  13.310  0.0011 -0.1004  0.2035
13869W        W29763  13.152  13.781   4.157  0.0374  0.0636 -0.1166
13870W        W29764   3.331  13.070  11.874 -0.2244  0.1860  0.1782
13871W        W29765  17.643   3.857  14.802  0.1559  0.0450  0.2605
13872W        W29766  17.423  11.790  16.810  0.0455 -0.0509  0.0781
13873W        W29767   0.577   2.888  12.619  0.0555  0.0767 -0.4129
13874W        W29768  10.894  15.189   0.179 -0.0370 -0.2488 -0.3290
13875W        W29769  14.313  14.740   0.509  0.5123  0.1467 -0.2370
13876W        W29770   1.873   7.478  16.168 -0.1276 -0.3915  0.2564
13877W        W29771  14.209   5.745   4.977 -0.1915 -0.1712 -0.0575
13878W        W29772   4.495   8.006   0.424  0.2684  0.3555 -0.2940
13879W        W29773  12.542   2.786   2.764  0.0553  0.1301 -0.0716
13880W        W29774  11.949   8.604  11.963  0.0710  0.1631 -0.1908
13881W        W29775   5.152  15.696   4.551 -0.1334  0.3672 -0.0362
13882W        W29776  12.900   4.139   1.515  0.3512  0.2130  0.0534
13883W        W29777   7.203   0.184  12.452  0.1469 -0.2016  0.1059
13884W        W29778  16.725  14.777   1.558 -0.0688  0.0517  0.0741
13885W        W29779   0.933  10.948  12.637 -0.0746 -0.2041  0.3772
13886W        W29780   9.581   6.927   5.618  0.1337  0.1337  0.2821
13887W        W29781  14.188   3.531  14.814 -0.0298  0.1888  0.1409
13888W        W29782  11.368  13.619   4.312 -0.1586 -0.0702  0.0275
13889W        W29783  16.096   9.186  15.043 -0.1363 -0.1886  0.0630
13890W        W29784  16.265  12.378   4.304 -0.2357  0.0488 -0.1898
13891W        W29785  15.815   6.267  14.512 -0.0034  0.3163 -0.1512
13892W        W29786  11.219   1.446   3.969 -0.1942 -0.2518  0.0346
13893W        W29787   6.067   0.491   6.172  0.0664  0.3677 -0.0705
13894W        W29788   5.428   4.114   5.458  0.0709 -0.1237 -0.0294
13895W        W29789  12.732   6.271  15.001  0.2046 -0.0623  0.0498
13896W        W29790  14.795   1.708  11.336 -0.3276 -0.0155  0.0999
13897W        W29791   3.439  14.551   6.469 -0.1870 -0.1961  0.0320
13898W        W29792   5.901   9.642  12.273  0.4866  0.1093  0.0027
13899W        W29793   5.667  10.256   4.548  0.2174  0.2443 -0.1243
13900W        W29794   2.172  15.373   0.567 -0.0639  0.1963  0.0375
13901W        W29795   4.175  16.810  14.715 -0.1909  0.1882  0.2366
13902W        W29796  12.671  11.589  15.415  0.1606  0.1138  0.1559
13903W        W29797   8.927   4.834  11.720  0.0527 -0.1618  0.2880
13904W        W29798   1.165  17.758   2.534 -0.1080 -0.0948 -0.0188
13905W        W29799  10.834   6.232  11.783 -0.0591 -0.1494  0.2262
13906W        W29800   2.069   2.728   4.024 -0.1194 -0.3845  0.0346
13907W        W29801  12.404   2.167   5.427 -0.0355  0.3539 -0.4012
13908W        W29802   3.492  13.242   1.796 -0.0236  0.0752 -0.1550
13909W        W29803  17.185  14.709   0.675 -0.1333  0.3031 -0.1852
13910W        W29804   9.881  15.029  13.270  0.3664 -0.3781  0.1125
13911W        W29805  10.311   1.499  12.992  0.2671 -0.1682 -0.1152
13912W        W29806   6.425   6.210  15.331 -0.2113 -0.1719  0.0214
13913W        W29807   4.718  16.396  16.381  0.0319 -0.1292 -0.2615
13914W        W29808   8.350  13.226  16.415 -0.1100 -0.3525 -0.1602
13915W        W29809  17.215  15.313   1.876  0.1483  0.1865  0.2954
13916W        W29810   7.881   9.718  14.847  0.2032  0.3628  0.1590
13917W        W29811  11.888   6.270   4.679 -0.0410 -0.1533 -0.0780
13918W        W29812  14.252  16.752   2.557  0.2748 -0.0581 -0.2342
13919W        W29813   4.813   3.601  12.590  0.0871  0.1349 -0.1351
13920W        W29814   2.656   3.278   2.117 -0.0227  0.3368 -0.0302
13921W        W29815   4.595   2.787  11.141 -0.3243 -0.0438 -0.1315
13922W        W29816   8.046   4.150   3.211  0.0325 -0.1873  0.4261
13923W        W29817   3.531   5.835   5.291 -0.1304 -0.0217  0.5255
13924W        W29818  13.234   0.217  15.266  0.1459 -0.2822 -0.0861
13925W        W29819   3.842   6.613   3.671  0.0605  0.3492 -0.0679
13926W        W29820  12.449   3.943   1.768  0.0557  0.1311 -0.0046
13927W        W29821  10.472  14.380   4.274 -0.3568  0.0629 -0.0361
13928W        W29822   2.069   8.933   0.919 -0.1542  0.0006  0.0531
13929W        W29823   5.067  11.731  12.089 -0.0669 -0.2390 -0.1152
13930W        W29824   4.644  14.198  12.255 -0.2506  0.0820  0.1856
13931W        W29825  15.419   1.493  12.806 -0.4211 -0.0529  0.0180
13932W        W29826  13.422   9.022  16.230  0.0266 -0.0172  0.0580
13933W        W29827   2.462   3.924   0.262 -0.3499 -0.1188 -0.0322
13934W        W29828   3.732   8.017  14.536 -0.0827  0.0080  0.1057
13935W        W29829   3.043   3.326  16.664 -0.0420 -0.0174  0.2110
13936W        W29830  16.264   1.372  12.863  0.1978  0.0635 -0.3167
13937W        W29831   4.292   3.406   3.188  0.1067  0.1424  0.0436
13938W        W29832  15.681  15.618  14.406 -0.1244  0.0042  0.2957
13939W        W29833  13.431  14.301   3.740  0.0730  0.0915  0.0163
13940W        W29834   3.943  14.840   3.081 -0.0070  0.1609 -0.0829
13941W        W29835   5.486   5.379   3.205  0.2724 -0.2752 -0.1696
13942W        W29836  15.413   1.889  15.316 -0.0924  0.1799  0.0875
13943W        W29837  13.933  16.152  16.485  0.1516  0.0341 -0.1010
13944W        W29838  11.534   3.650  15.051  0.0590  0.1953 -0.1519
13945W        W29839   9.407  17.464   5.488  0.1191  0.3468 -0.2306
13946W        W29840   9.823  14.765  14.879  0.0311 -0.3422 -0.0766
13947W        W29841   7.105   8.062  13.701  0.1012 -0.0149 -0.0182
13948W        W29842   0.428  10.975   0.854  0.0264 -0.1299  0.1650
13949W        W29843   5.199   1.311   5.501  0.4057  0.0780  0.1713
13950W        W29844  13.481  16.035   5.385 -0.0272 -0.2465 -0.2895
13951W        W29845  11.104  12.704   3.185 -0.2095 -0.0704 -0.1907
13952W        W29846  15.351  12.771  14.622 -0.0591 -0.3490  0.1325
13953W        W29847   9.143   2.378  14.160  0.1810 -0.0940  0.1527
13954W        W29848  14.512   5.056   2.302  0.0850 -0.0502 -0.0397
13955W        W29849   1.877   1.362  14.445 -0.1889  0.1724 -0.0181
13956W        W29850  12.373  15.017  12.881 -0.0910 -0.0946  0.2225
13957W        W29851  10.343   4.095   5.557  0.1516  0.1340 -0.0770
13958W        W29852  15.501   1.787  11.938 -0.1984  0.0600  0.0767
13959W        W29853  12.503  10.310   5.435  0.1677  0.4121 -0.0529
13960W        W29854   9.750  14.064  13.545  0.1670 -0.2672  0.1454
13961W        W29855  13.874  14.469  14.762 -0.0848  0.1139  0.0402
13962W        W29856   5.082  14.235  15.269  0.3773 -0.1347 -0.1431
13963W        W29857  10.063  12.080  15.905  0.0863  0.0526 -0.0171
13964W        W29858   6.069  16.110  16.484  0.1820 -0.1877  0.2024
13965W        W29859  16.886  17.518   2.012  0.3857  0.1225 -0.1588
13966W        W29860  16.937   8.694  13.619 -0.0711  0.0878  0.2376
13967W        W29861   0.077   3.073   4.139  0.0817 -0.2169  0.0347
13968W        W29862   1.326  16.104  16.388 -0.2668 -0.1426  0.2069
13969W        W29863  15.356  14.589  12.709  0.0643  0.1417  0.0888
13970W        W29864  14.511   0.613   2.921  0.2556 -0.0732  0.1235
13971W        W29865  12.276  13.543  13.806 -0.0121 -0.1330 -0.1600
13972W        W29866   1.696   2.383  13.003 -0.1100  0.0492  0.2034
13973W        W29867   4.778  15.336   2.792  0.1299 -0.0156 -0.1220
13974W        W29868   8.274   9.067   4.794  0.3292  0.0665 -0.0560
13975W        W29869   1.183   5.184  11.984  0.0080 -0.4247  0.0607
13976W        W29870  13.259   4.761   4.726 -0.2735  0.0041 -0.0383
13977W        W29871  15.776  15.072  11.898 -0.1921  0.1523  0.1620
13978W        W29872   3.278  11.230  11.876  0.0956 -0.0944  0.2005
13979W        W29873   5.294  11.349   1.284  0.0828 -0.3475  0.0979
13980W        W29874  10.769  10.975   5.906  0.0115 -0.0843  0.0755
13981W        W29875   5.761   0.610  16.498  0.1748 -0.3470  0.2051
13982W        W29876  17.623  17.192  11.876  0.1435  0.3733 -0.4137
13983W        W29877  13.811   8.244   1.403 -0.0221 -0.0140 -0.2285
13984W        W29878   9.632   1.850  15.649 -0.1815 -0.0228  0.2294
13985W        W29879  12.009   3.376   4.266  0.0043 -0.0234  0.2351
13986W        W29880   7.719  12.385  14.008 -0.0086  0.2397 -0.1442
13987W        W29881   2.293   5.535  13.041 -0.1693 -0.0075 -0.1417
13988W        W29882  13.869   5.430  14.893  0.1940 -0.0235 -0.2263
13989W        W29883   4.198  10.605   6.137 -0.1311  0.0885 -0.1131
13990W        W29884   1.501  15.997  12.515 -0.1309 -0.1762  0.2001
13991W        W29885   3.398  14.168  15.879  0.2438 -0.1440  0.2831
13992W        W29886   4.256  17.154   0.119  0.0584  0.1305 -0.0149
13993W        W29887   5.468  13.127   1.194 -0.3500  0.1018  0.0085
13994W        W29888  17.429   3.371   2.950  0.1797  0.5974  0.2020
13995W        W29889   2.640  15.257   5.534  0.0448 -0.0688  0.0899
13996W        W29890   4.878   5.476  15.409 -0.1656 -0.2282  0.1358
13997W        W29891  13.913   2.146   1.380 -0.1547  0.2109  0.2687
13998W        W29892  12.095   2.281   0.316 -0.2496  0.0773 -0.0848
13999W        W29893   7.200   8.632   4.787 -0.3877  0.2860  0.0658
14000W        W29894   5.743   4.875   2.478  0.2797 -0.3236  0.1072
14001W        W29895   4.726   0.989  15.356  0.2053  0.0080  0.2207
14002W        W29896   1.740   0.984  14.147  0.2042 -0.0602  0.3679
14003W        W29897  16.399   6.374   1.769  0.3921  0.2385 -0.0302
14004W        W29898  11.966   9.213   1.132  0.2192 -0.1355  0.0035
14005W        W29899   5.533  12.985  15.427 -0.0353  0.1702 -0.1467
14006W        W29900  14.631   8.147  10.911 -0.1433  0.0789 -0.0382
14007W        W29901   2.797  13.849  12.055  0.2652  0.2875 -0.0044
14008W        W29902   5.608  12.691   0.819  0.1298  0.2780  0.0957
14009W        W29903  10.744   8.782   5.802 -0.0011  0.2607 -0.0138
14010W        W29904   8.993   2.263   4.273 -0.0368  0.3109 -0.0405
14011W        W29905  15.760   1.207   4.637 -0.0835  0.0297  0.2988
14012W        W29906  17.779   1.073  15.032  0.0046  0.2392  0.2745
14013W        W29907   1.109  15.926   5.174  0.0313 -0.0655  0.0258
14014W        W29908   2.363   1.193  15.248 -0.1127 -0.3154  0.1700
14015W        W29909   2.213  10.980   0.944 -0.0284  0.0754  0.3612
14016W        W29910  16.659   2.459   2.122  0.0226  0.0527 -0.0080
14017W        W29911   3.142  13.454  13.760 -0.1424 -0.0128  0.1297
14018W        W29912   5.673   6.893  13.998 -0.1529  0.0359  0.2307
14019W        W29913   8.802   3.714   6.493 -0.0906  0.0085  0.0098
14020W        W29914   2.076  15.063  12.751 -0.1103  0.0608 -0.1291
14021W        W29915  12.388   0.723   4.740 -0.0483  0.2678 -0.0698
14022W        W29916   8.378   8.323   1.002  0.0707  0.1586  0.0988
14023W        W29917   9.151   0.245   3.319 -0.1832 -0.3319 -0.0659
14024W        W29918  14.740   8.522  15.859  0.1374 -0.1029  0.1778
14025W        W29919  13.128   8.687   4.698  0.1589 -0.1431 -0.2132
14026W        W29920   8.922  14.308  13.786 -0.1769 -0.0005 -0.1379
14027W        W29921  14.920   7.384   3.865 -0.4307 -0.1550 -0.0731
14028W        W29922  10.785   2.627  16.548  0.0939 -0.1546 -0.1199
14029W        W29923   9.786  16.908   1.679 -0.0973  0.1843 -0.0807
14030W        W29924  13.921  15.197   3.530  0.0493  0.1352  0.2254
14031W        W29925  13.831   8.640   3.848 -0.0539 -0.0262 -0.0297
14032W        W29926  13.879   3.704   3.099 -0.2483 -0.0860  0.1386
14033W        W29927   7.760   7.178  14.042  0.1563 -0.2969 -0.1367
14034W        W29928  13.482  16.774  16.075  0.0620  0.3649 -0.0402
14035W        W29929  13.332  13.666   3.654  0.2015  0.0730 -0.2718
14036W        W29930   6.517  15.691  13.815 -0.1079  0.1598 -0.0720
14037W        W29931  16.991   9.754  13.178 -0.0083  0.3693  0.1554
14038W        W29932   5.007  12.885  16.382  0.0469  0.0270 -0.1018
14039W        W29933   3.019  11.441  16.426 -0.1194  0.0937 -0.1807
14040W        W29934   0.455   7.234   5.439  0.0377  0.0813 -0.1674
14041W        W29935   3.432   9.445  15.986 -0.1424  0.1278 -0.2102
14042W        W29936   0.778  15.676   2.019  0.0654  0.1138 -0.2815
14043W        W29937   5.441   1.665   1.861 -0.0182 -0.1383  0.0980
14044W        W29938  11.727   1.719   4.093  0.0008 -0.2352 -0.0183
14045W        W29939  13.186   0.072   4.228  0.0944 -0.1586 -0.0962
14046W        W29940   8.388  14.903  12.107  0.0034 -0.0250  0.2458
14047W        W29941   0.441  16.262  16.150  0.1202  0.1798  0.2029
14048W        W29942   0.594  14.234   0.083 -0.0960 -0.1099 -0.1067
14049W        W29943   4.477   3.250   3.673 -0.2094  0.1789 -0.0325
14050W        W29944  11.443   1.218   0.429 -0.1780  0.2693 -0.0045
14051W        W29945   0.624  10.572  14.476  0.1520 -0.1281 -0.3025
14052W        W29946   2.497  10.936  13.644  0.1277  0.0010 -0.1418
14053W        W29947   0.999   9.622  16.142 -0.0000 -0.1123  0.0311
14054W        W29948   5.523   7.346  14.098 -0.4983  0.0109  0.1063
14055W        W29949  11.642   9.287  16.463  0.3700  0.1610  0.0232
14056W        W29950   1.893  12.059  16.128 -0.1309  0.2080  0.1924
14057W        W29951  10.942  15.353  13.179  0.2522  0.0983 -0.1000
14058W        W29952   6.543   0.783   3.055  0.0624  0.3254  0.0610
14059W        W29953   7.426  15.051   5.257 -0.1573 -0.2421 -0.1130
14060W        W29954   5.038  16.135   1.497  0.1084  0.4124  0.0429
14061W        W29955   7.294   0.820   4.346  0.2152 -0.0326  0.3298
14062W        W29956  13.567  14.936  11.942  0.0589 -0.0551 -0.0598
14063W        W29957   0.977   0.962   4.068  0.0737  0.2938 -0.2333
14064W        W29958  15.236   2.795   5.152 -0.1279 -0.0789  0.1028
14065W        W29959  17.803  16.881   4.523 -0.1772  0.2320  0.0902
14066W        W29960   7.021  12.475   3.795  0.0380  0.0858 -0.0000
14067W        W29961   2.032   6.811   1.164 -0.3397 -0.1405  0.2107
14068W        W29962  17.220   3.561   4.485  0.2343 -0.0049 -0.0683
14069W        W29963   2.861  10.018   5.674 -0.1632  0.1651 -0.1104
14070W        W29964   2.439   3.006  15.398  0.1384 -0.1933  0.0547
14071W        W29965   4.471   5.094  14.453 -0.1361  0.2146  0.0292
14072W        W29966  10.762   3.439   2.224 -0.0179  0.0492  0.2145
14073W        W29967  12.435   5.597  11.734 -0.1137  0.0881 -0.2283
14074W        W29968   9.608   2.009   4.792 -0.1353 -0.1672  0.2440
14075W        W29969   6.598   3.398  14.170 -0.1513 -0.0536 -0.1263
14076W        W29970   5.850   2.115  12.315 -0.0931  0.2232  0.1731
14077W        W29971   6.601   4.308  15.435 -0.1596 -0.0366 -0.0355
14078W        W29972   9.616  11.583  13.286 -0.0499  0.1085  0.0604
14079W        W29973   6.127  15.548  13.168 -0.1486  0.2751 -0.0255
14080W        W29974   6.179  11.907   2.475  0.3603  0.1195  0.0618
14081W        W29975  11.377  14.687   5.022  0.0124  0.1815  0.1205
14082W        W29976  13.347   5.275  16.600 -0.0319 -0.1624  0.0156
14083W        W29977   4.596  13.925  11.828  0.2676  0.0213  0.1062
14084W        W29978   5.199   8.632   1.484 -0.1049 -0.1663 -0.0668
14085W        W29979   4.378   0.396   0.993  0.1774  0.1284  0.0104
14086W        W29980  16.518  11.461   6.476  0.1064  0.3873 -0.2381
14087W        W29981   5.108  12.121  16.182 -0.1777 -0.2702 -0.0496
14088W        W29982  11.268   8.739  13.696  0.0545  0.1519 -0.1985
14089W        W29983   6.891   0.466  13.968 -0.0293  0.1437 -0.0727
14090W        W29984   6.734   3.124   2.286  0.0435 -0.0854 -0.1146
14091W        W29985  14.605  10.800   3.753 -0.1309  0.1647 -0.2862
14092W        W29986   4.070   7.763   1.233  0.1902 -0.0141  0.1002
14093W        W29987   9.773  12.141   4.024  0.2300  0.1286 -0.2091
14094W        W29988   3.749  16.754   3.197 -0.1234 -0.0607 -0.1236
14095W        W29989  16.212   5.052  11.580  0.2455 -0.0672 -0.0146
14096W        W29990   4.569  17.600  15.575 -0.1714  0.0767 -0.1746
14097W        W29991   8.573   0.852   2.400  0.1224  0.4148 -0.0559
14098W        W29992   2.596  12.802  15.870  0.3017  0.1715  0.2667
14099W        W29993   7.283   7.277   4.623  0.1322 -0.1164 -0.2537
14100W        W29994  13.906  12.350  16.247  0.0198 -0.0834 -0.3042
14101W        W29995   2.814  13.874  12.969  0.1782  0.0309  0.0494
14102W        W29996   3.945  10.601  12.491  0.2435  0.0432 -0.0325
14103W        W29997  16.072   4.962   2.299 -0.0628 -0.1875 -0.2283
14104W        W29998  11.137   7.735  13.696 -0.0324  0.1036 -0.1908
14105W        W29999  10.259  16.627   4.133 -0.0412  0.0354  0.1626
14106W        W30000  14.670  12.076   2.790 -0.3304  0.1752  0.0843
14107W        W30001  17.114  13.228  16.558  0.1632  0.0470 -0.0107
14108W        W30002  13.231  11.152   5.943 -0.1607 -0.1199 -0.2486
14109W        W30003   9.540   5.820  14.874 -0.0323  0.0609  0.1530
14110W        W30004  11.979  12.966   5.852  0.3326 -0.3119  0.1447
14111W        W30005  16.738  11.845  16.061  0.1398 -0.0623 -0.1059
14112W        W30006   4.779  12.497  12.220 -0.1310 -0.0653 -0.1360
14113W        W30007  16.786   7.099  12.942 -0.1090  0.0975  0.2943
14114W        W30008  11.246   5.621  14.051 -0.3352 -0.0216  0.1302
14115W        W30009  11.325  17.797   1.575 -0.0904  0.0266  0.0074
14116W        W30010  14.828   2.483   5.189  0.0367  0.1346 -0.2351
14117W        W30011   9.946   3.342  16.863  0.1060 -0.0590 -0.2521
14118W        W30012  12.108  15.923  14.614  0.0169 -0.1039 -0.0606
14119W        W30013  17.734   7.786   1.864  0.1182 -0.2925  0.2710
14120W        W30014   6.194  16.183   1.717  0.0038 -0.0322 -0.0800
14121W        W30015   3.566  13.099   2.357  0.3909  0.4862 -0.4562
14122W        W30016  17.122   4.788  11.441 -0.1281  0.0989  0.0546
14123W        W30017  13.725  13.638  15.951  0.2422  0.0456 -0.1509
14124W        W30018   8.009   3.109   1.744 -0.0309  0.2701 -0.0085
14125W        W30019   0.229   6.930  15.443  0.0093 -0.1683 -0.1669
14126W        W30020   2.996  16.642   0.045 -0.2409  0.1699 -0.0341
14127W        W30021   8.105   6.288  14.901  0.1235 -0.2453  0.0507
14128W        W30022  15.760   4.105   2.887  0.1110  0.0354 -0.3776
14129W        W30023   8.177   6.082  12.886  0.2314  0.0453  0.2113
14130W        W30024   2.600  14.637   0.170  0.1278 -0.1212  0.5152
14131W        W30025   5.100   6.043   3.528  0.1622 -0.0446  0.1353
14132W        W30026  13.991  16.044   3.296 -0.3143  0.2361  0.1638
14133W        W30027   6.603   6.466   5.902  0.1724  0.0954 -0.1740
14134W        W30028  10.143   9.897   4.080 -0.1030  0.2733 -0.1075
14135W        W30029   1.632   7.756  16.590  0.0376 -0.3006  0.0218
14136W        W30030   2.578   1.255  11.719  0.2859 -0.2163  0.1073
14137W        W30031   0.990   4.688   4.903  0.0965  0.0219 -0.0048
14138W        W30032   2.144   8.857  14.085  0.1593  0.2066  0.1084
14139W        W30033  17.722  10.953   0.246  0.1374 -0.0270 -0.1399
14140W        W30034   7.173   9.883  16.048 -0.1438  0.0630  0.0031
14141W        W30035  11.765  17.576   1.492 -0.1085 -0.3385 -0.2159
14142W        W30036  12.666   0.341  16.146 -0.1600 -0.2862 -0.0480
14143W        W30037  17.215   1.507   1.760 -0.0684  0.0656 -0.2173
14144W        W30038  13.669   1.330   4.736 -0.0106  0.0423  0.2901
14145W        W30039  10.459  11.892   1.650  0.0956 -0.0403 -0.0864
14146W        W30040  13.859   7.269   6.191  0.0323 -0.0398 -0.0199
14147W        W30041   8.111  16.721  15.671  0.1110  0.0818 -0.1197
14148W        W30042   9.142   1.105   0.123  0.2696 -0.0344 -0.3052
14149W        W30043  14.690   1.893   3.612  0.1164  0.0557 -0.2261
14150W        W30044  10.804   7.756  15.588  0.1465  0.1368  0.2568
14151W        W30045  17.460   3.587   4.056 -0.1238 -0.2064 -0.1260
14152W        W30046  17.385  14.326   2.077 -0.1695  0.0102 -0.0163
14153W        W30047  11.898   8.383  13.068 -0.2847  0.2378 -0.0738
14154W        W30048  13.531   9.740  12.213 -0.2688 -0.0897 -0.2015
14155W        W30049  12.305  15.550   3.507 -0.2345  0.2099 -0.2245
14156W        W30050   7.608   8.208   1.306 -0.0353  0.2551 -0.0009
14157W        W30051  14.929   4.758   3.061 -0.0597  0.1014 -0.0573
14158W        W30052  12.418   5.368  13.302  0.1795  0.1019  0.3346
14159W        W30053   2.264   6.522  13.496  0.2186  0.1946  0.2681
14160W        W30054   9.648   1.572  14.511 -0.0625  0.1276  0.0605
14161W        W30055  16.031  14.501   3.206  0.0161  0.2514 -0.0891
14162W        W30056   4.988  17.731   0.440  0.1002  0.0100  0.1003
14163W        W30057  16.336   0.448  14.742  0.0822 -0.1617 -0.2652
14164W        W30058  12.228   1.288   3.058  0.1028  0.1914 -0.1367
14165W        W30059   8.818  13.732  13.815  0.0870 -0.1874  0.2100
14166W        W30060   8.847   2.539  12.095  0.0702 -0.1138  0.0890
14167W        W30061  14.451   5.106   4.473  0.0312  0.1333  0.0881
14168W        W30062  17.149   6.713   1.239  0.0122  0.1891 -0.1397
14169W        W30063   5.508  16.639  16.120  0.2867  0.0627 -0.2273
14170W        W30064   5.293   3.961   2.948  0.3142 -0.2051 -0.1148
14171W        W30065   3.726  17.808  15.233 -0.0939  0.1617 -0.0880
14172W        W30066   7.395   3.736   0.602  0.0296 -0.1015  0.1374
14173W        W30067   6.013  13.115  15.019  0.0118 -0.0073 -0.2373
14174W        W30068  15.855  13.364  15.906  0.1821  0.0298 -0.1000
14175W        W30069  15.282   0.396  14.944  0.3757 -0.0607 -0.2489
14176W        W30070   7.145  17.434  16.454 -0.1788  0.1628 -0.0800
14177W        W30071  13.911  15.684  15.175  0.1070  0.2805  0.1106
14178W        W30072  13.086   9.243   3.966  0.1277  0.2532 -0.0542
14179W        W30073  14.981  15.886  12.954  0.0481  0.3030  0.3989
14180W        W30074   9.490  14.788   0.732  0.0523 -0.2960 -0.0388
14181W        W30075  11.009  17.355  16.230  0.0289  0.0567  0.0388
14182W        W30076   8.900  17.505  15.190  0.2925 -0.0230  0.1813
14183W        W30077   8.462  13.801   4.140  0.1492  0.0851  0.1810
14184W        W30078  12.919   4.549  12.290  0.1780 -0.1036 -0.1062
14185W        W30079  11.849   2.055   5.473  0.1691 -0.0633 -0.0283
14186W        W30080   8.225   1.006   2.720 -0.0036  0.0277 -0.0200
14187W        W30081  10.481  15.488  14.918 -0.1555  0.0490  0.4130
14188W        W30082  14.811   5.358  14.368  0.0900 -0.1573  0.0665
14189W        W30083  16.355  15.205  14.962 -0.1602 -0.2588 -0.0021
14190W        W30084  15.595   4.553   0.535  0.2014  0.2195  0.0968
14191W        W30085  13.297   5.445  12.271 -0.0321 -0.1190  0.0419
14192W        W30086  15.655   6.920   4.671  0.0376 -0.2174  0.0349
14193W        W30087  17.087  17.099   5.840 -0.4904  0.1315  0.4122
14194W        W30088   4.975   9.631  15.420 -0.0042  0.1598  0.1343
14195W        W30089  15.215  15.718   3.476 -0.4554  0.3388 -0.0088
14196W        W30090  16.874   7.173  14.899  0.0181 -0.1071 -0.0300
14197W        W30091   0.227   6.446  13.626  0.1360 -0.0163  0.1026
14198W        W30092   6.518   2.885   1.505  0.0006  0.1310 -0.0616
14199W        W30093  13.157  12.110  13.110  0.1686 -0.0402  0.1057
14200W        W30094   2.251   3.762   3.578  0.0492 -0.0385  0.0313
14201W        W30095   1.420   5.127   1.788  0.2255  0.1600 -0.3313
14202W        W30096   7.184   5.806  13.573 -0.1595  0.0593 -0.1914
14203W        W30097   0.419  12.980  16.599 -0.3088  0.1075  0.1802
14204W        W30098  11.315  11.677   2.054 -0.1546  0.0204  0.0115
14205W        W30099  16.953  11.166   3.393 -0.1373 -0.0329  0.0703
14206W        W30100  14.845  17.021  12.436  0.0567 -0.0299  0.1378
14207W        W30101   0.685   7.849  16.395  0.0379 -0.0853  0.0502
14208W        W30102  10.782  16.589   3.830 -0.0409  0.1376  0.1932
14209W        W30103  13.653   4.376  12.985 -0.0708 -0.1542  0.0149
14210W        W30104  15.468   4.214   4.522  0.0829  0.1444  0.1048
14211W        W30105   4.896  17.426   1.379  0.0119  0.5103  0.0272
14212W        W30106  14.801   8.696   1.288 -0.1305 -0.2850  0.0946
14213W        W30107  12.189  14.815  16.524 -0.0789 -0.3036  0.0047
14214W        W30108   1.860  16.785  12.991  0.0725  0.2284 -0.1131
14215W        W30109   6.699   5.268  16.553 -0.1438 -0.0746  0.3202
14216W        W30110  10.107   8.956  12.050  0.1367 -0.2038  0.1943
14217W        W30111   5.019   6.276  15.097 -0.1211 -0.1682  0.1573
14218W        W30112  15.556  16.800  13.791 -0.0937  0.0625  0.0427
14219W        W30113   3.963   0.885   0.915 -0.1923 -0.0283  0.2659
14220W        W30114  14.890  13.260   0.176 -0.1017  0.0811 -0.2159
14221W        W30115   4.926   6.525   0.801 -0.1543  0.1368 -0.0160
14222W        W30116  13.724  11.918  14.370  0.2063  0.0089  0.1566
14223W        W30117   7.552  15.671   0.490 -0.0672 -0.0187  0.1915
14224W        W30118   2.957   4.079   3.154 -0.0450 -0.1773  0.1436
14225W        W30119  14.550  12.014   0.295  0.0652 -0.2011 -0.2091
14226W        W30120   1.882   4.202   3.569 -0.3471 -0.0497 -0.1414
14227W        W30121   2.719   8.121   4.395 -0.1836  0.0815  0.1794
14228W        W30122  15.297   2.089   2.454 -0.1878  0.1299  0.1805
14229W        W30123  14.278   1.931  12.627 -0.0948  0.0943  0.1174
14230W        W30124   9.386  15.969   5.584  0.0068  0.0701  0.0406
14231W        W30125   5.526  14.940  15.121 -0.1117 -0.0579 -0.2155
14232W        W30126  10.508  16.130   5.049  0.2364  0.0956 -0.2489
14233W        W30127   3.545  15.139  15.903 -0.1511  0.1011 -0.3506
14234W        W30128   7.999  16.374  16.074  0.1451  0.0320  0.3736
14235W        W30129  17.549  12.821   6.307  0.2393  0.0431  0.3348
14236W        W30130  12.615   0.716  12.859  0.1249  0.0334  0.1155
14237W        W30131  17.066  16.938  12.790  0.1143 -0.1657 -0.2206
14238W        W30132  11.373   4.575   2.602  0.1921  0.3179 -0.2871
14239W        W30133   0.418  10.006   3.815 -0.0427 -0.2141  0.0500
14240W        W30134   4.075   6.789  12.649  0.1848  0.2818  0.0772
14241W        W30135  11.452  17.543  15.448 -0.0109  0.0276  0.1146
14242W        W30136  13.585  17.223  15.661  0.3199  0.4694 -0.0382
14243W        W30137  10.922   8.101   4.843 -0.0089 -0.0022  0.2370
14244W        W30138   0.568  12.517  15.198 -0.1072 -0.0616 -0.0069
14245W        W30139  14.765   2.993   4.780 -0.0725 -0.1220  0.0286
14246W        W30140   3.415  10.570   2.380  0.2868  0.2416  0.1133
14247W        W30141  17.338  17.280  15.910 -0.0236 -0.2868 -0.0830
14248W        W30142   8.942   1.118  14.196  0.0698  0.0792 -0.0434
14249W        W30143  10.727  17.413   4.740  0.2976 -0.2594 -0.0649
14250W        W30144   1.727   3.499   5.571 -0.1171  0.0433  0.1995
14251W        W30145   9.028   8.702   6.328 -0.3828 -0.0360 -0.3011
14252W        W30146   0.578   2.946   2.470  0.0664  0.2716 -0.1408
14253W        W30147   1.181   3.184  13.323  0.2234  0.0515 -0.0055
14254W        W30148  11.962  16.180   2.888 -0.1630 -0.2629 -0.0065
14255W        W30149   4.879   4.600   3.992 -0.4555 -0.0551 -0.1754
14256W        W30150   0.527  12.627  14.274 -0.3345  0.1884 -0.5053
14257W        W30151  10.139   6.043   5.437  0.5148  0.2160  0.0665
14258W        W30152  13.837  17.134  16.115  0.1422  0.0886  0.0359
14259W        W30153   4.907   7.474   3.353  0.2253 -0.0439  0.2089
14260W        W30154  14.587  14.924  15.089 -0.1313  0.2658  0.0671
14261W        W30155  16.554   0.420   1.476  0.0354  0.0499  0.0485
14262W        W30156   8.723  11.146   4.596 -0.1929 -0.1463  0.0728
14263W        W30157  12.119   8.193  15.462 -0.2563  0.2070 -0.1583
14264W        W30158  13.879  16.590   1.595  0.0569 -0.1467 -0.0523
14265W        W30159   3.287  14.196   3.123 -0.3405  0.0186 -0.0649
14266W        W30160   4.419   3.401  14.242 -0.3309  0.1308  0.0753
14267W        W30161  10.791  12.634   4.476 -0.1507 -0.0672 -0.1884
14268W        W30162  17.676   8.862  11.697  0.0089 -0.1575 -0.1382
14269W        W30163  16.331  16.869   0.443 -0.0411 -0.1453  0.1367
14270W        W30164   8.897   2.012  12.974  0.0283 -0.0789 -0.0503
14271W        W30165  11.311   2.593   4.539  0.0654  0.1885  0.0842
14272W        W30166   3.086   0.771  13.191  0.0602  0.0976 -0.2839
14273W        W30167   4.776   8.174  12.837  0.0448 -0.3061 -0.0357
14274W        W30168   0.899  14.864   2.256  0.2853 -0.3046  0.0950
14275W        W30169   6.320  12.614  12.977  0.0932  0.0672 -0.1247
14276W        W30170   1.558   9.307   4.296  0.2066  0.1703  0.1791
14277W        W30171   8.432   5.080  16.517  0.0339 -0.0120 -0.2182
14278W        W30172  11.967  15.375   3.861  0.1720 -0.1125 -0.1256
14279W        W30173  16.471  15.065   2.128  0.1706 -0.1928  0.3285
14280W        W30174  17.587   9.320  11.541 -0.1068 -0.0066 -0.0695
14281W        W30175   5.115   1.835  12.304 -0.0453  0.1960 -0.1609
14282W        W30176   3.040   4.062   4.100  0.2506  0.0618  0.0841
14283W        W30177   1.980  16.203   4.449  0.0750  0.0834  0.1373
14284W        W30178   8.030  17.458   4.648 -0.0635  0.0411 -0.2026
14285W        W30179   1.773   1.622   3.038  0.0810 -0.1487  0.1456
14286W        W30180  15.813  17.499   4.204 -0.0057  0.3244 -0.2463
14287W        W30181  12.568  16.719   2.421  0.1419  0.2371 -0.0834
14288W        W30182  16.457   4.918   0.862  0.0482  0.0865 -0.0302
14289W        W30183   8.754  12.046  15.305  0.0993  0.1609 -0.0536
14290W        W30184  11.599   6.403   3.412 -0.1976  0.2060 -0.1857
14291W        W30185  10.038   9.063   4.527  0.0126  0.0131  0.1951
14292W        W30186   2.776  15.555   4.600 -0.2045 -0.1036  0.2968
14293W        W30187   6.658   9.904  13.045 -0.2224  0.1261  0.3847
14294W        W30188  12.373   1.141  12.594  0.1052 -0.0356  0.0604
14295W        W30189   1.957  10.812  15.259  0.0847 -0.1133 -0.1627
14296W        W30190   3.209   4.611   0.167  0.2952 -0.1572  0.0742
14297W        W30191  13.831  16.076   4.850 -0.0917  0.1398 -0.3322
14298W        W30192  17.440  16.275  16.027  0.0583 -0.0956  0.0950
14299W        W30193   6.011   0.776   0.045  0.0989 -0.0703 -0.0697
14300W        W30194   6.620   0.606   3.573  0.0087  0.0178  0.2519
14301W        W30195   2.712   7.525  11.345 -0.1134 -0.0592  0.1527
14302W        W30196  11.413  17.338  12.642  0.0226  0.0824 -0.0662
14303W        W30197  11.300   3.149   5.239 -0.1490 -0.0093 -0.3194
14304W        W30198  14.585   8.516  12.816 -0.3059  0.0572 -0.0322
14305W        W30199  13.564   9.547  13.611  0.0647 -0.0567  0.2546
14306W        W30200  16.185   7.715  11.774  0.3000  0.1390  0.0999
14307W        W30201   3.890  14.518   1.978  0.0396  0.2414 -0.1181
14308W        W30202  11.884   6.807  15.885 -0.3141  0.2055  0.0482
14309W        W30203   8.854  10.028   1.102 -0.0047 -0.2186 -0.1316
14310W        W30204   3.048   3.146   5.834 -0.5768  0.0702 -0.0075
14311W        W30205  16.545  14.455  13.963  0.0055 -0.3753 -0.2080
14312W        W30206  13.662  17.437  16.890 -0.1784  0.0404  0.1624
14313W        W30207   2.146   9.842   3.394 -0.4126  0.1168 -0.2034
14314W        W30208  15.347   5.180  11.196  0.2398  0.1565 -0.1394
14315W        W30209  15.011  11.779   2.551  0.0529 -0.0151 -0.1086
14316W        W30210  16.652   2.323   0.882 -0.1641  0.2645  0.2172
14317W        W30211   5.199  10.290   3.589 -0.2008 -0.0598 -0.0189
14318W        W30212   1.298  12.034  12.251  0.0241 -0.2150  0.2181
14319W        W30213   3.434  14.640  14.023  0.2264  0.0888 -0.1389
14320W        W30214  13.964  11.389  15.556 -0.1783  0.0962  0.2884
14321W        W30215   2.211   3.298   4.705 -0.1947  0.0930  0.1794
14322W        W30216  11.205   6.535  15.950 -0.0937 -0.3523  0.1091
14323W        W30217  14.085   8.043   0.320 -0.1957  0.0324 -0.0370
14324W        W30218  13.957  12.295   5.567  0.1007  0.1246 -0.1941
14325W        W30219  14.886   8.170  12.609  0.1211 -0.0570  0.0925
14326W        W30220   6.230  15.568   5.563  0.0720 -0.2126  0.0908
14327W        W30221   8.522   3.406   3.695 -0.1250 -0.1588  0.2782
14328W        W30222   8.929   5.057  16.845  0.0766 -0.1474  0.1455
14329W        W30223  15.135   3.901  14.446  0.2248 -0.0322 -0.0342
14330W        W30224   5.973   0.302  11.215  0.1278  0.0451  0.1867
14331W        W30225   0.940   1.003   0.949  0.3273 -0.2932  0.1893
14332W        W30226  15.721  12.668  12.949 -0.2050 -0.0518 -0.1867
14333W        W30227  12.478  16.217  14.913  0.1860  0.0191  0.2916
14334W        W30228   3.390   9.301  12.701 -0.0680  0.2695  0.0644
14335W        W30229  12.748   9.024  13.255  0.1107 -0.2708  0.6252
14336W        W30230  12.535  12.707  14.394  0.0250  0.0648 -0.0113
14337W        W30231  15.177   3.712   1.185  0.3017  0.0496 -0.0066
14338W        W30232  13.600  11.619   2.466 -0.2312 -0.2891 -0.1622
14339W        W30233   8.827  10.885   4.055  0.2090 -0.1726 -0.1711
14340W        W30234   2.363   8.236  16.283 -0.1751  0.0045 -0.0335
14341W        W30235   9.587   9.505  14.151 -0.0977  0.1796  0.2245
14342W        W30236  14.348   8.027   3.349  0.2453  0.1135  0.1589
14343W        W30237   1.372   3.222   4.787 -0.1509  0.1645  0.0178
14344W        W30238  13.301  14.342   6.201 -0.1404 -0.1585 -0.2424
14345W        W30239   9.794   8.995   2.927  0.0422  0.1168  0.0440
14346W        W30240  11.433   4.460   0.030  0.0634 -0.0729 -0.1216
14347W        W30241   0.002  13.976  15.352 -0.1039 -0.1006 -0.1963
14348W        W30242   0.279   5.346   3.162  0.1964  0.0857  0.2962
14349W        W30243  14.907   5.203  16.122  0.1214 -0.1382 -0.0835
14350W        W30244  17.151   4.040  11.473 -0.0074  0.2594 -0.0990
14351W        W30245  15.091   4.549   4.756 -0.0593  0.2674  0.2618
14352W        W30246  11.502   7.058  12.679  0.2921 -0.2826 -0.0733
14353W        W30247   5.382   4.286   1.252 -0.0011  0.1542 -0.0874
14354W        W30248   1.304  14.854   1.740  0.2472  0.1014  0.1535
14355W        W30249   2.380   8.835  14.496  0.1647  0.2496  0.1930
14356W        W30250   2.233   5.378   4.753  0.1634  0.0518  0.0236
14357W        W30251   7.965   8.005   4.308  0.1999  0.4778  0.0218
14358W        W30252   7.567   8.461  12.032 -0.2047 -0.1958 -0.1279
14359W        W30253   2.105   6.956   4.249  0.0927  0.0689 -0.0923
14360W        W30254   6.361   1.602  15.425 -0.1627  0.1440 -0.1858
14361W        W30255  12.307  14.726  14.190 -0.0212  0.3648 -0.2659
14362W        W30256   4.813  17.469  13.515 -0.0487  0.0039 -0.3195
14363W        W30257  17.092   0.804   2.735 -0.2296  0.1584 -0.0065
14364W        W30258  15.257   9.370   4.342  0.1258 -0.0054 -0.1683
14365W        W30259   4.111  10.666  11.971  0.2724  0.0784 -0.0003
14366W        W30260   2.575  10.912   3.102  0.0095 -0.1474 -0.0943
14367W        W30261   9.482   2.941   6.036  0.0593  0.1094 -0.1101
14368W        W30262  16.382   0.689  15.657 -0.0575  0.0338  0.1105
14369W        W30263   0.692   0.810   5.828  0.0655 -0.0232 -0.0597
14370W        W30264   4.684  12.857   5.636 -0.1429 -0.0853  0.1003
14371W        W30265   5.832  15.541   3.760  0.0141 -0.3168  0.1101
14372W        W30266   6.353   8.385   3.221 -0.0100  0.0057  0.0306
14373W        W30267   2.108   4.201   2.848 -0.1198  0.0124  0.2314
14374W        W30268  13.905  12.423   2.756  0.1277 -0.0265 -0.0940
14375W        W30269   1.814   8.165  15.776  0.1488  0.0592  0.1771
14376W        W30270   0.537  15.511   2.859  0.0664  0.1531  0.0346
14377W        W30271  16.045  14.144  13.030 -0.0581 -0.2839 -0.1237
14378W        W30272  16.944  16.117  15.896  0.0538 -0.2230  0.0125
14379W        W30273  10.837   6.423  12.652  0.0925  0.1730 -0.2612
14380W        W30274  14.401   1.351   1.072  0.1301  0.0033  0.1332
14381W        W30275  15.383   9.274   2.855 -0.3837  0.2150 -0.0327
14382W        W30276  15.776   8.758  16.670  0.0769  0.0322  0.1859
14383W        W30277  13.123  11.599   6.534  0.0160  0.0363  0.0101
14384W        W30278   4.638  12.904  12.886 -0.1533  0.0243  0.0551
14385W        W30279   2.169   1.607  14.027  0.2063  0.0881  0.1083
14386W        W30280   1.340   7.406   3.730  0.1210  0.1255  0.1214
14387W        W30281   3.634   4.621   3.738  0.0181 -0.3074  0.1266
14388W        W30282  16.644   8.978   1.149 -0.1120 -0.1164 -0.3365
14389W        W30283  10.543   2.055   2.489  0.1500 -0.0163 -0.1964
14390W        W30284  16.834  16.288  13.378 -0.0803 -0.0892  0.1708
14391W        W30285  10.802  15.197   1.195 -0.4291 -0.2288 -0.0810
14392W        W30286  16.647  13.195  13.472  0.2070 -0.1459 -0.3020
14393W        W30287   2.511   4.398   0.132 -0.2159  0.0683  0.3215
14394W        W30288  15.966   6.661  12.573 -0.1196 -0.1316  0.1063
14395W        W30289   7.128  14.689  15.952 -0.2316 -0.2138  0.0757
14396W        W30290  12.639  12.129  12.932 -0.0653  0.1123 -0.2417
14397W        W30291  11.877   3.488   3.167  0.3495 -0.2755 -0.0812
14398W        W30292  11.850   7.868  15.240  0.1289  0.0371 -0.0440
14399W        W30293   1.793   7.457   0.165  0.0472 -0.0603 -0.2121
14400W        W30294   0.127   6.940   1.777 -0.0860 -0.1002 -0.2755
14401W        W30295  15.663   0.782  11.863 -0.0354  0.3303 -0.0373
14402W        W30296   1.006   9.247   0.696 -0.0738 -0.2177  0.1054
14403W        W30297   3.678   1.943   2.877 -0.1407  0.0875  0.1370
14404W        W30298  10.439   5.288   2.118 -0.1490  0.3314  0.2427
14405W        W30299   4.512  14.737   5.708 -0.0457 -0.1600 -0.0807
14406W        W30300  17.012  13.957  16.095 -0.1104 -0.0655 -0.2256
14407W        W30301   6.449   7.531  13.688 -0.2055 -0.4207  0.0312
14408W        W30302   4.329  13.941   6.122 -0.1467 -0.0085 -0.0107
14409W        W30303   4.746   9.972  13.483 -0.1796  0.4468 -0.1058
14410W        W30304   7.548  16.251   3.048 -0.1294  0.1542  0.1953
14411W        W30305  11.386  12.594   6.007  0.0104  0.1151  0.0759
14412W        W30306  13.052  16.852  14.975  0.2252  0.3062 -0.1113
14413W        W30307   2.696   4.455   4.164 -0.1061 -0.2616  0.0570
14414W        W30308   1.489  12.224   1.034 -0.1458 -0.0516  0.0920
14415W        W30309  17.604   4.601   3.008 -0.0316  0.1844  0.0480
14416W        W30310  12.350   3.307   1.276 -0.1142  0.4394 -0.2049
14417W        W30311   9.217   5.147   1.213 -0.4627 -0.1115 -0.0598
14418W        W30312  15.097  11.310   0.033 -0.1761 -0.2797 -0.0857
14419W        W30313   6.330   8.648  13.307  0.0375  0.0506  0.0199
14420W        W30314   3.203   3.960   6.429 -0.0718  0.0213 -0.2319
14421W        W30315   6.677  10.840  12.620  0.2122  0.0103 -0.0330
14422W        W30316   9.206  12.085   3.157 -0.0015  0.2806 -0.0113
14423W        W30317   3.631  17.572  15.694 -0.2467 -0.1465  0.0857
14424W        W30318  10.589  17.071   5.108  0.0432 -0.1449 -0.1456
14425W        W30319   2.752   3.564   0.980 -0.1464  0.2175 -0.0506
14426W        W30320  16.690   5.968   3.436 -0.0154  0.0577  0.2175
14427W        W30321  14.233  16.964   4.005  0.1706  0.0909  0.2667
14428W        W30322   0.735   8.106  12.606 -0.0448  0.3271  0.1050
14429W        W30323   6.436  12.343  15.455  0.1234 -0.1335  0.1866
14430W        W30324  16.746   1.524  16.713 -0.1596 -0.1049  0.0872
14431W        W30325   4.849  17.024  16.068 -0.2719 -0.1580  0.0109
14432W        W30326   1.997  14.562   4.766 -0.1221  0.0021  0.2437
14433W        W30327  12.722   2.227   4.520 -0.0264 -0.5373  0.0456
14434W        W30328   9.518   8.685   2.636 -0.1782  0.1147 -0.1617
14435W        W30329   6.276   4.987  14.781 -0.2064 -0.4740 -0.0155
14436W        W30330  15.107   2.053  14.559  0.1470  0.0040 -0.3070
14437W        W30331   0.403  16.714   5.355 -0.0282  0.0318 -0.2735
14438W        W30332  11.227   0.242  16.370 -0.1972  0.2189  0.0368
14439W        W30333  12.365  17.292   2.653  0.1590  0.1438 -0.3239
14440W        W30334   8.262  12.354  16.066 -0.1597  0.0273 -0.1707
14441W        W30335   6.630  17.502   0.624 -0.1003 -0.2264  0.0372
14442W        W30336   0.944  13.312   6.687  0.1612 -0.2861 -0.0486
14443W        W30337   7.075   8.252  16.871 -0.1011  0.0785  0.0639
14444W        W30338  11.261   4.459  16.070  0.2767  0.2813 -0.0775
14445W        W30339  15.514   9.998   3.572 -0.4541  0.2909  0.0055
14446W        W30340  12.916   2.546  10.703  0.1443  0.3533  0.2534
14447W        W30341   2.556   5.515   4.307  0.0620 -0.0341 -0.0497
14448W        W30342   1.102  11.906   3.283  0.1419  0.0419 -0.0756
14449W        W30343  10.538   8.420   0.557 -0.2089 -0.0813  0.1204
14450W        W30344   5.369  16.443   5.235  0.0975  0.0609 -0.3573
14451W        W30345  11.623  15.254  15.548 -0.1181  0.0429 -0.3773
14452W        W30346   7.041  11.113  12.354 -0.1225  0.0016  0.1189
14453W        W30347   2.829  16.834   0.680  0.0252  0.0913 -0.2541
14454W        W30348  10.172  16.487   3.249  0.0538  0.3341 -0.1028
14455W        W30349   2.140  16.001  15.342  0.1373 -0.0534  0.0631
14456W        W30350   0.338  11.645  16.093  0.3935 -0.1918 -0.0035
14457W        W30351   4.568   6.769  12.543 -0.0988  0.0925  0.1398
14458W        W30352  13.393  13.573  12.060  0.1183 -0.0799 -0.1177
14459W        W30353   8.445   8.225  12.884 -0.2236 -0.0210 -0.0928
14460W        W30354   8.832  13.379  16.346 -0.2357 -0.2934  0.1834
14461W        W30355   5.905   1.547  16.324  0.2829 -0.0905 -0.0012
14462W        W30356  15.576   0.686  16.912 -0.1537  0.0248 -0.3286
14463W        W30357  17.330   8.110   3.336 -0.1221  0.1674 -0.3563
14464W        W30358   6.708  17.007   5.443  0.0674 -0.0499  0.0363
14465W        W30359   0.311  17.371   1.254 -0.1688  0.4231 -0.0388
14466W        W30360   8.872   4.052   0.471  0.1169 -0.0207 -0.2181
14467W        W30361   3.320  11.561  16.855  0.0982 -0.1252  0.1490
14468W        W30362  12.046   3.692   0.585 -0.3534 -0.3526 -0.0570
14469W        W30363   8.171   1.056  12.081  0.2199 -0.1874 -0.0218
14470W        W30364  16.384   3.528   4.267  0.2052  0.0531  0.2108
14471W        W30365   5.212   4.558  15.694  0.0450 -0.0730 -0.1760
14472W        W30366  11.064  12.192   6.252 -0.0126 -0.2807  0.1800
14473W        W30367   6.590  16.079  14.131  0.0074 -0.0634  0.1249
14474W        W30368  13.789   4.760   2.853 -0.0627  0.0376 -0.1938
14475W        W30369   6.228  15.490  11.780 -0.0991 -0.2802 -0.1826
14476W        W30370  10.045  14.965  14.456 -0.0601  0.0379  0.3011
14477W        W30371  10.906  13.513   3.461  0.1525 -0.1503 -0.0021
14478W        W30372  17.643   2.030  15.731  0.3809  0.5037  0.1490
14479W        W30373  16.170   3.577   5.122 -0.0750 -0.0039  0.1779
14480W        W30374   6.300  10.825   5.851  0.1445  0.2073  0.2883
14481W        W30375   0.618   6.862  12.254  0.0799  0.2560 -0.0381
14482W        W30376  13.205  16.393  13.419  0.2262  0.0544 -0.0649
14483W        W30377   8.008   9.064  14.232 -0.3805  0.2018  0.2887
14484W        W30378  12.634  13.831  12.052  0.0864  0.1643  0.0590
14485W        W30379  17.731  15.518  10.533  0.4865 -0.0271  0.0546
14486W        W30380   2.849  16.520  13.032 -0.1481 -0.2061  0.0578
14487W        W30381   5.223  10.394  12.684  0.2278 -0.0688  0.1776
14488W        W30382  10.244   1.867   1.550  0.4219 -0.1473  0.4876
14489W        W30383  11.360   6.771   5.425 -0.1276  0.0418 -0.1864
14490W        W30384   6.921  17.451   4.990  0.2754  0.1101 -0.0601
14491W        W30385  16.097   1.340   2.600  0.3112  0.0690  0.1493
14492W        W30386  14.489  12.879   0.165  0.1232  0.3614  0.2271
14493W        W30387   6.737   6.133   2.126  0.1637  0.3665  0.0174
14494W        W30388  13.117   0.551   4.146  0.0382 -0.2079 -0.0213
14495W        W30389   5.432  16.081   1.156  0.2484  0.0415 -0.0762
14496W        W30390   1.909   8.148   0.969 -0.1472  0.0990  0.3526
14497W        W30391   7.330  17.843   3.490  0.0115 -0.0276  0.0151
14498W        W30392  10.106   7.586   1.705 -0.4989 -0.3476 -0.2826
14499W        W30393   2.309  12.853  15.374 -0.1268  0.2028  0.1290
14500W        W30394  14.690   0.589  12.894  0.0342 -0.0991 -0.3440
14501W        W30395   3.454   9.591   3.731 -0.4805 -0.0718 -0.0517
14502W        W30396   3.567   7.233   2.440  0.1553  0.1029 -0.1954
14503W        W30397  15.092   2.633  11.706 -0.0110 -0.0390  0.0331
14504W        W30398   4.145  11.943  16.554  0.1322 -0.1195 -0.0273
14505W        W30399  16.548   8.997   3.538 -0.2105 -0.2422  0.3457
14506W        W30400   9.527  13.227   1.105  0.2564 -0.0297 -0.2815
14507W        W30401   2.715   9.918   0.126 -0.0550  0.1922 -0.1158
14508W        W30402  15.412  15.246   2.871 -0.1506 -0.0299 -0.1652
14509W        W30403   6.506   1.586  11.841 -0.0413 -0.1015 -0.1308
14510W        W30404   8.029   6.642  15.272  0.4346  0.0163  0.0933
14511W        W30405   9.361   8.878   1.609  0.1104  0.0019 -0.1904
14512W        W30406  15.849   4.747   4.460 -0.1417  0.0867  0.1062
14513W        W30407   5.451   6.752  16.416  0.2360 -0.0058  0.0993
14514W        W30408   9.368  16.683   0.237  0.1316 -0.2969  0.0360
14515W        W30409  14.778   9.460   0.966  0.1517  0.0551  0.0427
14516W        W30410   6.334  11.287   0.938  0.0559  0.2092 -0.1602
14517W        W30411  12.032   6.199   0.325  0.0412  0.0227 -0.2493
14518W        W30412  15.132  15.399   0.435  0.0673  0.1627 -0.1403
14519W        W30413  14.786   2.383  14.799 -0.0788  0.2790  0.0355
14520W        W30414  13.922  10.659   3.186 -0.1852  0.1600  0.1843
14521W        W30415   2.394   7.447   2.321 -0.4146  0.1517 -0.0216
14522W        W30416   5.156   8.293   3.014  0.0883 -0.0707  0.0901
14523W        W30417   7.790  13.945  15.902 -0.1217  0.0285  0.0462
14524W        W30418  11.075  12.499   0.470  0.1418 -0.2358  0.0120
14525W        W30419   4.542  12.386  14.328 -0.1592  0.2179 -0.0049
14526W        W30420  10.970   5.641  12.346  0.1216 -0.1543 -0.2312
14527W        W30421  15.566   5.672  16.385  0.3359  0.1644  0.1949
14528W        W30422  14.156   7.319  15.460  0.0706 -0.0802 -0.0300
14529W        W30423   3.218   2.197   5.266  0.1856 -0.1262 -0.2737
14530W        W30424  13.480  17.451   3.526  0.1537  0.0163  0.0663
14531W        W30425   4.344  14.933   4.837  0.1381  0.2233 -0.5018
14532W        W30426  12.523   9.818  16.085 -0.2570  0.2460  0.0615
14533W        W30427   8.295  14.711  16.090 -0.0132 -0.0136  0.1502
14534W        W30428  13.465  15.353  12.358 -0.2392  0.2457  0.1434
14535W        W30429  11.034  13.787   3.876  0.2517  0.1214 -0.1500
14536W        W30430   7.385   1.079  11.839  0.1248 -0.0766 -0.1326
14537W        W30431   3.809   4.932  16.250 -0.1467 -0.3924 -0.1111
14538W        W30432  14.340   1.813  13.716  0.0126 -0.0800  0.1070
14539W        W30433   8.356  13.798   3.046  0.1326 -0.1545  0.1848
14540W        W30434  16.222   9.388  12.442  0.2386 -0.0355 -0.1425
14541W        W30435  15.640  13.418   3.019 -0.1256 -0.3950 -0.0266
14542W        W30436   7.689  12.885   1.719  0.0280 -0.1650  0.2109
14543W        W30437   4.763  16.368  14.293 -0.1095  0.4771  0.1296
14544W        W30438   6.846   3.067  15.625 -0.2013 -0.1733 -0.0187
14545W        W30439   5.272   9.347  16.295 -0.1594 -0.2903 -0.1747
14546W        W30440   6.977   2.845  16.449 -0.0492  0.0834  0.0616
14547W        W30441  15.155   7.894   5.162 -0.2002 -0.0391  0.1086
14548W        W30442  14.639   5.396  12.759 -0.1633 -0.0511  0.1037
14549W        W30443   8.227  16.503  12.711 -0.1606  0.1870 -0.0211
14550W        W30444  14.641   3.294   4.037  0.1127  0.1033  0.0394
14551W        W30445   3.851   7.366   4.298  0.0335 -0.0353 -0.1181
14552W        W30446   2.784   4.132   1.771  0.0379  0.1281  0.1075
14553W        W30447   8.558   9.510   6.609  0.0374  0.0879  0.3619
14554W        W30448   7.588   6.465   5.913  0.4515  0.1443  0.0426
14555W        W30449   5.356  14.148   0.516 -0.0917  0.2704 -0.4334
14556W        W30450  14.003   3.832   0.625  0.1430 -0.3741 -0.2457
14557W        W30451  11.475  14.429   3.297 -0.0521 -0.0998  0.3180
14558W        W30452   5.453  12.842   4.477  0.0878 -0.0328 -0.1400
14559W        W30453   9.949   4.103  15.322  0.2434  0.0203  0.0159
14560W        W30454  15.296  15.249  14.560 -0.1480 -0.1500  0.4301
14561W        W30455  12.177   8.567  12.675 -0.4759 -0.1235  0.1291
14562W        W30456   8.136   9.905  12.013 -0.0726 -0.0299  0.1492
14563W        W30457   8.345   9.188   1.437 -0.0648 -0.0897 -0.1810
14564W        W30458   5.289   2.167  15.174  0.1410  0.0461  0.0609
14565W        W30459  13.415   9.986   2.662  0.1050 -0.1184 -0.1333
14566W        W30460  15.628   8.675   5.423  0.1494 -0.3073 -0.4026
14567W        W30461  13.086   1.146   0.899  0.0017  0.1960 -0.4977
14568W        W30462   7.066   4.622  13.120  0.1541  0.1493  0.0612
14569W        W30463  10.532   7.753   4.850 -0.0725  0.3891 -0.0845
14570W        W30464   2.877  12.020   3.884 -0.0331  0.2136  0.0477
14571W        W30465   0.110   8.244   3.966 -0.1715 -0.2381  0.1316
14572W        W30466  12.247  14.154  16.914  0.2323 -0.1339  0.2488
14573W        W30467   5.447  17.525  13.778 -0.0612 -0.0371  0.0172
14574W        W30468   5.369  10.504  13.207  0.2313 -0.1465  0.0249
14575W        W30469  13.995   5.124   0.938 -0.0744  0.1407 -0.1408
14576W        W30470  10.881   4.830  13.801 -0.1279 -0.0705  0.1675
14577W        W30471   8.097  17.403   6.405 -0.3319  0.0130  0.0835
14578W        W30472  14.099  10.974   5.267  0.0734 -0.1624 -0.0282
14579W        W30473   8.007  11.692  16.477  0.1871  0.2576 -0.0608
14580W        W30474   5.975  16.583  16.128 -0.1947  0.0727  0.0799
14581W        W30475  14.641   5.080  14.758 -0.2216 -0.0378  0.0404
14582W        W30476  14.086  15.526   3.150 -0.1640 -0.1079 -0.2032
14583W        W30477   2.999  11.047   1.922 -0.0105 -0.0092  0.1198
14584W        W30478   4.775   9.984   2.555  0.0246  0.3510 -0.1197
14585W        W30479  16.658   8.204   4.562  0.1192 -0.0936 -0.0041
14586W        W30480  11.891  13.825  15.434 -0.1135  0.1577  0.1648
14587W        W30481  13.542   9.450   2.691 -0.1362 -0.1310  0.2340
14588W        W30482   3.337  14.825   4.333 -0.1007 -0.1054  0.0978
14589W        W30483   8.183  11.598  14.770 -0.2457  0.0545 -0.0187
14590W        W30484   2.412  12.094   0.114 -0.1137 -0.0280  0.3988
14591W        W30485   5.809   4.455   2.206  0.0188 -0.0350 -0.1384
14592W        W30486  16.706   4.316   1.929  0.1952 -0.1706 -0.1418
14593W        W30487  14.917   0.577   5.097 -0.0385  0.1999 -0.3843
14594W        W30488   9.026   6.732  15.043 -0.1640 -0.0482  0.0292
14595W        W30489   7.904   6.413  14.467 -0.1852  0.0346 -0.2260
14596W        W30490   3.023  12.469  12.649  0.0471  0.1403 -0.1866
14597W        W30491   3.523  17.223  10.533 -0.1041  0.1740  0.0790
14598W        W30492  11.431  17.618  16.385  0.0547  0.0094  0.1936
14599W        W30493   6.080  17.553   0.373  0.0329 -0.1334 -0.1084
14600W        W30494   3.017  10.613   3.210  0.1107  0.0995  0.0341
14601W        W30495  13.220   8.723  12.426 -0.0561 -0.2893  0.1548
14602W        W30496   0.008  16.779  16.743  0.2561  0.1911  0.0911
14603W        W30497   2.864   2.901  13.665  0.1167 -0.1368  0.0106
14604W        W30498  16.403  14.308   2.319  0.0655 -0.0928 -0.0204
14605W        W30499  13.104   1.588  12.983 -0.4239 -0.0205 -0.3519
14606W        W30500  11.810   9.002  16.848  0.4157  0.4747  0.3039
14607W        W30501   1.372  10.648   4.757 -0.3677  0.1830 -0.0349
14608W        W30502  14.233   7.235  12.286 -0.0227  0.2126  0.1176
14609W        W30503  13.959  13.502   4.216  0.1040  0.4435 -0.1114
14610W        W30504  12.022  16.055   4.908  0.0016  0.2795  0.0114
14611W        W30505  13.855  11.383  15.050 -0.2722 -0.2320 -0.0038
14612W        W30506  11.791  16.083   0.599  0.0056  0.1397  0.2377
14613W        W30507   1.098   4.507   0.135  0.0888  0.0492 -0.2145
14614W        W30508   2.043   2.672  15.479 -0.0358  0.1309 -0.3976
14615W        W30509  12.953  15.094   5.595 -0.1815 -0.0736 -0.2277
14616W        W30510   4.812  14.381   1.583 -0.0175  0.0271 -0.3020
14617W        W30511  16.007   7.791  12.301  0.0636 -0.2559  0.2987
14618W        W30512   6.955   9.045   0.958 -0.0534  0.2958  0.0406
14619W        W30513   7.134   8.702   5.327 -0.1377 -0.2024  0.0634
14620W        W30514   0.294   0.479  12.791  0.1841 -0.0967  0.0237
14621W        W30515   0.856  15.492   3.633  0.1416  0.1913 -0.0291
14622W        W30516   1.361   9.700  11.898  0.2125  0.3026  0.1400
14623W        W30517   4.274  10.168  14.113  0.0801  0.0607 -0.0048
14624W        W30518   9.334  17.147   1.561  0.2253  0.4509  0.1627
14625W        W30519  15.039   1.160  13.517 -0.2317  0.0886 -0.0367
14626W        W30520  17.691  12.518   0.173 -0.0871 -0.4514  0.1198
14627W        W30521   9.744  16.851  14.891  0.1779  0.3144 -0.0356
14628W        W30522  10.535   8.753  12.960  0.0216 -0.2530  0.0203
14629W        W30523   0.753   7.489   3.538 -0.0082 -0.3014  0.0275
14630W        W30524   7.224   3.888  15.291  0.0872  0.0672 -0.1279
14631W        W30525  10.675  11.124   1.759 -0.0858  0.1615  0.0292
14632W        W30526  12.944   9.684   0.359 -0.0720  0.1619  0.0145
14633W        W30527  15.564  13.474   0.577 -0.0352  0.1343  0.1348
14634W        W30528   6.146  10.894  12.118 -0.0239  0.0943 -0.0829
14635W        W30529   6.319   2.042  11.946  0.1159 -0.1537 -0.0172
14636W        W30530  13.104   8.964   1.563 -0.0336  0.0287 -0.1625
14637W        W30531   6.668   2.119   3.507 -0.2229  0.2515  0.1192
14638W        W30532  12.546   0.020   2.111  0.1900 -0.0594 -0.2471
14639W        W30533  10.022   0.489  15.585  0.1071 -0.1294  0.1400
14640W        W30534   4.018  17.029  16.041  0.1141  0.1089  0.1424
14641W        W30535   7.579  17.645  15.691  0.2982 -0.0645  0.1680
14642W        W30536   0.621  17.661  12.021  0.0153  0.0865 -0.3674
14643W        W30537   9.971   3.975   4.130  0.1371  0.0082  0.0863
14644W        W30538   8.611   6.024   1.226  0.0359  0.0991  0.3939
14645W        W30539  12.972   5.831  12.427 -0.1633 -0.3062 -0.1461
14646W        W30540   3.570   5.167   1.918  0.1673  0.0230  0.0235
14647W        W30541   8.690   7.244  12.444 -0.3513  0.5851  0.1221
14648W        W30542  11.907  14.481  16.731 -0.2361 -0.0844 -0.1350
14649W        W30543  11.262  13.757   0.621 -0.2226  0.3137 -0.1979
14650W        W30544  17.376   8.158   1.881 -0.1076  0.0642 -0.1926
14651W        W30545  11.493   2.128  13.946  0.0052 -0.1527  0.0054
14652W        W30546   5.049   2.718  16.905  0.2776  0.2445  0.1614
14653W        W30547  13.813  16.687  14.692 -0.1070  0.2148 -0.1236
14654W        W30548   8.701   0.250  11.974 -0.0528  0.1005 -0.0002
14655W        W30549  14.302   3.287  11.206 -0.0817 -0.0316  0.1172
14656W        W30550   4.275   2.925   2.831  0.0033  0.2094  0.0818
14657W        W30551  15.953   0.882   6.241 -0.1096 -0.1287  0.2449
14658W        W30552  17.631   5.490   4.114  0.2361 -0.1210 -0.1464
14659W        W30553   5.199  11.555  15.382  0.0224 -0.3161 -0.1574
14660W        W30554  13.494   9.277   0.092 -0.0054 -0.0811  0.0646
14661W        W30555   6.735  17.565  11.769 -0.0574 -0.2378 -0.3007
14662W        W30556   6.642   3.053   3.166  0.0580 -0.0319  0.0047
14663W        W30557   6.350  16.351  15.292 -0.0043 -0.1768  0.0527
14664W        W30558   0.403  11.536   2.957 -0.2445 -0.1093  0.4970
14665W        W30559  15.230  15.402  14.102 -0.2739 -0.1172 -0.3413
14666W        W30560   4.673   7.653  15.070 -0.0341  0.1059 -0.1954
14667W        W30561   0.925  16.412   5.280 -0.3765  0.1183  0.1491
14668W        W30562   9.202  17.675  14.826  0.3785  0.1303  0.0238
14669W        W30563   0.372  11.472  11.880  0.2954 -0.3342  0.1374
14670W        W30564   2.670  17.301  15.575 -0.0412 -0.2707  0.0958
14671W        W30565  11.775   5.050   1.553  0.1434 -0.1596  0.0789
14672W        W30566   2.278  17.407   1.749 -0.1349 -0.2017  0.1684
14673W        W30567   4.884   6.332  13.224  0.0350 -0.3014 -0.0146
14674W        W30568   4.172   2.772  12.836  0.1329 -0.1377  0.1001
14675W        W30569  16.694   0.262  11.499 -0.1202  0.1637  0.1388
14676W        W30570   2.252   2.370   1.278  0.1532  0.0012  0.1377
14677W        W30571  13.524   8.501   5.129 -0.1823  0.0017  0.0235
14678W        W30572   1.686  12.313  12.863  0.0354  0.0007 -0.2183
14679W        W30573  16.301  13.742  16.014 -0.2791  0.1418 -0.0495
14680W        W30574  10.167   4.878   1.329 -0.0050  0.1126  0.0655
14681W        W30575   2.923   5.845   5.157  0.0020 -0.0355  0.1583
14682W        W30576  17.814  10.628   0.684  0.0284  0.2829  0.1838
14683W        W30577  10.228  14.468  14.358 -0.1392 -0.2766  0.0181
14684W        W30578  14.367   7.614   0.166 -0.0423 -0.1367  0.0684
14685W        W30579   0.029   3.168  16.553 -0.0810  0.1410 -0.3816
14686W        W30580   2.199  13.718   0.569 -0.0576  0.1240  0.2810
14687W        W30581  16.378   2.544  14.822  0.0218 -0.0705  0.2638
14688W        W30582  15.477   1.741   2.159  0.3727  0.0579 -0.0116
14689W        W30583   6.469   1.959  14.097 -0.2609  0.2314  0.0712
14690W        W30584  10.057   7.398  14.225  0.1134 -0.3715  0.2540
14691W        W30585   5.621  14.365   6.347  0.0595 -0.0721  0.1360
14692W        W30586  11.538   8.283   0.691 -0.1080 -0.1764 -0.1562
14693W        W30587   0.298   3.179   1.905 -0.1205  0.2116  0.0159
14694W        W30588   1.079   9.624   6.109 -0.2627  0.1554  0.0641
14695W        W30589   0.263   8.536   0.685 -0.0097 -0.0589 -0.2113
14696W        W30590  16.865  10.749  12.789  0.2187 -0.2358 -0.2646
14697W        W30591   5.561  17.081   5.912  0.1732 -0.0404 -0.1027
14698W        W30592  12.483  10.108  13.860 -0.2032  0.0597  0.1602
14699W        W30593   7.864   8.757  15.437  0.0406  0.3957  0.2110
14700W        W30594  10.399   9.877   0.574  0.1903 -0.0767 -0.1955
14701W        W30595  14.099  13.063   0.461 -0.1384  0.1118 -0.3236
14702W        W30596  10.017   6.882   1.129  0.1612  0.0760  0.0019
14703W        W30597   9.643   1.340  13.704 -0.2472  0.0880 -0.1239
14704W        W30598  10.523   3.247   3.170  0.0259  0.3453  0.1677
14705W        W30599  14.526   5.968  14.696  0.3149 -0.1818 -0.1152
14706W        W30600  11.507   8.505   2.440 -0.0025  0.0657  0.1323
14707W        W30601   2.232   9.443   3.203  0.3456  0.2742 -0.0459
14708W        W30602   1.909  16.994   0.438 -0.0883  0.1347 -0.1206
14709W        W30603   2.812  12.674   1.551  0.0190 -0.2257  0.2196
14710W        W30604  11.025   2.576  16.088 -0.0958  0.1450  0.1702
14711W        W30605  13.681   9.028  13.780 -0.2474 -0.2396 -0.1342
14712W        W30606   0.243   6.766   4.474  0.3502  0.0294  0.1059
14713W        W30607  15.521   2.717   0.592  0.2340 -0.0916 -0.0827
14714W        W30608  16.267  12.437  13.705  0.2238  0.1043 -0.1640
14715W        W30609   8.370  10.111  14.433  0.2978 -0.0254  0.1053
14716W        W30610   3.421  17.140  16.060 -0.1801  0.0689  0.3811
14717W        W30611  11.061  16.832  16.460  0.0106 -0.1568  0.1806
14718W        W30612   0.955  16.560  12.524 -0.1397 -0.0404  0.1848
14719W        W30613   3.747  15.940   5.608  0.2444  0.0934 -0.3838
14720W        W30614  17.578   1.194   4.922 -0.0687  0.0546  0.1071
14721W        W30615   1.007  14.401   0.982  0.3022 -0.0367 -0.2802
14722W        W30616  11.798   2.199  11.170 -0.0302  0.0267 -0.1436
14723W        W30617  10.804   4.511   0.817 -0.0157 -0.3029 -0.2511
14724W        W30618   3.760  12.826  12.185 -0.2631  0.2697  0.3012
14725W        W30619  10.949   4.188   3.947  0.2696  0.0145 -0.3711
14726W        W30620  11.143   9.972   2.589 -0.2178  0.0109 -0.1194
14727W        W30621  12.636  13.121  15.915 -0.1808 -0.0732  0.1596
14728W        W30622  16.257  10.314   5.806 -0.0230 -0.1133 -0.3478
14729W        W30623  16.942   5.765  11.739  0.0849 -0.3446 -0.0746
14730W        W30624  17.541  11.701  13.393 -0.2204 -0.0327  0.0501
14731W        W30625   2.496   7.888  12.089  0.0926 -0.0978  0.3129
14732W        W30626   1.935  12.553   1.157  0.0385 -0.1599  0.0140
14733W        W30627  14.428   0.907  14.573 -0.2296 -0.1061  0.1377
14734W        W30628  12.468  11.223  14.658 -0.2459 -0.1068 -0.0796
14735W        W30629   9.401  15.270   2.259 -0.0096  0.2650  0.1269
14736W        W30630   9.853   9.305  12.799  0.0422  0.2618  0.0718
14737W        W30631  15.233   1.897   5.713 -0.1973 -0.1303  0.0391
14738W        W30632   9.631  16.567   3.245  0.0787  0.0132  0.1979
14739W        W30633   6.756  14.993   0.868  0.2219 -0.2139 -0.0708
14740W        W30634  15.500  14.080  12.538 -0.2060 -0.0782 -0.1148
14741W        W30635   2.396   6.321  12.689  0.1281  0.2179 -0.2077
14742W        W30636  15.512   5.889  12.834 -0.0179  0.0906  0.0904
14743W        W30637  11.712  10.838   3.152  0.5601  0.0754 -0.0547
14744W        W30638  11.643  13.250  16.817 -0.1183 -0.3473 -0.2918
14745W        W30639   8.199   0.532   0.666  0.0668 -0.1789 -0.1124
14746W        W30640   6.923   6.068  13.903 -0.1137 -0.0986 -0.0511
14747W        W30641  12.130   1.816   3.727 -0.2346  0.0398 -0.2470
14748W        W30642  12.331  15.284  15.960 -0.1043 -0.0793 -0.1773
14749W        W30643   3.232  15.298  13.491  0.0916 -0.0541  0.0951
14750W        W30644   2.380  12.288   3.165  0.2820  0.2427 -0.1715
14751W        W30645   9.217   6.752  14.231  0.2971  0.0657 -0.3225
14752W        W30646  14.345   1.942  11.831 -0.2134 -0.2012 -0.2587
14753W        W30647  11.616   1.693   0.301  0.1937 -0.2027 -0.1032
14754W        W30648  16.147  10.478   1.893 -0.1125 -0.0630  0.2621
14755W        W30649  11.055   3.188   3.032 -0.0054 -0.3394  0.2209
14756W        W30650   6.784  11.716   6.095 -0.1667 -0.4335  0.1724
14757W        W30651  14.058   5.352   6.295 -0.0354 -0.0567 -0.1499
14758W        W30652  13.906   5.805   2.674  0.1355  0.1535  0.0588
14759W        W30653   9.704   3.298   0.381  0.1516 -0.0155 -0.0994
14760W        W30654   9.014  11.973  15.800 -0.1240 -0.0003 -0.2704
14761W        W30655   3.423   4.108   0.072  0.0500 -0.1089  0.0442
14762W        W30656   5.464  17.020  13.575 -0.3539 -0.1122 -0.0533
14763W        W30657   0.533  14.793  14.685  0.0811 -0.2360 -0.1563
14764W        W30658  10.183  15.807  16.091  0.1104  0.0741  0.0680
14765W        W30659  13.844   4.032   2.109  0.0077  0.0536 -0.0266
14766W        W30660  10.922   4.591   3.422  0.0327 -0.0258 -0.1270
14767W        W30661   2.731   5.985  12.711 -0.0391 -0.0219  0.0974
14768W        W30662  10.289  11.985  12.169 -0.0135 -0.2347  0.2358
14769W        W30663   2.080   1.014   2.377  0.0130  0.5545 -0.2770
14770W        W30664  13.173  12.257   0.478 -0.0270 -0.5314 -0.0280
14771W        W30665   9.231   0.080   5.268  0.0322 -0.2036 -0.3449
14772W        W30666  11.188   6.788   4.442  0.1208  0.3009  0.1666
14773W        W30667  16.670  12.688  12.669  0.0640  0.0715  0.1551
14774W        W30668   9.164  11.983   1.311  0.0728 -0.2280  0.1334
14775W        W30669   8.743   7.503   2.551 -0.0013 -0.0827 -0.1257
14776W        W30670   3.001  14.091  14.984  0.4201  0.3350  0.2320
14777W        W30671   9.247   5.889   2.368 -0.0220  0.1091 -0.0105
14778W        W30672  14.220  17.430   0.816 -0.1503 -0.3215 -0.1901
14779W        W30673   9.218   9.717  16.001  0.0854  0.2565  0.1150
14780W        W30674   8.563  14.262  12.902  0.2552  0.0510  0.0159
14781W        W30675   5.775   0.051  12.513 -0.0220  0.1561 -0.0004
14782W        W30676   9.824  11.785   5.591 -0.0317  0.1869 -0.0722
14783W        W30677  11.281  10.250  15.293  0.0018  0.2157 -0.0585
14784W        W30678   3.135  17.355  13.272 -0.1047  0.0541 -0.0512
14785W        W30679  17.644   5.197  14.768 -0.3274 -0.1026 -0.1681
14786W        W30680  16.278  10.480   1.404  0.1267  0.1412 -0.1363
14787W        W30681  13.747   8.831  12.468  0.0677  0.0493 -0.0246
14788W        W30682   5.287  14.050   2.301 -0.1550  0.1682  0.0634
14789W        W30683   7.111   3.869   1.052 -0.2026  0.1957  0.0534
14790W        W30684  15.179   3.253   3.079  0.0760 -0.0052 -0.0763
14791W        W30685   7.783  10.818   3.594 -0.2102  0.2103  0.2418
14792W        W30686  16.108   1.916  16.604 -0.0391 -0.0213  0.0544
14793W        W30687   6.965   4.024   6.733 -0.2654 -0.2787 -0.1063
14794W        W30688   6.738   7.410   6.210 -0.3024 -0.2944 -0.2117
14795W        W30689   4.845   9.189  15.991  0.1292 -0.1080  0.0198
14796W        W30690  14.112  11.961  16.482 -0.1333 -0.0943 -0.1505
14797W        W30691   3.265  12.514  14.073  0.1987  0.2813  0.1891
14798W        W30692   0.706   3.110  13.539 -0.2084 -0.3081  0.0002
14799W        W30693   0.911   2.061  15.493 -0.1168  0.0938  0.1580
14800W        W30694   9.839  14.093   1.742  0.2343 -0.3100 -0.0231
14801W        W30695  17.264  15.891  12.495 -0.0765  0.0293 -0.0805
14802W        W30696  12.666  10.662   1.719 -0.2390  0.0255 -0.0782
14803W        W30697  11.866   7.789   0.160  0.1394  0.0508  0.3974
14804W        W30698   0.458   2.212   2.284 -0.2239  0.2881  0.0681
14805W        W30699   6.617   1.681  15.013 -0.0543  0.0313  0.0877
14806W        W30700  16.828   2.067  13.845 -0.2752  0.2562 -0.2187
14807W        W30701  13.369  17.355  13.018 -0.1592 -0.0970 -0.0865
14808W        W30702  12.658   2.349  12.556 -0.3139  0.2510 -0.0992
14809W        W30703   2.230   3.557  12.677  0.1599  0.0755 -0.1920
14810W        W30704   1.083  17.650  14.207 -0.1796 -0.2448  0.0161
14811W        W30705   9.490   8.984   0.257 -0.0097  0.1487  0.0415
14812W        W30706   4.658  16.870  16.506  0.4167  0.3239 -0.0308
14813W        W30707   1.847   5.487   6.201  0.0492  0.0279 -0.1101
14814W        W30708   6.619   5.295  15.680  0.3459 -0.1703 -0.0974
14815W        W30709   7.463   4.162   4.659 -0.1203 -0.0133 -0.0226
14816W        W30710  16.991   4.298  13.903 -0.0497  0.2122 -0.1376
14817W        W30711  14.734   3.566   4.882  0.1652 -0.0417  0.0622
14818W        W30712  16.260   1.363   1.429 -0.2409 -0.1863 -0.2736
14819W        W30713   7.078   7.592  16.279  0.2610 -0.1993  0.0799
14820W        W30714   3.196   0.370  12.912 -0.1732  0.0389 -0.1741
14821W        W30715   6.280  14.798  16.364 -0.1756  0.1263 -0.0355
14822W        W30716  10.097  15.653   1.568  0.1600 -0.0585 -0.2718
14823W        W30717   6.528  16.226   2.120 -0.2235  0.2933  0.1224
14824W        W30718  11.415   3.841   4.320 -0.2165 -0.3389  0.2585
14825W        W30719  13.790  14.756   5.251  0.0985 -0.0557 -0.0971
14826W        W30720  11.662   3.949   3.387 -0.0934  0.1838  0.1076
14827W        W30721   5.313   4.817  15.040  0.0190  0.2394  0.0060
14828W        W30722  16.119  13.264  13.626 -0.1363 -0.3055 -0.2049
14829W        W30723   3.693  12.587   0.792  0.0330 -0.1487  0.2701
14830W        W30724   8.747  12.391  14.878  0.2288 -0.0338  0.0931
14831W        W30725   4.866   4.142   2.615 -0.2392 -0.1357 -0.1605
14832W        W30726   2.557  16.735   3.877  0.1660 -0.2640  0.1026
14833W        W30727   3.754   8.112  16.518 -0.1275  0.0568 -0.1619
14834W        W30728  12.937   1.605   3.329 -0.0328 -0.1698  0.2054
14835W        W30729   3.514   9.297   1.445 -0.1575  0.2047  0.2223
14836W        W30730  14.167   1.983  14.315 -0.1161 -0.2720  0.0693
14837W        W30731   7.333   5.008  13.315 -0.0593 -0.0392 -0.1137
14838W        W30732   1.156   9.278  12.176  0.0429  0.1763 -0.1820
14839W        W30733   5.947  10.343   3.191  0.1821 -0.1481  0.0842
14840W        W30734   0.017  14.590  15.536 -0.0558  0.0725  0.2294
14841W        W30735   5.875   3.191   1.746 -0.1021  0.2461 -0.1842
14842W        W30736   7.255   4.597   4.758 -0.0584 -0.0760  0.0164
14843W        W30737   8.056  14.293  14.942 -0.0324 -0.2691 -0.1556
14844W        W30738   4.603   1.052   1.244 -0.2173 -0.1652  0.1113
14845W        W30739  15.839   1.534  11.582  0.1476 -0.2925  0.0955
14846W        W30740  11.361  13.189   3.265 -0.3396 -0.0411  0.2768
14847W        W30741  13.652  15.784   0.476  0.3509  0.1096 -0.0451
14848W        W30742  17.748   8.193  15.043 -0.2321 -0.0482  0.0194
14849W        W30743  12.871   3.940  16.052  0.2079 -0.0541 -0.1796
14850W        W30744   0.770  10.651   0.701  0.0664 -0.2879 -0.0168
14851W        W30745  16.782  17.243  13.130 -0.2148  0.0127  0.1312
14852W        W30746   6.925  16.510   0.569 -0.0756 -0.1103  0.0646
14853W        W30747   5.984   8.768  15.891  0.3464  0.0845 -0.4628
14854W        W30748   9.514   7.651   5.601  0.0951 -0.2573 -0.1576
14855W        W30749   6.290  12.423   2.203  0.4176  0.3427 -0.0983
14856W        W30750  17.744   8.761   4.200 -0.0183  0.3093 -0.1920
14857W        W30751   5.453   7.443   0.061 -0.1286 -0.0872 -0.1777
14858W        W30752  11.894   7.650   5.739  0.2173 -0.1372 -0.0012
14859W        W30753  15.462  10.946  16.923 -0.1645 -0.0884 -0.1863
14860W        W30754  14.287  12.922  13.493  0.1616  0.1326 -0.1417
14861W        W30755   1.625   2.001  13.337 -0.2294 -0.2111  0.0610
14862W        W30756  15.269  14.871  10.708  0.1743  0.0688 -0.2341
14863W        W30757  14.583  16.006   5.428  0.2559 -0.1447  0.0841
14864W        W30758   4.513   6.966  16.666  0.1318  0.2037  0.0512
14865W        W30759   4.022  14.548  11.670 -0.0017  0.5245 -0.3450
14866W        W30760   5.426  12.051  13.997 -0.1752 -0.1643 -0.1406
14867W        W30761   0.439  15.342   3.823  0.2038  0.2200 -0.3175
14868W        W30762   3.288  17.520  14.269 -0.2501 -0.0644 -0.2433
14869W        W30763  13.933   6.437  16.797  0.1332  0.2483  0.1223
14870W        W30764   6.976   7.229  13.476  0.0990 -0.1863 -0.1779
14871W        W30765  13.602  14.430  14.221  0.0946  0.0045  0.0157
14872W        W30766   5.004   0.594  15.233 -0.3365  0.0900 -0.1251
14873W        W30767   9.107   9.935   2.454 -0.0657  0.1729  0.0100
14874W        W30768   7.759  12.944   6.296 -0.0404 -0.2107 -0.1945
14875W        W30769  13.486   1.927  12.323  0.3754 -0.0476 -0.1340
14876W        W30770  17.786   0.174   3.463 -0.0823 -0.2398 -0.0010
14877W        W30771   9.076  12.634  14.592 -0.2365 -0.0074 -0.0666
14878W        W30772   0.907   5.049  14.294 -0.1420  0.2805  0.1842
14879W        W30773  17.788   2.003   0.073  0.0749 -0.0023  0.0174
14880W        W30774  16.452   4.630   5.977  0.1318  0.0141  0.0496
14881W        W30775  14.071   9.576  15.978 -0.0846  0.0854 -0.0538
14882W        W30776   3.593   6.608   3.045 -0.1935 -0.1737  0.2851
14883W        W30777   7.432   0.116   2.105  0.0436  0.2624 -0.1785
14884W        W30778  11.659  14.793   2.977  0.1816 -0.0678  0.0279
14885W        W30779   6.893  16.685  11.759  0.0058  0.1010  0.1275
14886W        W30780  17.206  11.109  16.065 -0.0720  0.0828 -0.0003
14887W        W30781  16.424  16.040   4.587 -0.2323  0.0896 -0.1674
14888W        W30782  16.247   2.250  13.931 -0.3173 -0.3679 -0.1463
14889W        W30783   0.197   3.118   5.134  0.0799  0.0640 -0.2451
14890W        W30784   9.356  10.149  13.195  0.0591 -0.3052 -0.0725
14891W        W30785   9.597  11.969   0.416 -0.2687 -0.1126 -0.1046
14892W        W30786   7.945  15.765   5.443  0.3672  0.1203  0.1572
14893W        W30787   8.135   8.628  16.141 -0.0451  0.2587 -0.2057
14894W        W30788  13.204   6.703   5.363  0.1287  0.2514 -0.0031
14895W        W30789   2.607  12.215  12.863 -0.1043 -0.1332 -0.0495
14896W        W30790   0.798   4.654   3.127  0.0763 -0.0725 -0.0834
14897W        W30791   3.279   6.275   5.287 -0.0175 -0.0883 -0.2415
14898W        W30792   8.101  10.450   1.131 -0.0054  0.0941  0.2649
14899W        W30793   2.208   0.608  16.359  0.0910  0.1013 -0.0221
14900W        W30794   2.989   3.627  11.975 -0.2456  0.1940 -0.0480
14901W        W30795   4.412   7.722   3.672 -0.2416  0.3360  0.0055
14902W        W30796   1.880  14.679   2.578 -0.1953 -0.1014  0.0779
14903W        W30797   2.737  17.727   4.753  0.0149 -0.0556 -0.0368
14904W        W30798   9.681   2.932  16.501  0.1900 -0.3651 -0.1737
14905W        W30799  12.829   4.063   9.926  0.2493  0.1705 -0.0331
14906W        W30800   2.820  12.908   5.778  0.0563 -0.2387 -0.0040
14907W        W30801  15.218  11.607   4.255  0.0642  0.1742 -0.0962
14908W        W30802   8.401  10.482   2.767 -0.2524 -0.3690  0.0263
14909W        W30803   3.344   8.634   2.663  0.2681  0.0524 -0.3053
14910W        W30804  13.430   5.165   5.141 -0.0150  0.0447 -0.1434
14911W        W30805   0.693  15.024  10.666  0.0419  0.3598 -0.2775
14912W        W30806   7.299  14.475   3.368  0.0803  0.0126  0.1392
14913W        W30807   3.751  10.204   2.387 -0.0204  0.0191 -0.1280
14914W        W30808  14.845  16.465   0.037 -0.0183  0.2036  0.1042
14915W        W30809   5.167  16.486   1.207  0.0526 -0.0769  0.1593
14916W        W30810  11.166   6.931   5.003  0.0340 -0.2582  0.2143
14917W        W30811   0.842   3.074   2.041  0.1110  0.0199  0.1552
14918W        W30812  14.040  14.023   2.215 -0.2500 -0.0308 -0.1231
14919W        W30813   6.312   8.454  16.451 -0.1939 -0.0439  0.2156
14920W        W30814   7.761   2.763   4.494 -0.1478  0.2345 -0.1435
14921W        W30815  10.871   4.113   5.464  0.2843 -0.2026  0.1028
14922W        W30816   6.986   6.794   1.936 -0.1069 -0.0797 -0.0556
14923W        W30817  13.316   0.266  13.454  0.4001 -0.2569 -0.1439
14924W        W30818  15.539   1.991  14.872  0.0482 -0.0667  0.3016
14925W        W30819  12.498  11.121   2.092  0.0307 -0.5277 -0.0489
14926W        W30820   1.830   0.586   0.934  0.1775  0.1391 -0.0840
14927W        W30821  15.412  12.260   3.577  0.0383 -0.2652 -0.2280
14928W        W30822   3.030  13.061  12.765 -0.3074  0.1774 -0.1528
14929W        W30823  11.385   2.136   0.706 -0.2124  0.1246  0.0179
14930W        W30824   4.835   5.593   1.588  0.0415 -0.0070 -0.2729
14931W        W30825  13.954   3.377  15.654  0.1954 -0.0476 -0.0174
14932W        W30826   4.986   2.965   0.957 -0.1316  0.2021 -0.2432
14933W        W30827  14.504   1.580  15.117 -0.2623  0.0346 -0.0344
14934W        W30828   9.995  12.326   0.460 -0.0869 -0.3995  0.0420
14935W        W30829  11.777   1.949   2.284 -0.1742  0.0083 -0.4080
14936W        W30830  16.572   7.139   0.677 -0.0610  0.1486  0.3378
14937W        W30831   3.771   7.524   2.034  0.1220  0.1916 -0.1924
14938W        W30832  11.720   3.637   0.195 -0.0163  0.0029  0.0023
14939W        W30833  16.329   0.944  16.502 -0.0260 -0.1071 -0.0856
14940W        W30834   0.751   0.471   0.928  0.0479 -0.1130 -0.0369
14941W        W30835  16.458   1.230   3.970  0.2202 -0.0634  0.1003
14942W        W30836   0.428   6.957  11.788 -0.0929  0.3721  0.0269
14943W        W30837   4.363   5.146  13.318 -0.1072  0.1818 -0.3891
14944W        W30838  17.496  16.033   3.537  0.2494 -0.1904  0.1635
14945W        W30839  13.238  13.795  12.795  0.3067 -0.1926  0.3029
14946W        W30840  16.928  15.936  11.965 -0.2115  0.0073  0.0345
14947W        W30841  13.219  14.267  13.867 -0.0261 -0.2029  0.0170
14948W        W30842  13.258   4.445  12.652  0.1169 -0.1429  0.3556
14949W        W30843   3.571   6.690   2.525 -0.2422  0.0538  0.0543
14950W        W30844   6.144   0.373  16.069  0.0981 -0.0520 -0.1273
14951W        W30845   3.233   4.197   2.031 -0.3203  0.3931 -0.3347
14952W        W30846  10.571   3.566   5.048 -0.2918 -0.1839 -0.3674
14953W        W30847  13.498   6.257  12.883 -0.1393  0.0642 -0.1047
14954W        W30848  11.433   6.337  12.203 -0.2849 -0.1280  0.0520
14955W        W30849  13.880   2.471   0.939 -0.1366  0.0562  0.3328
14956W        W30850  12.192   9.456  12.210 -0.0437  0.0789  0.2106
14957W        W30851  15.313   8.659  15.861 -0.1487  0.1214 -0.2492
14958W        W30852   9.916   3.387  12.910  0.2174  0.2331  0.4428
14959W        W30853   6.818  17.772   5.838  0.0242  0.0807  0.2099
14960W        W30854   0.838  11.368  11.770 -0.4296 -0.0386  0.2484
14961W        W30855   9.206   5.053  13.838  0.0608 -0.2559 -0.1813
14962W        W30856  14.599   8.642   3.301 -0.0960  0.1119  0.0928
14963W        W30857   9.996   4.237  16.365  0.1513 -0.1632 -0.0077
14964W        W30858   8.011   9.744  15.741  0.1294 -0.0184 -0.1030
14965W        W30859   7.780   3.181  15.569  0.1094  0.0329 -0.4123
14966W        W30860  11.891   1.421  12.651  0.0832  0.0999 -0.0652
14967W        W30861   5.340  12.773   6.063 -0.2128  0.0269  0.0698
14968W        W30862   6.856   2.945   0.742  0.0199  0.1091 -0.2263
14969W        W30863  12.566   0.624   5.530 -0.3727 -0.1665 -0.0684
14970W        W30864  14.748   5.695  16.038  0.2209 -0.2241  0.0426
14971W        W30865   6.625  14.184  15.451  0.0579 -0.0431 -0.0485
14972W        W30866  10.982   9.140  12.266  0.0227 -0.0464  0.1344
14973W        W30867  12.240   1.521  13.521 -0.2016  0.1864 -0.3467
14974W        W30868  15.635   7.247  10.681  0.0417  0.2592 -0.2247
14975W        W30869   3.581   5.679   4.743  0.0694 -0.2882 -0.1832
14976W        W30870   7.431   5.965   2.220 -0.1045 -0.4133  0.0469
14977W        W30871  10.267  15.317  15.344 -0.0297  0.0992 -0.0362
14978W        W30872   3.959   5.132   4.606  0.3087 -0.0206 -0.1450
14979W        W30873   5.375   1.610   0.886 -0.0588  0.0537  0.2090
14980W        W30874  13.158   0.381   4.639  0.0485 -0.1548 -0.1130
14981W        W30875   8.309  11.271   2.273 -0.0866  0.1267  0.1668
14982W        W30876  15.763  14.939  14.554  0.0355 -0.3193  0.1360
14983W        W30877   6.878   7.122  12.443 -0.0530  0.0783 -0.0189
14984W        W30878   4.189   2.565  14.736  0.1284 -0.1227 -0.3559
14985W        W30879  14.337   1.421  12.446 -0.0019 -0.3529  0.1823
14986W        W30880   4.975   4.474   2.100 -0.1387 -0.2529 -0.1871
14987W        W30881  12.342  17.660   4.802  0.0270  0.1591  0.2881
14988W        W30882   7.460   8.245   3.656  0.0268 -0.0287  0.1247
14989W        W30883   8.967  12.943   2.058  0.3228  0.3265 -0.0240
14990W        W30884  15.659   5.943  12.384 -0.0172  0.0661 -0.2524
14991W        W30885  16.642   9.507  12.158  0.4651 -0.2669 -0.0985
14992W        W30886   3.381  12.700   1.569 -0.0586  0.0703 -0.1537
14993W        W30887   0.977   4.436  15.168 -0.2234 -0.0794  0.1610
14994W        W30888   6.479   0.298  14.593 -0.0491 -0.1433 -0.2066
14995W        W30889   2.503   5.061   4.480 -0.0740  0.5556  0.2110
14996W        W30890   5.360  10.280   5.741 -0.1736 -0.2488 -0.0851
14997W        W30891  15.948   2.773  16.262 -0.0885 -0.4303  0.0462
14998W        W30892  13.287  14.159  15.871  0.2361  0.3115 -0.0393
14999W        W30893  10.636  12.239  14.078 -0.0039  0.0866 -0.3747
15000W        W30894   8.741   1.310   2.382 -0.0484  0.0498  0.0931
15001W        W30895  11.254   2.745   5.434  0.0845 -0.2569 -0.1790
15002W        W30896   3.821   4.279   5.149  0.0008  0.1868  0.1570
15003W        W30897   0.667  15.559  11.746  0.0918  0.1827 -0.1552
15004W        W30898  11.539  15.963  15.622 -0.1085  0.1426  0.2297
15005W        W30899   3.729  17.668   3.770  0.0784  0.0457 -0.2376
15006W        W30900  14.819  17.708  16.765  0.3567 -0.0994 -0.2330
15007W        W30901   3.258   6.707  16.325 -0.1223 -0.1914 -0.1668
15008W        W30902  14.927   3.929  12.992 -0.0532 -0.1477 -0.0532
15009W        W30903   5.492   9.298   1.475  0.1773 -0.2763  0.0424
15010W        W30904   4.335   7.538  12.202 -0.0849 -0.1229  0.0041
15011W        W30905  11.045   5.068   3.672 -0.0887 -0.2530  0.2935
15012W        W30906   1.572   5.048  16.266  0.0338 -0.1717  0.1663
15013W        W30907  11.035   8.779   2.428 -0.1660 -0.0942  0.0066
15014W        W30908  12.389   5.769   6.026  0.0298  0.1295 -0.2671
15015W        W30909   4.935   5.056   5.213 -0.2276 -0.0450  0.1490
15016W        W30910  12.897  10.262   4.041 -0.0124  0.2118 -0.1974
15017W        W30911   9.692  17.518  12.977  0.2688  0.0868  0.2192
15018W        W30912   1.907  12.430  14.116 -0.1220  0.0035 -0.1558
15019W        W30913   1.174   7.960   4.589 -0.0094  0.1669 -0.2155
15020W        W30914  16.182  10.838  15.401 -0.1814  0.0278 -0.0109
15021W        W30915   2.518   4.790   6.534 -0.2785  0.1363  0.0624
15022W        W30916   3.737  17.322  16.846  0.1246  0.0301  0.2325
15023W        W30917  17.724  14.780   0.106  0.0070 -0.2798  0.1358
15024W        W30918  11.169   9.004  15.948 -0.3315  0.0328  0.2407
15025W        W30919   1.697  13.830  13.541 -0.1235 -0.0210  0.2701
15026W        W30920   3.537   2.713  14.110  0.0687 -0.0113  0.1253
15027W        W30921  13.224   4.516   2.722  0.2379 -0.0059 -0.0655
15028W        W30922  13.445  12.848  12.255 -0.1714 -0.0654  0.0820
15029W        W30923  12.181   5.552  15.595  0.2681 -0.1622  0.1196
15030W        W30924  13.144  15.036  13.681  0.1358 -0.1504  0.3331
15031W        W30925   4.321   7.513   1.972  0.1655  0.0948 -0.1833
15032W        W30926   0.955   7.307  13.700  0.3213  0.0417  0.0078
15033W        W30927   6.535   6.227   4.164 -0.1572  0.5100 -0.0958
15034W        W30928   2.076  13.145   4.865  0.0821  0.1340 -0.2420
15035W        W30929   5.576  17.228   4.656  0.0496  0.0871 -0.0095
15036W        W30930  14.128   7.692  16.277 -0.1340 -0.0188 -0.2775
15037W        W30931  11.223   3.678   2.593  0.2887  0.1131 -0.3029
15038W        W30932  13.019   9.169   2.624 -0.2300 -0.2658  0.1256
15039W        W30933  11.656   9.657   3.720  0.1245 -0.1460  0.3580
15040W        W30934  11.800  11.525   0.501  0.1762 -0.0877  0.1072
15041W        W30935  16.748   8.022   0.962 -0.2574  0.0346 -0.0835
15042W        W30936   7.603  17.136  12.842  0.0558 -0.1564  0.0685
15043W        W30937  14.268   7.269  13.320  0.0368 -0.3448  0.0606
15044W        W30938   8.683   3.447  13.144 -0.0927  0.3196 -0.1209
15045W        W30939   5.363   9.081  13.220  0.2503 -0.1054  0.4048
15046W        W30940   8.614  17.053  15.235  0.0838 -0.0376 -0.2686
15047W        W30941   2.536  15.280   2.963 -0.2076  0.0109  0.1705
15048W        W30942  11.342   7.627   0.443 -0.0509  0.1813  0.1545
15049W        W30943  15.077   8.445  13.082  0.1982 -0.2751 -0.0153
15050W        W30944  14.964  14.077  13.904 -0.0786  0.1107 -0.3082
15051W        W30945  14.931   2.238   0.768 -0.1869 -0.0829  0.1696
15052W        W30946   1.280   0.991  12.921  0.2618  0.2648 -0.2357
15053W        W30947   3.509   8.778   3.429 -0.4191  0.2558  0.4021
15054W        W30948  16.468  13.275   3.554  0.0547  0.2369 -0.5323
15055W        W30949  12.845   9.001   2.138  0.1728  0.1924 -0.0883
15056W        W30950   5.859   5.081  16.226  0.0203 -0.0612  0.4088
15057W        W30951   5.083   9.416  16.838  0.0867 -0.1454  0.1275
15058W        W30952   9.434  11.617  14.552  0.1521  0.0876 -0.0459
15059W        W30953  14.858  14.317   1.225  0.0983  0.4169  0.0293
15060W        W30954  11.871  16.673   0.371  0.1975 -0.1955 -0.3541
15061W        W30955   6.754   9.752   0.177 -0.3027 -0.0023 -0.1114
15062W        W30956   2.715   4.401  13.954  0.0225  0.1331  0.0235
15063W        W30957   9.253   2.079  12.074 -0.2475  0.3602  0.1675
15064W        W30958  16.838  11.486  16.354  0.1868  0.3214 -0.2024
15065W        W30959  15.924  17.745   4.765  0.0675  0.0099  0.1690
15066W        W30960   6.659   4.239   3.323 -0.0291  0.0678 -0.1587
15067W        W30961  13.483   2.863  12.263  0.4099 -0.2323  0.0135
15068W        W30962   2.250   2.640  14.331 -0.0796 -0.1406 -0.0149
15069W        W30963   8.466  11.419   4.950  0.1026 -0.1037  0.2067
15070W        W30964   9.837  13.406   0.383 -0.3416 -0.2696  0.2412
15071W        W30965  15.667   2.721   3.560 -0.0092 -0.0070  0.0154
15072W        W30966   5.903   1.563   2.501  0.2240  0.0109 -0.1958
15073W        W30967   2.265   0.424   0.760 -0.0500  0.1631  0.0447
15074W        W30968  14.208  14.207   3.909 -0.2751  0.0404  0.2134
15075W        W30969  17.577  17.698   0.136  0.0200  0.0154  0.0805
15076W        W30970  15.546   3.894   3.663  0.1888 -0.0245 -0.0378
15077W        W30971  10.824  11.907   1.230 -0.0596 -0.2142 -0.3149
15078W        W30972  15.500   3.111  16.218 -0.0437  0.0605  0.1628
15079W        W30973  10.779  14.712  15.185  0.0279  0.1099  0.0146
15080W        W30974  10.342   6.525   4.088 -0.1943 -0.1498 -0.3399
15081W        W30975  12.981  15.543   1.018 -0.2761  0.1733 -0.0832
15082W        W30976   2.458  13.620  13.846  0.1856 -0.0517 -0.0587
15083W        W30977  17.301   8.020   0.950 -0.0621 -0.1899  0.0503
15084W        W30978  15.806   4.157   0.309  0.1200 -0.1239 -0.1291
15085W        W30979  13.786   2.046  12.759 -0.0960  0.0293  0.2490
15086W        W30980  12.155   4.449  14.935 -0.0734  0.0023  0.2360
15087W        W30981   5.368   3.240  13.030  0.0086 -0.1426 -0.0257
15088W        W30982  11.929  15.621   2.493  0.1733  0.3265 -0.0719
15089W        W30983  11.959   4.340  13.145  0.0697  0.1619 -0.1348
15090W        W30984   0.377  10.529  13.738 -0.0030  0.0998  0.2834
15091W        W30985   9.210  17.677   3.047 -0.2933  0.0772  0.2640
15092W        W30986   4.421   3.213  13.202 -0.2901 -0.0351 -0.2532
15093W        W30987  16.922   5.729   1.317 -0.0183 -0.0051  0.0491
15094W        W30988   1.056  11.840  13.329 -0.0237  0.0288  0.3182
15095W        W30989   9.506  11.041   2.721 -0.1056 -0.1213 -0.2143
15096W        W30990  10.404   6.811  15.580  0.2318  0.2180 -0.2872
15097W        W30991   7.157   4.119  13.288 -0.2424  0.0932 -0.0483
15098W        W30992  17.527   5.286   2.308 -0.0152  0.1524 -0.2416
15099W        W30993   6.958   5.272  13.503  0.2328  0.1217  0.1711
15100W        W30994   0.880  15.332  16.268 -0.3145 -0.0099  0.1708
15101W        W30995   6.099   3.063   4.634 -0.1043 -0.1511 -0.2464
15102W        W30996  14.257   2.114   4.768 -0.1510  0.0335  0.0773
15103W        W30997   0.416   0.183  12.370 -0.0782  0.2033 -0.0203
15104W        W30998  12.833   7.354   4.080 -0.1520 -0.0146  0.2461
15105W        W30999  16.002  14.242   1.991 -0.0696 -0.1491 -0.1115
15106W        W31000   3.562   1.422  14.084 -0.1165  0.1065 -0.0153
15107W        W31001  16.466  11.812   3.605 -0.1745 -0.2254 -0.1854
15108W        W31002  16.958   5.689   4.800  0.0962  0.0367  0.1045
15109W        W31003   3.588   1.324  11.582  0.0998 -0.0835 -0.3180
15110W        W31004   9.819  16.459  16.406  0.4144 -0.1661 -0.0011
15111W        W31005   0.724   6.304  13.787 -0.3810 -0.1498 -0.1109
15112W        W31006   5.008  16.561   3.377  0.2577  0.2171 -0.2037
15113W        W31007   0.278  12.087   4.147  0.1139  0.1127  0.3912
15114W        W31008   9.109   7.991   5.141  0.0001  0.1058 -0.1107
15115W        W31009   5.216   3.016   3.883  0.0552 -0.0953  0.3188
15116W        W31010   8.375   7.030   3.203 -0.2409  0.1187  0.0063
15117W        W31011  13.730   1.943  16.692  0.1078  0.3663 -0.0868
15118W        W31012  13.400   2.986  16.808  0.0703 -0.4531 -0.1732
15119W        W31013  12.957  14.304   0.457  0.3598 -0.0918  0.0518
15120W        W31014  10.039  17.436  13.894  0.0481  0.2155 -0.0949
15121W        W31015  17.563   8.236   1.335  0.0014 -0.1299  0.0350
15122W        W31016  14.138   9.507  14.445  0.0059  0.0218  0.1307
15123W        W31017  14.371  10.922   4.205 -0.0167 -0.0800 -0.0442
15124W        W31018  13.099  17.193   0.545 -0.0497 -0.0675  0.1506
15125W        W31019   3.163   0.912   1.336 -0.0422 -0.2911 -0.0305
15126W        W31020   7.206   9.152   4.597  0.0372 -0.1682 -0.2510
15127W        W31021   7.877   4.965  11.839  0.0801  0.0506  0.1013
15128W        W31022   4.261   2.996  11.965 -0.2397 -0.2030  0.2726
15129W        W31023   4.693  10.598  15.347 -0.0934 -0.0280 -0.0583
15130W        W31024   1.863  10.874   3.828  0.1403  0.4387  0.1298
15131W        W31025  17.591   3.240  12.394  0.1293 -0.3830 -0.3502
15132W        W31026  16.355  14.721  15.184  0.1074 -0.2000 -0.0257
15133W        W31027  10.997   7.235  12.708 -0.0308  0.2135 -0.0207
15134W        W31028   8.005   2.607  12.605 -0.0165  0.1256  0.0887
15135W        W31029   7.883  11.288  13.369 -0.2271 -0.3720  0.0889
15136W        W31030  12.274   9.914  14.736  0.0236  0.3435 -0.1135
15137W        W31031   4.309   0.849   4.061  0.3205 -0.1725 -0.0135
15138W        W31032  11.740   6.584  12.566  0.2121  0.0393  0.0559
15139W        W31033   9.387   9.265  14.604  0.0646 -0.0314 -0.1478
15140W        W31034   2.169  15.155  15.598  0.1679  0.0480 -0.3199
15141W        W31035   8.757  10.743   6.596 -0.2633  0.1281 -0.1835
15142W        W31036   4.517  13.268   3.788  0.1216 -0.2573  0.1389
15143W        W31037   2.814   5.991   4.390  0.0466  0.0627  0.0896
15144W        W31038   1.488   0.888   5.382 -0.3736 -0.4387  0.0870
15145W        W31039  15.829   9.506   2.986 -0.2162  0.0563  0.1041
15146W        W31040  12.662   1.643   4.489 -0.0183 -0.0790 -0.0293
15147W        W31041  11.766   4.420   3.673  0.0647  0.0382  0.1057
15148W        W31042   4.105   3.283   0.336 -0.2172  0.1539  0.2470
15149W        W31043  15.389  11.730  16.795  0.1305  0.1310  0.0758
15150W        W31044   6.036  13.955   3.107 -0.0418 -0.1071  0.1209
15151W        W31045   2.701   9.609   1.523 -0.1932  0.0605 -0.2918
15152W        W31046   5.465   3.128   2.676 -0.2812  0.1454 -0.0156
15153W        W31047  16.467   0.156   2.015 -0.1925 -0.2746  0.3124
15154W        W31048  12.411  16.792   4.793 -0.1171 -0.0572 -0.0141
15155W        W31049  14.099   7.184   3.971  0.5860  0.2233 -0.2171
15156W        W31050  16.182   9.770  14.279  0.3063  0.0910 -0.2393
15157W        W31051   3.409   7.159   5.060  0.1309 -0.0115  0.1664
15158W        W31052   8.138  11.623   3.210  0.1417  0.0910 -0.0937
15159W        W31053  12.908   0.138  15.716  0.1349  0.2515 -0.0180
15160W        W31054   0.003   2.165   2.598 -0.0677 -0.0635  0.1472
15161W        W31055   3.294  10.063   4.422 -0.3185 -0.0105  0.1374
15162W        W31056   4.114  17.613  13.720 -0.0643 -0.0007 -0.0443
15163W        W31057   2.077   1.745  16.012  0.0882 -0.0841 -0.2338
15164W        W31058   0.717   7.373  12.380  0.1908  0.1961  0.2339
15165W        W31059  17.204   0.318  12.376  0.1955  0.2224  0.3152
15166W        W31060   8.719   0.442   4.800  0.1245 -0.1529  0.0492
15167W        W31061   8.150  10.533   3.348 -0.0234 -0.0165  0.3925
15168W        W31062   1.802  10.482   1.048 -0.1680  0.1644 -0.0590
15169W        W31063   8.807   7.147  14.165 -0.0339 -0.1168  0.2227
15170W        W31064  15.568   2.810   5.982 -0.1479 -0.3392 -0.0498
15171W        W31065   2.698  11.776  14.984  0.3870  0.0576  0.2163
15172W        W31066  13.770   4.432   2.497  0.0286  0.0108  0.1437
15173W        W31067  14.338  14.095  16.559 -0.0379 -0.0393 -0.0262
15174W        W31068   7.711  15.312  12.472  0.0305  0.0855  0.0356
15175W        W31069   1.768   5.036   5.144  0.1418 -0.2317 -0.2068
15176W        W31070   5.089   0.698   0.459  0.1854 -0.1790  0.0107
15177W        W31071   1.233   6.194  12.379 -0.3340 -0.2329 -0.2734
15178W        W31072   3.640   5.358  12.788  0.1235  0.0953 -0.0290
15179W        W31073   1.329   5.629   0.518  0.1232  0.2306  0.0534
15180W        W31074   4.013  13.072  13.816 -0.0222  0.0541  0.1694
15181W        W31075  16.512   3.811  13.152  0.0625 -0.0507  0.1658
15182W        W31076  10.023   9.031   2.326  0.0869  0.0776  0.0069
15183W        W31077  12.755  17.552  14.231  0.0080 -0.1197 -0.1685
15184W        W31078  13.350   5.261  14.887 -0.0072  0.0227  0.2296
15185W        W31079   8.843  15.538   4.361 -0.1661  0.0704 -0.1897
15186W        W31080  10.596  10.267   0.007  0.1156  0.1322  0.0468
15187W        W31081  16.674  12.815  13.802 -0.2439 -0.1492  0.2216
15188W        W31082   4.527   2.188  15.570 -0.1908  0.1150  0.0944
15189W        W31083   7.952  14.991  11.781 -0.0621  0.0667 -0.0588
15190W        W31084  16.908   3.092  11.861  0.2347 -0.0335 -0.1140
15191W        W31085   6.434  12.752  11.579 -0.2034  0.2600 -0.0181
15192W        W31086  15.417  10.436  13.858  0.0803 -0.1195 -0.0033
15193W        W31087   6.593  13.620  13.478 -0.2390 -0.1380  0.0115
15194W        W31088  17.761   2.218  12.232  0.0480  0.0266  0.3772
15195W        W31089   3.125   2.009   0.283 -0.3323  0.0500 -0.2080
15196W        W31090   5.739   0.517  13.588 -0.0351 -0.0765 -0.0778
15197W        W31091  16.738  15.456  14.038 -0.1912 -0.0021 -0.0842
15198W        W31092   6.904   2.593  15.842 -0.2704 -0.0448 -0.2986
15199W        W31093   1.961   2.975  11.302 -0.2610  0.0287  0.0601
15200W        W31094   2.881   7.044  16.109 -0.0682  0.2399 -0.2169
15201W        W31095   6.339  10.723  15.947  0.1453  0.0678 -0.0659
15202W        W31096  10.771   2.640  15.660 -0.0540 -0.0570  0.1138
15203W        W31097   4.991  10.763  12.365 -0.1742  0.2385 -0.1863
15204W        W31098   5.161   1.405  13.297 -0.1504 -0.0033 -0.0735
15205W        W31099   1.308  12.152   2.149 -0.1054  0.0436 -0.0820
15206W        W31100   1.305   3.516  15.953  0.0590  0.2214  0.0371
15207W        W31101  13.029  12.955   5.326 -0.3608 -0.5479 -0.0520
15208W        W31102  11.060   1.478   5.292  0.2911  0.4193  0.1109
15209W        W31103  16.036   0.964  13.450  0.0612  0.0424 -0.1522
15210W        W31104   5.785  12.501   4.412 -0.0055  0.1182 -0.0881
15211W        W31105   2.665  14.820  15.766  0.0297 -0.4449 -0.2024
15212W        W31106  12.223  11.917   4.695 -0.2132 -0.1473 -0.1374
15213W        W31107  16.121   5.793   1.702 -0.3957  0.3741 -0.2521
15214W        W31108  14.970  14.901  12.645  0.1158 -0.0479  0.0437
15215W        W31109   5.550  16.592   4.704 -0.1250 -0.0121  0.1598
15216W        W31110   8.344  17.047   2.247 -0.0967 -0.2269  0.4067
15217W        W31111  14.124  16.810  12.540 -0.0758 -0.0593  0.1269
15218W        W31112  11.400  16.283  13.460 -0.1467  0.0551 -0.2267
15219W        W31113  11.276  13.725  14.683 -0.0081 -0.0770 -0.1445
15220W        W31114   7.592   6.995   4.875  0.0772  0.0175  0.0209
15221W        W31115   7.185   6.772   4.673  0.2543 -0.0378 -0.1209
15222W        W31116  14.781  15.977  15.432 -0.2089  0.1766  0.0536
15223W        W31117   9.915  10.346   4.503 -0.1451  0.0334 -0.3090
15224W        W31118  13.630   1.635  12.967 -0.0386  0.3238  0.2533
15225W        W31119  16.341  10.537  14.893  0.1087 -0.0484  0.3057
15226W        W31120  12.433  17.808   2.857  0.0991  0.0286 -0.1175
15227W        W31121   0.412  14.539   2.049  0.3124 -0.0517  0.0882
15228W        W31122   1.814   0.415   1.711 -0.4140 -0.2810  0.1307
15229W        W31123  15.422  13.195   5.293  0.1265  0.0547  0.2053
15230W        W31124   9.848   4.614  13.543  0.1345 -0.1849 -0.1536
15231W        W31125   7.614  13.747  16.344  0.1755  0.0051 -0.1319
15232W        W31126   7.165   4.300   0.730  0.0663 -0.2256 -0.1799
15233W        W31127  17.518  11.224  15.635 -0.3149 -0.1131 -0.0224
15234W        W31128  17.327   2.081   2.769 -0.1923 -0.4675  0.2099
15235W        W31129  11.951  13.559   0.742 -0.1113  0.1888  0.0291
15236W        W31130  10.682   1.622  11.446  0.1732 -0.0605  0.1383
15237W        W31131  15.645   7.903   5.305  0.1625  0.1323  0.0782
15238W        W31132  13.045  17.255   4.760  0.2542 -0.0615  0.3947
15239W        W31133   3.113   5.098   0.422  0.1634 -0.2157 -0.1004
15240W        W31134   8.056  15.017   3.378 -0.0290  0.2694  0.1600
15241W        W31135  15.884   7.442   5.295  0.0289 -0.2799  0.2098
15242W        W31136  16.867   0.379   4.878 -0.2032 -0.2884 -0.1015
15243W        W31137   3.044  11.691  12.063  0.3329 -0.0419 -0.0635
15244W        W31138   5.091   5.644  12.836  0.0294 -0.1552 -0.1551
15245W        W31139  15.238   3.288  13.423 -0.1665 -0.0742  0.0527
15246W        W31140  10.904  14.466  12.849  0.0706 -0.3492 -0.0491
15247W        W31141   3.901  10.858   3.621 -0.0666 -0.1577  0.0443
15248W        W31142  13.433  13.728   1.003 -0.1485 -0.2717 -0.2711
15249W        W31143  12.159   1.657  13.011  0.0267  0.3563 -0.0090
15250W        W31144   6.217   3.694  14.912 -0.0657  0.1773 -0.0451
15251W        W31145  14.256   3.926  16.366  0.1450 -0.0608  0.0880
15252W        W31146  16.918  13.805   4.784  0.5206 -0.0995  0.0998
15253W        W31147  16.420   3.014  12.991  0.0106  0.1861 -0.0556
15254W        W31148  16.530   3.316  16.306 -0.3680 -0.3113 -0.0768
15255W        W31149   4.715   1.394  16.804 -0.2545 -0.0143 -0.1636
15256W        W31150   5.708   1.016   4.029 -0.2081  0.1151  0.0882
15257W        W31151  16.174   7.560   2.385  0.4110 -0.1309 -0.3202
15258W        W31152   7.472   0.398  12.843  0.1888 -0.1275  0.1057
15259W        W31153  12.036  17.345   4.538 -0.2669  0.1961  0.1115
15260W        W31154  12.065  15.563  15.488 -0.2180  0.0616  0.2511
15261W        W31155   7.592   5.084   6.090  0.0887  0.0890  0.0095
15262W        W31156  12.554   4.905  16.415  0.0028 -0.0751 -0.1026
15263W        W31157   7.291   3.780  12.080 -0.2594  0.3380  0.2856
15264W        W31158   2.522  12.158  13.378  0.2532 -0.4014  0.1833
15265W        W31159   0.956   9.683   0.474 -0.1972  0.0496  0.2465
15266W        W31160  13.482  12.243   5.668 -0.0219 -0.1137  0.0038
15267W        W31161   2.271   2.853   4.930 -0.1484 -0.2648 -0.2701
15268W        W31162   6.391  17.439   3.732 -0.0416 -0.1867 -0.4324
15269W        W31163  14.081   1.109  11.592  0.1875  0.0860 -0.0098
15270W        W31164  15.384  10.081  16.904 -0.0509 -0.0745 -0.2595
15271W        W31165  14.330   1.207   1.577 -0.1594  0.3028 -0.2703
15272W        W31166   8.988   2.746   5.441  0.1225 -0.3773 -0.1492
15273W        W31167   1.104   0.817  14.076  0.2170 -0.0559  0.2037
15274W        W31168   1.252  10.716   5.253 -0.0216 -0.1735 -0.2063
15275W        W31169   8.970  15.041  15.805  0.3930  0.1097  0.1949
15276W        W31170   9.222   0.534   2.876 -0.0508 -0.0053  0.1707
15277W        W31171  15.196  13.922  16.731 -0.0627  0.2569  0.1389
15278W        W31172  11.172   8.003  11.867 -0.1649  0.1026  0.0242
15279W        W31173   5.901   7.454  13.755  0.1756 -0.3580  0.1753
15280W        W31174  13.518   0.475  14.913  0.0734 -0.0419  0.2226
15281W        W31175   2.862   4.854  13.790 -0.3867 -0.1612  0.3209
15282W        W31176  10.340   1.424  14.430 -0.3291  0.0105 -0.4433
15283W        W31177  17.448   1.628   2.993 -0.4000 -0.2197 -0.4240
15284W        W31178   6.851   0.694  13.557 -0.1105 -0.2264 -0.0112
15285W        W31179   4.120  10.895   1.913 -0.1089 -0.1616  0.1310
15286W        W31180  12.434   2.037   4.930  0.0718  0.2488  0.1426
15287W        W31181  16.729   4.703   4.794 -0.0357 -0.2077 -0.0043
15288W        W31182  17.412   3.497  15.950 -0.1355  0.3150  0.0878
15289W        W31183   6.401   8.370  11.418 -0.3768 -0.0042 -0.0028
15290W        W31184   0.425   6.990   4.924  0.0038 -0.1254  0.0679
15291W        W31185  14.422  14.205  15.751 -0.1193  0.2751 -0.3285
15292W        W31186   8.148   8.410   6.533  0.0282  0.2155 -0.0035
15293W        W31187  16.229  13.966  16.428 -0.1199 -0.2318  0.0743
15294W        W31188  16.013   5.870  13.624  0.1682  0.2179 -0.1156
15295W        W31189   5.318  15.858   0.765 -0.0020  0.0037  0.0593
15296W        W31190   2.445   9.545   3.662  0.2134  0.0739  0.1002
15297W        W31191   4.728  13.474  12.787 -0.2159  0.1118 -0.0314
15298W        W31192   3.996   7.836   3.966  0.1648  0.0538 -0.0962
15299W        W31193  12.759   5.227  11.546  0.3069 -0.0340 -0.3450
15300W        W31194   2.140   7.643   1.069  0.0317  0.1349 -0.1118
15301W        W31195   8.533   8.940   3.435 -0.1553 -0.4382 -0.0429
15302W        W31196  15.883   9.082  16.205 -0.1988 -0.0650 -0.0898
15303W        W31197   9.153   8.383   6.704  0.0445  0.0389  0.0798
15304W        W31198   3.606   6.263  13.224  0.2013  0.0510  0.2231
15305W        W31199   1.765   9.007   2.397  0.0656 -0.0897  0.0856
15306W        W31200   1.398   4.732   2.375  0.0564  0.0797 -0.2373
15307W        W31201   5.182   8.731  16.316 -0.2232 -0.1626  0.1369
15308W        W31202   7.176   3.735   2.839  0.2956 -0.1192  0.0004
15309W        W31203   4.151  14.183   0.757 -0.1493 -0.0489 -0.0179
15310W        W31204  17.173   6.122  15.430 -0.1290 -0.0451  0.0440
15311W        W31205  13.380  10.821  16.347 -0.1050 -0.2615  0.2512
15312W        W31206  14.595  16.199   1.154  0.0763  0.3621 -0.2192
15313W        W31207   7.405   6.947   5.809 -0.0521  0.0458  0.0899
15314W        W31208   8.509  10.370   1.531 -0.0064  0.4470  0.0339
15315W        W31209   0.565   2.307  11.130  0.1786 -0.0078  0.1417
15316W        W31210   3.695  16.730   0.816  0.1668  0.0357 -0.3588
15317W        W31211   4.091   6.053  12.087 -0.0145  0.1088 -0.2754
15318W        W31212  10.000  16.477  12.342 -0.0182 -0.3667  0.0822
15319W        W31213  16.817  16.099   0.339 -0.0910 -0.1490 -0.1575
15320W        W31214  15.547  13.576   3.967 -0.0457 -0.3707 -0.2071
15321W        W31215   1.577  11.736  16.407 -0.1113  0.1706  0.1201
15322W        W31216  11.262   7.722  10.985  0.1336 -0.0423 -0.2060
15323W        W31217  13.342  16.175  11.740 -0.3206 -0.0379  0.0509
15324W        W31218  10.628   7.103  13.413 -0.0770  0.0296 -0.0916
15325W        W31219   3.727   8.760   0.595  0.0921  0.0046 -0.0853
15326W        W31220  12.428  14.315   4.544  0.0322 -0.4197 -0.1607
15327W        W31221  17.814   0.230  15.199 -0.0568 -0.0657 -0.0193
15328W        W31222  16.610   1.324   4.599  0.1072  0.3671 -0.0333
15329W        W31223  17.653  15.147   5.411  0.2792  0.1326 -0.0063
15330W        W31224  16.846  15.968  14.933 -0.0409 -0.3224  0.1514
15331W        W31225   3.885  15.858  14.245 -0.0714 -0.0479 -0.1829
15332W        W31226   9.443  11.970   1.704  0.0302 -0.2436 -0.1367
15333W        W31227  16.322   4.158   5.226 -0.0975 -0.2672 -0.0429
15334W        W31228   0.980  16.225  11.891 -0.0925  0.2291 -0.0812
15335W        W31229   9.332  12.339   4.655  0.1458  0.0102 -0.2559
15336W        W31230   7.493   4.180   1.076 -0.1200 -0.2232  0.1146
15337W        W31231  15.485   8.410  12.163 -0.1998 -0.0115  0.0773
15338W        W31232   3.334  10.899   1.485  0.1892  0.1162 -0.1913
15339W        W31233  12.592  15.194   3.323 -0.1633  0.3433  0.0813
15340W        W31234   3.277  16.554   3.161 -0.3276 -0.0967  0.1521
15341W        W31235  12.576  10.687  14.659  0.0607  0.2937 -0.3328
15342W        W31236  10.400   3.810   1.868  0.1587  0.0214 -0.0635
15343W        W31237  10.574   5.289   3.046 -0.1777  0.1921 -0.1045
15344W        W31238   2.723  12.694  14.777  0.1650 -0.1125  0.1659
15345W        W31239   1.733   2.352   0.448  0.1862 -0.0902  0.1635
15346W        W31240  16.474   3.546  14.996  0.1847 -0.1962  0.1799
15347W        W31241   7.340  13.114  15.535 -0.0279  0.0225  0.0200
15348W        W31242  16.386  10.463   6.587 -0.1362  0.0721  0.0242
15349W        W31243  15.158  10.618   1.194  0.0127  0.0880  0.0086
15350W        W31244   8.919   8.072   0.685  0.1777 -0.1616 -0.0775
15351W        W31245  15.931   5.716  13.128 -0.0402  0.3093  0.1442
15352W        W31246  12.905   5.876   4.053  0.0091 -0.0065  0.2485
15353W        W31247  17.670  11.376   2.396  0.1305 -0.0077 -0.0148
15354W        W31248   1.422  13.662  16.179  0.1220 -0.1512 -0.1377
15355W        W31249   6.750   3.808  15.368  0.0305  0.1106  0.2369
15356W        W31250   5.334   8.872   1.022  0.2152 -0.0922 -0.0751
15357W        W31251  16.715   9.839  16.057 -0.0221 -0.1850 -0.0402
15358W        W31252  13.172   4.593   3.733  0.1268  0.0091 -0.2174
15359W        W31253   4.102  15.564   5.479  0.0472 -0.0333  0.3071
15360W        W31254   2.577   6.186  14.163 -0.0606  0.0194  0.0883
15361W        W31255   2.887   2.353   3.852 -0.0550 -0.1815 -0.0467
15362W        W31256   9.583  15.649  15.400 -0.2229 -0.2624  0.0377
15363W        W31257  13.941   3.766   1.182 -0.1470 -0.0618 -0.2927
15364W        W31258  12.263  11.922  15.105 -0.0351  0.0783 -0.0342
15365W        W31259   2.878   4.598  12.392 -0.2399 -0.0002  0.3831
15366W        W31260  16.762   8.446   0.723  0.0579 -0.0642  0.0920
15367W        W31261   2.351   9.283  13.854  0.0431  0.0878 -0.0408
15368W        W31262   6.501  15.343  14.746  0.1051 -0.0675  0.3258
15369W        W31263  13.845  13.744  11.815  0.3043 -0.1304  0.1295
15370W        W31264  11.955  11.999  15.939  0.3539 -0.0624  0.0582
15371W        W31265   1.564   1.332   1.265 -0.0411  0.0873  0.0496
15372W        W31266   4.799  10.915  11.737 -0.1454  0.0309  0.4044
15373W        W31267  12.484   8.565   3.410  0.1236  0.2132  0.0006
15374W        W31268  15.649   9.152   5.411 -0.0416 -0.0454  0.0177
15375W        W31269   3.556   4.110   3.355 -0.1648  0.0495 -0.1480
15376W        W31270   7.193   3.994  14.769  0.3301 -0.2802 -0.1129
15377W        W31271   2.330  15.693   4.360 -0.3064 -0.0044  0.2061
15378W        W31272   1.143   1.683  16.158 -0.1840 -0.2929 -0.3926
15379W        W31273   8.772   2.365  12.610 -0.1417  0.2005 -0.0251
15380W        W31274   5.062  11.302   3.333 -0.0923  0.2290 -0.2175
15381W        W31275   2.308  16.882   0.716  0.1962  0.0228  0.1516
15382W        W31276   4.443  16.078   4.098  0.0800  0.3620  0.0691
15383W        W31277   1.623  11.692   2.203 -0.0299  0.1552  0.1224
15384W        W31278  17.636  15.203  12.062  0.2987 -0.1927 -0.1198
15385W        W31279  13.289   8.821   0.262  0.1290  0.1899 -0.3121
15386W        W31280  12.313   4.253  11.798 -0.2901 -0.2580 -0.1104
15387W        W31281   9.354  11.975  14.234 -0.0503 -0.0607  0.0882
15388W        W31282   8.073  13.601  14.440 -0.0219 -0.0560 -0.2647
15389W        W31283  11.254  12.072  12.036  0.2780 -0.2872  0.2426
15390W        W31284   2.626   0.443  14.999  0.0269  0.2351 -0.0245
15391W        W31285  17.359  11.905   1.384  0.1262  0.1037  0.2022
15392W        W31286   9.081   4.403  16.555  0.1246 -0.0637  0.1644
15393W        W31287   1.166   5.897   6.273 -0.1952 -0.3240 -0.2961
15394W        W31288   3.222   7.127  13.056 -0.4504  0.2480  0.0826
15395W        W31289   7.827   4.160   5.818 -0.3700 -0.1069 -0.1592
15396W        W31290  15.123   1.868   4.698 -0.4654 -0.0758  0.0414
15397W        W31291  14.345   2.465   2.320  0.0030 -0.1204 -0.2133
15398W        W31292  10.725   9.780   0.225 -0.3809 -0.3478 -0.0072
15399W        W31293  15.587   2.448  13.192  0.4328  0.0698 -0.2499
15400W        W31294  16.991  14.634  13.049 -0.2061  0.1996  0.0268
15401W        W31295  14.180  16.925  12.039 -0.1858  0.1146 -0.1271
15402W        W31296  12.626   2.364   5.824  0.0060 -0.1207  0.0009
15403W        W31297  14.511   0.100   2.907 -0.1083 -0.3684 -0.2208
15404W        W31298  12.022   4.068   1.460 -0.0294  0.0558 -0.0601
15405W        W31299   6.073   8.778   0.473 -0.2071  0.2468  0.1027
15406W        W31300   9.524   9.280  11.947 -0.3346 -0.0422 -0.1928
15407W        W31301   4.036   2.000  14.897  0.3156  0.0614  0.1159
15408W        W31302  10.587  14.596   5.612  0.0955 -0.0203 -0.1507
15409W        W31303   8.635   5.351   2.844  0.1128  0.1631  0.5326
15410W        W31304  16.671   4.166   3.125  0.1398  0.0518  0.0388
15411W        W31305   3.646  16.489   1.250  0.2435 -0.2772  0.0565
15412W        W31306  15.475   7.922   4.789 -0.1535 -0.0282 -0.0814
15413W        W31307   0.359   1.344   2.713  0.1163 -0.0878 -0.0572
15414W        W31308   7.719  17.287   5.044 -0.0095 -0.1878  0.0306
15415W        W31309  16.988  13.896   3.283 -0.1704  0.0605  0.0541
15416W        W31310   0.701   3.145  14.242  0.1228 -0.0583  0.0196
15417W        W31311  16.927   2.164  14.749  0.2168  0.0439 -0.0344
15418W        W31312   6.288   0.003  15.701 -0.1020 -0.1972  0.2175
15419W        W31313  13.947   2.431  16.286  0.0052  0.3136 -0.0802
15420W        W31314   4.304   8.345  16.368  0.1512  0.2200 -0.2026
15421W        W31315   5.429  16.195   5.752  0.0985  0.0833  0.0209
15422W        W31316   7.752  12.834  14.718  0.2346 -0.1556 -0.0141
15423W        W31317  16.671  14.264   3.963 -0.0823 -0.2861  0.2455
15424W        W31318  16.751   4.163  13.458 -0.0272  0.0722  0.1587
15425W        W31319  17.420   4.948  16.112  0.0637 -0.2022  0.0006
15426W        W31320  10.736   8.008  13.806  0.2871 -0.0407  0.0050
15427W        W31321   6.438  14.085  14.417  0.5609  0.1244 -0.0130
15428W        W31322  14.871   5.156   2.006  0.0740 -0.0185  0.1530
15429W        W31323  10.959  12.881  13.686  0.1347  0.0956 -0.3710
15430W        W31324  10.909  15.847   4.230 -0.0705 -0.1918  0.3450
15431W        W31325  14.655  11.294  13.820 -0.0313 -0.2262 -0.0987
15432W        W31326   8.291   9.821   3.977  0.3520  0.0396 -0.0210
15433W        W31327   0.261  14.716   0.395 -0.0222 -0.0969  0.0098
15434W        W31328  15.482   6.537  16.733  0.0877 -0.0577  0.1189
15435W        W31329  12.695  17.175  15.106  0.2257  0.0078  0.0061
15436W        W31330  12.599   0.298   4.575  0.1110 -0.1485 -0.2625
15437W        W31331  10.840   2.512  10.776 -0.0668 -0.1161  0.0920
15438W        W31332   6.142   1.819  11.497  0.0751  0.1750 -0.2574
15439W        W31333  10.713  17.546   4.262 -0.1937 -0.1513 -0.3379
15440W        W31334   3.109   8.383   5.506  0.2634  0.2254 -0.0120
15441W        W31335  14.272  13.282   2.688  0.0641 -0.0031 -0.3178
15442W        W31336  10.964   4.461   1.887 -0.3500  0.2757  0.1393
15443W        W31337  17.548  14.862   2.614 -0.3155 -0.2422 -0.0427
15444W        W31338   3.034   0.483   1.076 -0.2603  0.0381  0.1492
15445W        W31339   5.518   2.819  16.803  0.0777 -0.2544  0.0659
15446W        W31340   4.125  15.880   6.334  0.1503  0.0357  0.1045
15447W        W31341   6.934   8.815  12.652  0.1003 -0.0824  0.0643
15448W        W31342  16.154   9.968   1.470  0.0689 -0.1707 -0.1043
15449W        W31343   0.847   1.197  11.978 -0.0950 -0.3621 -0.0562
15450W        W31344   4.180  11.690   5.837  0.1931  0.2075 -0.3135
15451W        W31345   0.460  16.749  15.657 -0.0850  0.1998  0.2037
15452W        W31346   0.585   1.349   1.224 -0.0133  0.1791  0.2615
15453W        W31347   5.624  15.358  14.842  0.4762  0.0682 -0.1700
15454W        W31348  10.679  11.524  11.771 -0.2395  0.0277  0.0232
15455W        W31349   2.592   9.047  12.166 -0.1126  0.0964  0.3908
15456W        W31350  17.842   4.661  11.843 -0.1749 -0.0433  0.2105
15457W        W31351   0.924   5.381  12.877 -0.0314  0.6274 -0.0461
15458W        W31352   4.529  16.139   2.302  0.0902  0.0195  0.0047
15459W        W31353  15.813   0.917  10.079 -0.0490 -0.0567  0.0576
15460W        W31354   9.282  14.813  12.633  0.2007 -0.1577  0.1473
15461W        W31355   2.645  10.762   2.280  0.0309  0.2198 -0.4120
15462W        W31356  14.245  11.146   0.434  0.0881 -0.1889 -0.1129
15463W        W31357  16.817  12.175   1.463 -0.0547 -0.3620  0.1002
15464W        W31358  16.433   2.291   2.538  0.0412  0.0447  0.2079
15465W        W31359   1.273   1.409  12.636 -0.0572 -0.1937 -0.0135
15466W        W31360   8.641  15.842  14.318 -0.0371 -0.1897  0.0317
15467W        W31361   8.978  11.718  13.465  0.1192  0.0358  0.0529
15468W        W31362   7.019  15.215   5.514  0.0937 -0.3426 -0.0848
15469W        W31363  10.918   1.735   3.490  0.2649  0.1096 -0.0506
15470W        W31364  10.307  12.808   3.636 -0.0052 -0.1712  0.0386
15471W        W31365   0.182  14.404   3.820 -0.2953 -0.0036  0.1378
15472W        W31366   2.144  12.753   0.271 -0.1528  0.0147  0.2845
15473W        W31367  14.099   1.614   4.412  0.3907 -0.0894 -0.2355
15474W        W31368   8.449   8.740  13.933 -0.3864  0.0898  0.1601
15475W        W31369  14.252   1.797   3.179  0.0658  0.2863  0.0942
15476W        W31370   8.676   5.839   2.643  0.3272  0.1173 -0.2825
15477W        W31371   0.994   2.284   1.409  0.0565 -0.0737 -0.0665
15478W        W31372   0.365   2.167  12.104  0.2811 -0.0211 -0.0239
15479W        W31373  14.919  12.834  16.256  0.1143 -0.1847 -0.0054
15480W        W31374  14.802  13.317   5.701 -0.0319  0.1708 -0.0245
15481W        W31375  14.344   5.830  13.518 -0.0007  0.0767  0.2935
15482W        W31376   1.885   7.462   2.453  0.0102  0.1641  0.1550
15483W        W31377  17.457  16.926   5.011 -0.0920 -0.2135  0.0205
15484W        W31378  10.847   4.657  11.182 -0.1034 -0.2095  0.1406
15485W        W31379   4.656  14.342   4.964  0.2866 -0.1506  0.1289
15486W        W31380   0.877   6.033   5.306  0.0385  0.1178 -0.0751
15487W        W31381   3.368  14.772   0.483  0.0816  0.2445  0.1613
15488W        W31382  12.645   6.559  12.803 -0.0489 -0.1755 -0.1962
15489W        W31383  14.076  11.735   0.313  0.1335 -0.0124  0.0817
15490W        W31384  16.097   0.850  14.457  0.0191  0.1730  0.0870
15491W        W31385   2.195   9.732  14.515  0.2427 -0.2253  0.0648
15492W        W31386   3.877  16.281   2.621  0.2491 -0.2610 -0.1180
15493W        W31387   1.188   0.775   2.749 -0.1497  0.0412 -0.0438
15494W        W31388   3.189   7.408   3.654  0.0322  0.1276 -0.1108
15495W        W31389   2.481   8.125   1.785 -0.2370 -0.2521 -0.0702
15496W        W31390  15.094   6.763  12.435  0.0616  0.0174 -0.1091
15497W        W31391   8.803  11.870   2.221  0.1149  0.0386 -0.0225
15498W        W31392   3.907   9.717   2.402  0.0737  0.0232  0.3364
15499W        W31393   6.922  11.123  13.846 -0.0482  0.2378 -0.3738
15500W        W31394  10.682  15.472   4.553 -0.0061 -0.0875  0.3236
15501W        W31395  11.705  15.513   0.139  0.0070  0.2286  0.0899
15502W        W31396   4.365  15.383  12.610  0.0628 -0.0740  0.1170
15503W        W31397  15.962  12.429  13.303  0.1639  0.0887  0.0666
15504W        W31398  11.808  13.875  11.928  0.0109  0.4142 -0.1689
15505W        W31399   5.419   7.267  16.495 -0.0205  0.0133  0.0988
15506W        W31400   4.508  17.329  16.658 -0.2406 -0.0455  0.0981
15507W        W31401  12.289  13.103   3.855  0.0936 -0.1522 -0.0964
15508W        W31402  12.133   3.462  13.484 -0.0012  0.0749  0.1240
15509W        W31403   9.398   2.072  13.818 -0.1674  0.3349  0.0508
15510W        W31404  15.106   0.008  12.150 -0.0856 -0.2649  0.1399
15511W        W31405   1.996   0.114  15.649  0.0228 -0.1474  0.0422
15512W        W31406  12.394  13.848  16.453  0.0156 -0.1022  0.0657
15513W        W31407   0.899  13.759   3.563  0.1861  0.0357  0.1724
15514W        W31408   7.151  12.067   1.208  0.2186  0.1928  0.0066
15515W        W31409  10.857   8.651   1.287 -0.1030  0.1551  0.1338
15516W        W31410  15.801   5.647   2.680  0.0117 -0.1108 -0.1074
15517W        W31411   3.756  12.330   2.221  0.0189 -0.0824 -0.0713
15518W        W31412   7.957   8.555   1.165 -0.0480 -0.1485 -0.0274
15519W        W31413  13.625   0.129   2.474 -0.2588 -0.1069  0.1617
15520W        W31414  10.479   7.278   3.377  0.1206  0.2603 -0.3006
15521W        W31415  14.557   7.204  15.188  0.0196  0.0581  0.0292
15522W        W31416  10.594   8.860  13.861  0.0381 -0.1120 -0.1187
15523W        W31417   1.768  12.010   4.350  0.0369 -0.0729 -0.2586
15524W        W31418   1.504   5.206   3.430 -0.2633  0.1244 -0.0359
15525W        W31419   4.327   6.084   4.362  0.1624 -0.0217  0.2009
15526W        W31420   5.188  14.342  16.321  0.3690 -0.0356  0.0622
15527W        W31421  17.367   0.683  12.113  0.0088  0.2419 -0.0912
15528W        W31422   0.975  12.720   3.987 -0.0136  0.1046  0.0221
15529W        W31423   5.097   6.549   3.787  0.0175  0.2159  0.0756
15530W        W31424   4.919   1.883  15.339 -0.2298  0.0173 -0.0694
15531W        W31425  12.267  16.230  12.014 -0.0228 -0.0924  0.0720
15532W        W31426   5.879   6.341   6.225  0.0857  0.1798 -0.1702
15533W        W31427   6.741  14.534  14.465  0.1765  0.1840  0.1134
15534W        W31428   5.020   2.267  12.564 -0.4367 -0.3649  0.3789
15535W        W31429  14.757  10.358  16.013 -0.0003  0.1471  0.2937
15536W        W31430  10.960   0.525   3.694  0.0679 -0.0341  0.1127
15537W        W31431   5.626  15.916   4.126  0.0302  0.2545  0.2355
15538W        W31432  14.672   9.917   1.192 -0.0314 -0.0709  0.2968
15539W        W31433  11.067   2.623   3.792  0.1459 -0.0866  0.0042
15540W        W31434   5.177  10.015  10.757 -0.1825 -0.0291  0.1316
15541W        W31435   1.393   8.879   3.579 -0.3624 -0.2473 -0.1129
15542W        W31436  17.246  10.620  14.577  0.0842  0.0969  0.0858
15543W        W31437  10.136   2.779   0.701 -0.1193 -0.0362  0.0378
15544W        W31438   2.968  17.019  13.838 -0.2837 -0.6227 -0.2343
15545W        W31439  14.399   8.362   5.232  0.1090  0.2661 -0.1058
15546W        W31440   6.596  12.248   4.022  0.1703 -0.4025  0.1046
15547W        W31441  13.914  10.308   2.748 -0.2009 -0.1695  0.2211
15548W        W31442  15.523   5.842  14.210 -0.2696 -0.0435  0.1504
15549W        W31443  16.206  15.805   2.902  0.0795 -0.3971 -0.1314
15550W        W31444   7.093   3.538  13.914  0.0613  0.1695 -0.0052
15551W        W31445  16.117  16.405  16.633 -0.1887 -0.2558  0.0937
15552W        W31446  15.696   7.254   0.427  0.2200 -0.2968 -0.1433
15553W        W31447   6.414   2.285  12.423 -0.1308  0.0228  0.1292
15554W        W31448  12.114   0.638  16.854  0.0087  0.2830 -0.3484
15555W        W31449  15.830   4.071   0.834  0.1322  0.1081  0.0673
15556W        W31450  14.709  10.409   2.382 -0.1268 -0.1045  0.0035
15557W        W31451   9.231  17.569   1.148  0.0226  0.4177  0.0806
15558W        W31452   6.174  13.265   4.467  0.1162  0.0449 -0.2124
15559W        W31453  15.857  12.422  14.621 -0.0419  0.0728  0.2097
15560W        W31454   4.691  15.874   3.725 -0.1259 -0.0053 -0.0993
15561W        W31455  13.913   0.278  12.578  0.1318  0.0533 -0.1692
15562W        W31456   9.217   0.502   5.606  0.0144  0.0346 -0.0119
15563W        W31457   5.137   8.285   5.032  0.0272  0.2820 -0.0388
15564W        W31458   9.843  12.038   4.644  0.0048  0.2291 -0.1199
15565W        W31459  11.249   9.598   5.419  0.1114  0.0754 -0.0345
15566W        W31460  12.097   1.302   3.545 -0.1942 -0.1021  0.0469
15567W        W31461   3.182  12.365   2.727  0.0549 -0.0403 -0.0766
15568W        W31462  12.253   8.535   2.928  0.2398  0.1100  0.0685
15569W        W31463  13.610   0.557   1.742 -0.0614  0.0131 -0.0080
15570W        W31464   6.927   7.766  15.459  0.1860 -0.4103  0.2086
15571W        W31465   8.554  14.914  14.187  0.0714 -0.0660 -0.2200
15572W        W31466   8.144   3.698   0.203  0.1998  0.0813  0.0363
15573W        W31467  13.633   0.285  16.509  0.1461  0.2056  0.1367
15574W        W31468   3.010   9.219  15.809  0.0209  0.1529  0.0603
15575W        W31469   4.278  15.373  12.092  0.3538  0.3116  0.0747
15576W        W31470   2.403  14.938  13.835  0.1270  0.1516 -0.0511
15577W        W31471   4.105  13.365   4.111  0.0341  0.0652  0.3500
15578W        W31472   2.026   1.711  11.958 -0.2300 -0.1406  0.2095
15579W        W31473   4.826  16.350   3.944 -0.0494 -0.2196 -0.0140
15580W        W31474   9.141   8.672   0.435 -0.2498 -0.0121  0.3748
15581W        W31475   1.805   7.267   5.753 -0.2931  0.1612  0.3378
15582W        W31476  13.832   5.700  15.356  0.0110  0.2311  0.1320
15583W        W31477   2.500  10.396   5.622  0.0596  0.0456 -0.0851
15584W        W31478  17.439   4.012   1.259  0.3239  0.5527  0.3651
15585W        W31479  16.362   7.872   1.754  0.4478 -0.0280 -0.1108
15586W        W31480   7.038   9.532   4.897 -0.0136 -0.4691  0.1559
15587W        W31481   0.979   4.329  15.659 -0.0441 -0.1193 -0.0917
15588W        W31482  17.177  10.748  13.229  0.1155  0.0097  0.2360
15589W        W31483   8.172  11.297   0.402 -0.1082  0.0725 -0.0245
15590W        W31484  15.881  16.111   3.633  0.1816  0.1247  0.0657
15591W        W31485  12.583   9.485   2.821  0.3438 -0.0148  0.2098
15592W        W31486  10.569   0.593  14.796  0.1556  0.1654 -0.1929
15593W        W31487  11.477  11.334  14.868  0.3220  0.0162 -0.0719
15594W        W31488  14.830  11.020   1.236  0.1621  0.2303  0.1447
15595W        W31489   7.850   3.457  12.749  0.2573 -0.2348  0.0557
15596W        W31490   2.024   9.686   2.062  0.0630 -0.0982 -0.1275
15597W        W31491   8.615  17.351  15.713  0.0773 -0.0896  0.0502
15598W        W31492   8.272  14.459   4.835 -0.1588  0.0774 -0.2793
15599W        W31493   3.544   3.287   2.027 -0.0876 -0.4645  0.0487
15600W        W31494  16.508   1.699  14.060 -0.2364  0.0833  0.0567
15601W        W31495   0.081   4.428   5.020  0.0653 -0.2735 -0.0740
15602W        W31496  16.400  16.312  13.819  0.3911 -0.1653 -0.1222
15603W        W31497   7.275   6.270   3.674  0.1967 -0.1015 -0.1123
15604W        W31498   8.465   9.994  13.526 -0.0304  0.0570  0.0050
15605W        W31499   2.518  16.832   1.584 -0.0106  0.0711  0.0455
15606W        W31500  14.330   3.855  12.160 -0.1443 -0.1931 -0.1052
15607W        W31501  10.062   2.468  16.240  0.1050  0.2542 -0.3605
15608W        W31502   7.294   1.741   0.663  0.2277 -0.2385 -0.0531
15609W        W31503   7.894  13.140   0.484  0.1136  0.0279  0.1842
15610W        W31504  11.736  14.093  15.920  0.3204 -0.0294  0.4432
15611W        W31505   2.024   2.195  11.263  0.2071  0.0192 -0.0782
15612W        W31506   5.601  16.419  14.690  0.1805  0.0560 -0.0535
15613W        W31507  11.688   5.678  14.430  0.1351 -0.0559  0.2144
15614W        W31508   1.445  13.927   5.723 -0.1732 -0.1149  0.0395
15615W        W31509   3.530   8.740  15.209  0.1009 -0.3309 -0.2189
15616W        W31510  16.434   9.429   0.010  0.2191 -0.1724 -0.0953
15617W        W31511  12.367   1.061   5.072  0.1493  0.2604  0.4041
15618W        W31512   5.758  14.999  16.412  0.1554  0.0894  0.2145
15619W        W31513  16.462  11.573   1.814  0.1471 -0.0628 -0.0658
15620W        W31514   1.256  14.919  15.879  0.2488 -0.0474 -0.2298
15621W        W31515   9.622  15.797  14.352  0.0416 -0.3727 -0.1352
15622W        W31516   3.360   3.076  14.415  0.1094  0.1533  0.1645
15623W        W31517  17.827  12.064   4.874  0.1381 -0.0101  0.0189
15624W        W31518   4.876   1.357   2.410  0.0578 -0.1834 -0.3078
15625W        W31519   1.445   0.674  14.385  0.1040  0.3949  0.0117
15626W        W31520  15.088  11.582  15.907  0.0635  0.0493  0.3634
15627W        W31521  17.427   7.184  12.210 -0.1956  0.1214 -0.1992
15628W        W31522   1.189   2.540   4.180 -0.2255  0.0085  0.0221
15629W        W31523   0.613   7.958  14.416  0.0030  0.3571  0.0057
15630W        W31524   5.661   0.181   2.933 -0.2081  0.0183 -0.2140
15631W        W31525  10.228   5.402   1.275 -0.1761 -0.0634 -0.0983
15632W        W31526   3.132   0.095   4.504 -0.0311 -0.0651 -0.0738
15633W        W31527   6.500   0.626  13.078  0.1734 -0.0280  0.1847
15634W        W31528   3.840  11.305   5.607 -0.0025 -0.2470 -0.0951
15635W        W31529   8.475   9.062  11.681  0.0113  0.2045 -0.2643
15636W        W31530   1.654  14.048  12.383 -0.1135 -0.0548  0.4736
15637W        W31531  17.410  14.128   4.965  0.1054 -0.0163 -0.3815
15638W        W31532   1.855  14.824  13.574  0.0324 -0.0311  0.2793
15639W        W31533  11.158  13.081   6.217 -0.3308  0.2905 -0.1958
15640W        W31534   6.859  10.874  16.823 -0.0594  0.0839 -0.0109
15641W        W31535  14.281   2.555   1.287 -0.2036  0.1908  0.3412
15642W        W31536  12.792  14.320  11.876 -0.0407  0.2154  0.0274
15643W        W31537  16.895   1.102   5.356  0.1009  0.2101 -0.1582
15644W        W31538  17.327   6.182   5.096  0.2098 -0.2523  0.0870
15645W        W31539  14.173  14.417   3.022  0.0516 -0.0151 -0.1389
15646W        W31540   7.248  16.517   1.546 -0.0736 -0.2659 -0.0365
15647W        W31541   2.335   4.710   1.364  0.0742  0.0036  0.1884
15648W        W31542   1.187  11.280   5.333 -0.0285  0.3467 -0.0985
15649W        W31543   5.260  11.294  13.147 -0.0048 -0.0931 -0.0292
15650W        W31544  17.738  11.249   4.795 -0.2105 -0.0788 -0.0650
15651W        W31545   0.426  11.909   3.298 -0.0961 -0.0148  0.2824
15652W        W31546   3.432   2.768  13.530 -0.1740  0.1385 -0.0442
15653W        W31547   7.527   7.618   1.877  0.0189 -0.3910 -0.1791
15654W        W31548  13.335   4.763  15.170  0.1597 -0.0985  0.0912
15655W        W31549   1.745   9.046  13.873 -0.0086  0.2872  0.0096
15656W        W31550   9.271   8.828  14.297  0.2363 -0.2131 -0.1137
15657W        W31551  12.219   4.184   2.678 -0.1374  0.0170 -0.0463
15658W        W31552  12.216   1.721  14.831 -0.3255  0.0043  0.1707
15659W        W31553  16.799   4.156  16.404 -0.2174  0.0481 -0.0402
15660W        W31554   7.819  10.814  16.832 -0.0920  0.4503  0.0733
15661W        W31555  13.187   4.570   4.288 -0.1005  0.0707  0.3187
15662W        W31556   4.492   0.835   3.210  0.2308 -0.3973  0.0937
15663W        W31557   3.591   3.437   0.553 -0.1157 -0.2225  0.1881
15664W        W31558   1.668   1.546  14.012  0.2607 -0.1507  0.2504
15665W        W31559   1.367   2.883  14.166 -0.0264  0.3729  0.0005
15666W        W31560   9.495  10.678   3.252  0.2437  0.0449 -0.1932
15667W        W31561  13.260  11.995  15.461  0.1683  0.0064  0.0043
15668W        W31562   4.713   3.553   4.511  0.0381 -0.1391 -0.3204
15669W        W31563   1.599  14.268   4.941 -0.1990 -0.1552  0.0210
15670W        W31564   5.730   4.806   4.829 -0.0898  0.0423 -0.0312
15671W        W31565   7.842  10.939   3.044 -0.0044  0.2202  0.1874
15672W        W31566  11.510   8.688  12.999 -0.0301  0.0733 -0.0910
15673W        W31567   4.663   8.804  14.068 -0.0062 -0.1976 -0.1286
15674W        W31568   8.369   6.202  14.466 -0.1675  0.1856  0.0378
15675W        W31569   7.635   8.165   5.899 -0.1824 -0.1046  0.0141
15676W        W31570  15.298   4.808  12.431  0.0002 -0.1504  0.0637
15677W        W31571  17.466  12.911  16.308  0.4428  0.2884  0.0962
15678W        W31572   4.838  14.366   5.929 -0.0368 -0.1871 -0.1425
15679W        W31573   4.516   8.565  14.560  0.1689  0.0388 -0.2085
15680W        W31574   5.117  13.444   5.696 -0.1243  0.0050  0.0126
15681W        W31575   9.645   3.482  14.726 -0.1748  0.1825  0.0039
15682W        W31576   5.349   5.542   0.207 -0.0957 -0.0233 -0.0844
15683W        W31577   8.365  14.691  15.166  0.0097 -0.3371 -0.0582
15684W        W31578  11.703   5.024  13.697 -0.2282  0.1454 -0.1189
15685W        W31579   2.272   7.765  16.398 -0.1527  0.1612 -0.3597
15686W        W31580  11.963   1.092  14.194  0.0962  0.2825 -0.2994
15687W        W31581  12.319   8.697  13.163  0.2029 -0.1783  0.1270
15688W        W31582   6.152  17.583  15.231  0.3320 -0.4299 -0.0642
15689W        W31583   4.686   0.712  12.765  0.0393  0.0969 -0.0771
15690W        W31584  11.152  16.251  13.042 -0.3151  0.2533 -0.0606
15691W        W31585  11.676   1.014  12.979 -0.4712 -0.0535 -0.1994
15692W        W31586  13.739  13.857   3.921  0.4240  0.3492 -0.1696
15693W        W31587   7.663  12.371   5.083  0.1026 -0.0681  0.2757
15694W        W31588   1.243   3.528   3.714 -0.0986  0.2503  0.1478
15695W        W31589  15.358   5.499  12.472 -0.3054 -0.1623 -0.1762
15696W        W31590   5.436   0.036   1.850  0.2160  0.0802 -0.0110
15697W        W31591  12.899   5.981  13.782 -0.1074 -0.0579 -0.2560
15698W        W31592   2.744  14.297   5.332 -0.1810 -0.0847  0.0343
15699W        W31593   9.006  11.692  15.006  0.0914 -0.2245  0.4256
15700W        W31594   1.277   2.332   5.898 -0.1483 -0.0881  0.1727
15701W        W31595   2.483  13.490  11.931 -0.0385  0.0489 -0.3882
15702W        W31596  12.992   4.722   5.212  0.2522  0.0495 -0.1860
15703W        W31597   1.338  10.856   3.460  0.1441  0.0239  0.1420
15704W        W31598   9.276   6.991  16.334  0.1343  0.2176 -0.1191
15705W        W31599  16.775  11.176   1.851  0.2661  0.0479  0.0125
15706W        W31600  11.208  11.308  13.331  0.0949  0.0419 -0.0216
15707W        W31601   1.473   1.079  14.768 -0.3099  0.0507  0.1730
15708W        W31602   0.361   7.043   1.204  0.0340  0.0296  0.3606
15709W        W31603  15.571   3.687   1.567  0.1789  0.3121  0.3431
15710W        W31604   5.873   5.971   5.806  0.1380  0.1763 -0.0685
15711W        W31605   3.713  15.589   1.236 -0.0873 -0.1222  0.0262
15712W        W31606   9.989   6.023  16.124  0.0144 -0.0999 -0.1501
15713W        W31607   6.652  13.277   3.153 -0.0357 -0.1200  0.0858
15714W        W31608   0.063  17.787   2.527 -0.1737  0.1154  0.0110
15715W        W31609  13.777   5.557   4.968  0.0231 -0.3891 -0.1614
15716W        W31610   6.393  11.048   1.369  0.0198 -0.0369  0.0651
15717W        W31611  10.479   5.968  13.219  0.0853  0.3164  0.0409
15718W        W31612   2.097   1.213  11.801 -0.2281  0.0897 -0.1179
15719W        W31613  14.744  14.913   1.673 -0.0045 -0.0783 -0.3914
15720W        W31614   1.419   7.708  13.626 -0.0165  0.0550  0.0498
15721W        W31615  14.814  16.466  13.794 -0.2156  0.0082  0.2874
15722W        W31616  13.669   1.883  14.236 -0.1916  0.0216  0.2803
15723W        W31617   1.485   6.761  13.322 -0.1040 -0.1241  0.1664
15724W        W31618   3.841  10.268  12.924  0.3311  0.0969 -0.0217
15725W        W31619   4.762   7.148   4.422  0.2089 -0.2471  0.0417
15726W        W31620  14.813  15.968   3.991  0.0890  0.0663  0.0469
15727W        W31621   2.093  11.355  13.820 -0.2412 -0.1356  0.1531
15728W        W31622  14.617  13.318   6.148  0.1881  0.0745  0.2604
15729W        W31623  17.823   6.448  14.129 -0.0392  0.0521  0.1632
15730W        W31624   0.498   7.902  16.838  0.2011  0.3096 -0.2093
15731W        W31625   9.960  16.955   3.291  0.1653  0.3899  0.0211
15732W        W31626   9.598   7.592   0.874 -0.1504  0.0438 -0.1227
15733W        W31627  17.067   2.510  13.593 -0.1192  0.1253 -0.0945
15734W        W31628   9.512  11.666   3.155 -0.1661 -0.0961 -0.0336
15735W        W31629   5.437   5.521   2.680  0.2285 -0.0767 -0.1624
15736W        W31630  14.150  12.794   5.748 -0.1338  0.0218  0.2272
15737W        W31631   2.124  15.362   2.581 -0.1389 -0.3575  0.0551
15738W        W31632   7.894   4.276   5.348  0.0458  0.3981  0.3283
15739W        W31633  15.997   8.057  12.899  0.1225  0.0593 -0.1275
15740W        W31634   0.357  12.160  14.425  0.0237 -0.0506  0.1947
15741W        W31635   1.244  17.718   4.054  0.1927 -0.1683 -0.1740
15742W        W31636   5.865   7.040   5.434 -0.0288 -0.0767 -0.1177
15743W        W31637   6.789  11.224   0.562 -0.2115  0.2470  0.1329
15744W        W31638   0.557   8.209  14.881  0.2041  0.0152 -0.0880
15745W        W31639   1.717  10.717  12.851 -0.2284  0.0009 -0.0139
15746W        W31640   9.306  15.737   2.032 -0.0119  0.2295  0.1257
15747W        W31641  14.007   8.198  16.053  0.0260  0.1157 -0.1043
15748W        W31642  15.428  14.305   0.036 -0.2288 -0.0660  0.2321
15749W        W31643   6.220   5.816  14.555 -0.2172  0.0094  0.1817
15750W        W31644  11.357   6.616  14.500 -0.1390  0.1795  0.3162
15751W        W31645   7.309  11.750  15.017 -0.1717  0.0347 -0.0244
15752W        W31646   2.185  17.391   4.020  0.2614  0.3270 -0.4688
15753W        W31647   7.943   4.504   4.569 -0.0126 -0.1103  0.2368
15754W        W31648   1.884  17.390   5.012 -0.0574 -0.0929 -0.2706
15755W        W31649  14.811  16.650   2.660 -0.0793 -0.1079 -0.0075
15756W        W31650  15.723   8.220  13.702  0.0450  0.6500 -0.4120
15757W        W31651  17.629  13.628  11.747  0.0533 -0.0423 -0.2037
15758W        W31652   4.050   8.089  13.946 -0.0299 -0.3476  0.2021
15759W        W31653  15.254  15.132   4.129  0.0476  0.1164 -0.0120
15760W        W31654   0.079   5.254  13.188  0.2410 -0.2478  0.1155
15761W        W31655  12.198  17.829  15.083 -0.0361  0.1610  0.2829
15762W        W31656   5.189   6.093   1.923  0.2340  0.1483 -0.1410
15763W        W31657  15.341   4.994   2.876  0.0458 -0.1899 -0.0227
15764W        W31658  12.633  11.951   3.268 -0.0673  0.0242 -0.2364
15765W        W31659   1.951   5.794  16.483  0.0222 -0.0829  0.0669
15766W        W31660   6.934   3.374   1.653 -0.0363 -0.0483  0.0313
15767W        W31661  13.880   6.700  15.292  0.3381 -0.3113 -0.0188
15768W        W31662   8.878   5.376   0.343  0.4196  0.0258 -0.0806
15769W        W31663   9.045   4.724   2.487 -0.0121 -0.1954  0.2586
15770W        W31664  10.249  16.688  16.214 -0.4126  0.1138 -0.0557
15771W        W31665  15.754   3.646   2.368 -0.0614 -0.0731  0.0231
15772W        W31666  17.615   5.801  15.754 -0.0033 -0.1209  0.3232
15773W        W31667   8.195   6.785  13.588 -0.1426 -0.0286  0.2441
15774W        W31668   3.108   3.807  14.675  0.4241 -0.4844  0.0632
15775W        W31669  16.195  17.411  11.445 -0.1203  0.0059  0.1058
15776W        W31670  11.924   7.829   4.971 -0.0265  0.1110 -0.5021
15777W        W31671   2.406   6.005  15.103  0.1094  0.1261  0.0972
15778W        W31672   9.564   7.444   1.843  0.3822  0.1155 -0.0082
15779W        W31673   9.401  17.215   0.034  0.1912  0.0458  0.2925
15780W        W31674  14.962  13.426   4.056  0.2642  0.2064 -0.0231
15781W        W31675  14.220   2.382   3.162  0.0475  0.0551  0.2117
15782W        W31676   3.415  17.679   0.699 -0.0096  0.4677 -0.0764
15783W        W31677   3.213  11.681   4.585 -0.0033 -0.3883  0.2657
15784W        W31678   0.917   4.685  14.663 -0.1511  0.0131  0.1000
15785W        W31679   3.770  17.402  16.344  0.3323  0.0344 -0.2062
15786W        W31680   4.485   7.591   1.480 -0.0238 -0.0378  0.1492
15787W        W31681  11.505   6.802  13.559 -0.3487  0.0569 -0.1366
15788W        W31682   8.559  16.635   1.898  0.1503 -0.4565  0.0501
15789W        W31683   6.551   0.989  13.961  0.1935 -0.1161 -0.0277
15790W        W31684   8.352  12.314   0.030  0.3153  0.1067 -0.2770
15791W        W31685  10.053   6.403   5.082  0.1891 -0.0373  0.0078
15792W        W31686  12.808   2.813  11.480  0.1014  0.0585  0.3387
15793W        W31687  12.923  15.124  15.787 -0.1567 -0.1157  0.0560
15794W        W31688   0.320   9.852   0.240 -0.0074 -0.4165  0.1360
15795W        W31689  10.388   4.939   6.054 -0.3823  0.2500  0.3091
15796W        W31690  10.558  11.201  12.410 -0.0715  0.2302 -0.1435
15797W        W31691  12.861   9.886  14.089  0.1717 -0.1505 -0.1665
15798W        W31692   7.738   7.481   5.190 -0.2159 -0.2299  0.0254
15799W        W31693  13.044  11.778  14.193  0.0152  0.1912 -0.0218
15800W        W31694   7.806   2.075  15.491  0.0099 -0.1783  0.0811
15801W        W31695   7.241  16.784   2.352 -0.0946  0.3124 -0.3205
15802W        W31696   5.000   4.037   3.313  0.5448  0.0422  0.0688
15803W        W31697  15.954  14.976  16.802 -0.0880 -0.0156  0.0338
15804W        W31698   7.598   0.654  15.228 -0.3583 -0.0279 -0.2139
15805W        W31699  17.312  11.270  15.144  0.3024 -0.1837 -0.0050
15806W        W31700   2.145  11.946   3.460 -0.0195  0.0611 -0.0410
15807W        W31701  10.439  12.627   5.878 -0.0730 -0.1053  0.2489
15808W        W31702   1.319  16.658   5.073  0.0009 -0.1810 -0.0610
15809W        W31703   9.695  13.369   4.150 -0.1638  0.0481  0.3369
15810W        W31704   8.045  14.670  15.573 -0.0865  0.1101 -0.0646
15811W        W31705   2.494  14.296  15.800  0.0794  0.1884 -0.2784
15812W        W31706  13.287  14.690   3.381 -0.1106 -0.0920  0.3578
15813W        W31707   9.581   9.087   6.187 -0.1005  0.0496  0.1750
15814W        W31708   1.483   1.791  16.555 -0.1175  0.1926 -0.0541
15815W        W31709   5.808   3.820   1.926 -0.0744  0.0361  0.1924
15816W        W31710   7.846  13.768  14.965 -0.1743  0.0893 -0.0846
15817W        W31711  10.313   5.635  12.868  0.1319 -0.1833 -0.1158
15818W        W31712   7.264  12.526  13.816  0.1436 -0.3024 -0.0060
15819W        W31713  15.695  15.637   3.677 -0.1396 -0.1615 -0.1048
15820W        W31714   9.256  16.059   5.104  0.5156 -0.1817 -0.1024
15821W        W31715  17.091   9.304   0.965 -0.0555 -0.1676  0.4051
15822W        W31716   9.921   1.587  12.623  0.1655  0.1496 -0.0684
15823W        W31717   8.444   3.417  13.847  0.1259 -0.0720  0.1189
15824W        W31718  15.467   1.965  13.033 -0.4627 -0.1457  0.1991
15825W        W31719   9.329   7.292  15.929  0.1810  0.0954  0.1363
15826W        W31720  13.910  10.490  12.740 -0.1030 -0.2180 -0.3484
15827W        W31721   7.834   4.741  15.343  0.1472  0.2474  0.0017
15828W        W31722   7.854   1.951  16.815  0.1098  0.1861 -0.0226
15829W        W31723  15.961   7.178  12.416 -0.0283  0.0300  0.2863
15830W        W31724  12.416  12.316   1.076 -0.3361  0.2053  0.0541
15831W        W31725  13.386   7.470   6.204 -0.1627 -0.1530  0.1682
15832W        W31726   9.083  13.911  14.175 -0.1372 -0.2612 -0.0767
15833W        W31727  11.451   4.007   3.850 -0.3276  0.1065  0.1061
15834W        W31728  15.076  16.312   1.510 -0.1412  0.0565 -0.1495
15835W        W31729  12.764  13.009   0.775  0.2941  0.1417 -0.0361
15836W        W31730  16.757   4.199   0.383 -0.1649 -0.0181 -0.1857
15837W        W31731   5.828   3.493   1.049  0.2620  0.3677  0.1688
15838W        W31732  12.443   0.303  13.057  0.0075  0.0127 -0.0130
15839W        W31733  12.334  12.689   0.812  0.2108 -0.1823  0.0276
15840W        W31734  14.909   4.751  13.279 -0.2648 -0.1346 -0.0371
15841W        W31735   7.738  12.208   4.011 -0.0626  0.0396  0.1713
15842W        W31736   1.095  10.807  14.359 -0.0776 -0.0564  0.1261
15843W        W31737   2.732  15.166  13.472  0.0331 -0.0506  0.1733
15844W        W31738   3.807   8.961  16.840  0.0649  0.0542  0.0765
15845W        W31739  12.507   7.463  16.549 -0.1637 -0.0013 -0.4163
15846W        W31740   7.020   6.863   0.701  0.0051 -0.0305  0.0434
15847W        W31741  15.741  15.371  11.459 -0.2492 -0.1118 -0.0497
15848W        W31742   0.100   5.525   2.267 -0.1423 -0.0327 -0.2018
15849W        W31743   4.054   1.505   2.988 -0.1769  0.2726  0.1107
15850W        W31744   0.360  12.928   1.743  0.0232 -0.0620 -0.0870
15851W        W31745  15.212   4.275  13.228  0.1416 -0.1690  0.2239
15852W        W31746   0.661  10.380   1.816  0.0547 -0.2239 -0.3718
15853W        W31747  14.730   0.031  12.460  0.2541 -0.0945 -0.0230
15854W        W31748   1.410   7.410  16.028 -0.2541 -0.0011 -0.1421
15855W        W31749   1.539  16.964   1.940  0.1095 -0.2015  0.0750
15856W        W31750   3.520  15.600  12.389 -0.1958  0.0529 -0.3117
15857W        W31751   7.794  17.026  11.851 -0.0787 -0.3896  0.2154
15858W        W31752   3.806   0.326  15.518  0.0241  0.2137 -0.4283
15859W        W31753   7.144   3.268  12.140  0.3238 -0.0380  0.4622
15860W        W31754   2.882  17.748  14.144  0.0861  0.0990 -0.0656
15861W        W31755  13.045  10.522  15.993  0.0367 -0.0042  0.1731
15862W        W31756   9.653   0.709  14.383  0.0595  0.0987  0.1765
15863W        W31757  12.092   7.877   3.593  0.0708 -0.2598  0.1056
15864W        W31758   3.507  12.298  14.903 -0.2645  0.0115  0.1079
15865W        W31759   3.239  14.497  14.789  0.2389 -0.1513  0.0097
15866W        W31760   1.179   8.755  11.911  0.0855 -0.1380 -0.2326
15867W        W31761   1.684   5.268   2.196  0.0672  0.2442  0.4382
15868W        W31762   6.817   9.709   3.823 -0.0200 -0.0468 -0.0504
15869W        W31763   3.496  11.859  13.738  0.1604 -0.0419  0.1219
15870W        W31764   1.299   6.644  15.540  0.4661  0.0658  0.0065
15871W        W31765   2.991  17.123   1.269 -0.1335 -0.2115  0.0386
15872W        W31766   9.511   7.316  12.331 -0.4129 -0.1828 -0.4091
15873W        W31767   6.309   9.113  13.547  0.0360 -0.0567  0.0345
15874W        W31768   5.909  17.459   2.463  0.0442 -0.2848  0.0086
15875W        W31769  12.864  15.536   2.938 -0.1286  0.0285  0.2132
15876W        W31770   0.455   0.351   0.066  0.3649  0.0975 -0.0250
15877W        W31771   0.875   3.437   1.176  0.2232  0.3272 -0.0178
15878W        W31772  17.330   1.847  15.325  0.3035 -0.1595  0.0307
15879W        W31773  14.132  14.104   6.273 -0.0511  0.1882 -0.2421
15880W        W31774   0.046   8.226   1.687 -0.0988  0.0799  0.0546
15881W        W31775   7.997   5.309  14.287 -0.1912  0.0375 -0.2078
15882W        W31776   4.045   5.361  14.225  0.0744 -0.1226  0.0275
15883W        W31777  16.866   9.235   2.614  0.1179  0.1422 -0.1968
15884W        W31778  16.671   9.888  14.247 -0.0567  0.2627 -0.0372
15885W        W31779   3.459   3.058   4.839 -0.0547  0.2316 -0.0074
15886W        W31780   6.220   3.001   4.103 -0.0080  0.2723 -0.1943
15887W        W31781   2.643   8.934   0.722  0.0706 -0.0745 -0.0805
15888W        W31782  11.922   5.716   1.740  0.0381  0.0436  0.0418
15889W        W31783  16.006  17.240  15.477  0.0104  0.2970 -0.1106
15890W        W31784   2.215  11.675  11.946  0.1156  0.1360 -0.1249
15891W        W31785   9.259  14.634  11.121 -0.0775 -0.2322  0.2352
15892W        W31786   3.335   8.264   4.449  0.2945 -0.1149  0.0518
15893W        W31787  14.257  17.728  12.581 -0.1703  0.3376 -0.0188
15894W        W31788   1.618  10.927   5.698  0.3194 -0.0609  0.0944
15895W        W31789  15.773   0.820   1.652 -0.0760  0.1370  0.0364
15896W        W31790  15.733  11.212   2.175 -0.3604  0.1784  0.1649
15897W        W31791   1.709  10.763   1.959 -0.3115 -0.1680 -0.3109
15898W        W31792  13.406   8.506  15.355  0.0278 -0.1587 -0.1369
15899W        W31793  11.997  13.099   3.413 -0.3384  0.0199  0.2870
15900W        W31794   5.484  15.862   5.348 -0.1896 -0.2251 -0.0345
15901W        W31795  16.430  10.941   1.533 -0.0771 -0.0471  0.0913
15902W        W31796   0.122  15.438  13.806 -0.0676  0.1982  0.0462
15903W        W31797  10.682  16.997  16.167  0.0953  0.1546  0.0417
15904W        W31798   9.157   9.066  13.431  0.1904 -0.1067  0.1460
15905W        W31799  11.744   1.017  15.295 -0.1005  0.2758  0.0076
15906W        W31800   2.123  16.855  14.846  0.1855 -0.0021 -0.2930
15907W        W31801   4.105   9.275   2.536 -0.1509 -0.0089 -0.2542
15908W        W31802   1.653  14.439   3.952  0.1858  0.2808  0.0138
15909W        W31803  16.032   4.566  12.447 -0.0193  0.3206  0.1059
15910W        W31804   1.218   6.648  14.521  0.1102  0.1605 -0.0428
15911W        W31805  17.221  15.762  16.753  0.2835 -0.0518 -0.0105
15912W        W31806  12.329   5.853  15.970 -0.0610  0.0099  0.1929
15913W        W31807   4.603  10.300   0.988 -0.1595 -0.0279  0.1228
15914W        W31808   8.268  16.256   3.982 -0.1506 -0.0412 -0.0189
15915W        W31809  10.137  10.131   0.251  0.3583  0.0496 -0.2720
15916W        W31810  13.142   6.347   4.123 -0.1235 -0.1827 -0.0221
15917W        W31811   0.594   1.989  16.894  0.0126 -0.1173 -0.3407
15918W        W31812  17.475  14.181  15.614 -0.1229 -0.1184 -0.2641
15919W        W31813   5.680  16.666   4.230  0.1167 -0.0569  0.0235
15920W        W31814   4.277   3.677   1.945  0.2193  0.0020 -0.1354
15921W        W31815   3.758   5.959  12.744  0.2594 -0.1205  0.0049
15922W        W31816   0.083   8.741  12.158 -0.1372  0.2582  0.1103
15923W        W31817  15.852   8.504   1.060  0.1322  0.1488  0.3799
15924W        W31818   1.021  12.933   1.018 -0.0121  0.1421  0.0622
15925W        W31819   6.268  16.179   2.671 -0.1114  0.4148  0.2299
15926W        W31820   0.404  17.815  14.954  0.1808  0.3614 -0.0070
15927W        W31821   4.292   4.337  16.398  0.2621 -0.3136  0.0594
15928W        W31822   6.754   4.413   4.562  0.0804  0.0434  0.1777
15929W        W31823   2.932   7.140   5.153 -0.4015  0.0387 -0.3595
15930W        W31824   4.567  13.534   2.677  0.3563 -0.2284 -0.2490
15931W        W31825  11.104  14.700  16.641 -0.0562  0.2298  0.0507
15932W        W31826  11.048   4.996  12.472 -0.2000 -0.0470  0.0470
15933W        W31827  10.677   2.951  14.782 -0.1130 -0.0442 -0.1021
15934W        W31828   7.805  14.806   5.025  0.2965  0.0001  0.3595
15935W        W31829   1.251  14.653   0.385 -0.1790  0.0184  0.0273
15936W        W31830  10.260  10.072   2.386  0.1917 -0.0866 -0.2704
15937W        W31831  14.098   4.762   6.017 -0.0884  0.0579 -0.1698
15938W        W31832   1.190  14.759   1.235  0.1443 -0.0281  0.0200
15939W        W31833  10.788   0.148   6.500  0.1263  0.1661 -0.4061
15940W        W31834   9.552   8.850   0.742  0.2308 -0.0487  0.0902
15941W        W31835   1.758   6.531   2.353  0.1104 -0.0561  0.1804
15942W        W31836   0.983  14.373   2.210  0.1424 -0.2575 -0.3014
15943W        W31837  14.339   3.682   4.232  0.1763  0.0960  0.0032
15944W        W31838   6.106  13.156   1.173  0.0414  0.0167  0.1855
15945W        W31839   2.358   1.488   0.770 -0.1338  0.0813  0.0575
15946W        W31840  11.902  11.297  12.963  0.0811  0.2761 -0.0346
15947W        W31841  14.144  16.458  15.777 -0.1553  0.0925 -0.0261
15948W        W31842   9.619  12.456  13.081  0.0696 -0.5550  0.5165
15949W        W31843   3.553  13.137  16.092 -0.2384  0.0354 -0.1440
15950W        W31844  13.774  13.425   2.919 -0.1294 -0.1621  0.2783
15951W        W31845   0.931   2.766  13.160 -0.0405  0.0347 -0.1019
15952W        W31846   8.043   7.440  12.731  0.0298  0.1127 -0.0639
15953W        W31847  16.642  14.575   4.645 -0.0658 -0.2307 -0.1951
15954W        W31848  13.096  13.287  15.977 -0.0156 -0.1089 -0.0108
15955W        W31849   5.185   6.304   0.398  0.0274 -0.0009  0.1813
15956W        W31850   6.090   1.678  15.000  0.0306 -0.2333  0.0346
15957W        W31851   2.661   7.386  14.331  0.1181 -0.1858 -0.2463
15958W        W31852  17.825  13.538   0.117 -0.1821 -0.1425  0.1956
15959W        W31853  12.191   0.214  13.529  0.1401  0.0740 -0.3110
15960W        W31854  11.123  10.268   3.966  0.3108  0.2550 -0.3590
15961W        W31855   3.512   6.173  15.227 -0.0541 -0.1520 -0.1007
15962W        W31856   8.910   0.933   0.457  0.2358  0.1521 -0.0491
15963W        W31857   8.320  10.683   4.224  0.0882  0.0101 -0.0655
15964W        W31858   7.863  12.829  12.989 -0.0522 -0.3171 -0.3357
15965W        W31859   4.742   3.286  15.559  0.2491  0.1999  0.0110
15966W        W31860   8.299   8.732  14.547  0.0418 -0.2741 -0.0537
15967W        W31861   0.751   5.683   3.422 -0.0836 -0.1269  0.0149
15968W        W31862  11.697  14.930   0.333 -0.2383  0.1475 -0.2158
15969W        W31863   1.703   7.210   3.026  0.1185  0.0806  0.0226
15970W        W31864  16.260   8.954   5.100  0.0240 -0.0987 -0.0073
15971W        W31865  16.038   8.280  16.637 -0.0300 -0.0133 -0.0889
15972W        W31866  11.397  10.441   4.350  0.0103  0.0391  0.3011
15973W        W31867  17.100   7.489   5.919  0.1568 -0.0422 -0.2902
15974W        W31868   9.830   5.044  12.152 -0.4436 -0.0367  0.2144
15975W        W31869  16.172  15.411   3.819 -0.0925 -0.0602 -0.0476
15976W        W31870   9.342  10.574  11.677 -0.1492  0.0515  0.1840
15977W        W31871   4.761  10.026   0.402  0.0820  0.1927 -0.1262
15978W        W31872  11.608  17.359  11.651  0.0264  0.0849  0.0758
15979W        W31873   9.112   4.681   5.772 -0.2583 -0.1737 -0.2407
15980W        W31874   3.511   3.437  10.111 -0.0200 -0.1653  0.0944
15981W        W31875   5.288   0.205  11.680  0.0740  0.0592  0.1226
15982W        W31876  16.844   1.417   1.386  0.2453  0.0880  0.0133
15983W        W31877  13.430   5.009   2.560 -0.0921  0.0519  0.0977
15984W        W31878  10.765  10.421  16.100  0.2187  0.2089  0.0470
15985W        W31879  11.497   5.519   1.538 -0.1176  0.1752  0.4419
15986W        W31880  14.610   4.917  12.913  0.0471  0.0194 -0.0713
15987W        W31881   4.450   5.789  16.222  0.3760  0.0007  0.0074
15988W        W31882   0.384  12.081   5.769 -0.2253 -0.1555  0.4053
15989W        W31883   0.316   0.005   3.031  0.1201 -0.1258 -0.1960
15990W        W31884   2.173  13.918  15.941  0.1136 -0.1961  0.0204
15991W        W31885  10.548  11.740   5.322 -0.1770 -0.1979 -0.0578
15992W        W31886  14.275   3.344   1.250  0.0093  0.0603 -0.1832
15993W        W31887  14.424   6.769  13.727 -0.1265 -0.2841  0.0829
15994W        W31888  16.557   6.825  14.613 -0.2788  0.1482  0.3196
15995W        W31889  11.983   7.772  12.138  0.2809 -0.0661 -0.0700
15996W        W31890   0.278  16.531   0.142 -0.0935  0.0443 -0.3033
15997W        W31891   3.932   6.629  14.546 -0.2001  0.2044  0.0744
15998W        W31892   5.387   9.495  13.575 -0.0252  0.0074  0.0496
15999W        W31893  14.038   7.897   2.091  0.2406  0.0956 -0.2634
16000W        W31894  11.472  16.919   3.487 -0.1391 -0.0068 -0.1745
16001W        W31895  15.525   2.440  15.520 -0.1831  0.0734 -0.0372
16002W        W31896  17.497  13.167   1.692  0.1738 -0.0253  0.0179
16003W        W31897  13.416   2.009   5.210  0.1222  0.3982 -0.1230
16004W        W31898   9.427  12.434   0.666 -0.2115  0.0201 -0.0856
16005W        W31899   1.867   2.196   3.933 -0.1203 -0.2202 -0.1036
16006W        W31900   9.940   0.214   2.469  0.1309 -0.0499 -0.3317
16007W        W31901  13.614   6.489  14.842  0.0579  0.1866 -0.2924
16008W        W31902  12.034   4.150   5.872 -0.2688 -0.1171 -0.2173
16009W        W31903  13.819  16.694   4.429 -0.2420  0.3063  0.0637
16010W        W31904  14.846   8.214   6.121 -0.1649  0.1012 -0.1691
16011W        W31905   9.083  10.907  13.472  0.0182 -0.0226  0.1070
16012W        W31906  16.780   6.778   3.812 -0.1338  0.0649 -0.3072
16013W        W31907   2.861   1.263   5.658  0.0631  0.0131 -0.2156
16014W        W31908  12.475  10.981  13.834  0.0632 -0.1405  0.0403
16015W        W31909   7.340   6.485  11.167  0.1612  0.2272  0.1552
16016W        W31910   7.335  14.178  15.817 -0.0603  0.2296 -0.3847
16017W        W31911   1.490  11.085   4.928 -0.0018 -0.2159 -0.0626
16018W        W31912  15.047  11.198   3.924  0.1354 -0.0577  0.1548
16019W        W31913   5.229  15.427  15.172  0.2471 -0.0440  0.0763
16020W        W31914  11.468   8.996  12.556 -0.1553  0.0480  0.0523
16021W        W31915  12.643   7.462   5.400  0.0356  0.1120 -0.3095
16022W        W31916  13.511  11.654   1.670  0.0108 -0.2484 -0.1531
16023W        W31917   4.036   4.411  14.968 -0.2266  0.0114  0.1762
16024W        W31918  10.785   9.576   5.221 -0.1539 -0.0562 -0.1351
16025W        W31919   0.891  10.363   5.046  0.0034 -0.0205 -0.1088
16026W        W31920   6.624   5.170   1.406 -0.0659  0.2453 -0.0958
16027W        W31921   7.186   2.840  12.789 -0.0011  0.0320  0.0899
16028W        W31922  15.761   5.881   0.728 -0.1803 -0.2046  0.2653
16029W        W31923   2.508  10.218   1.956 -0.0443  0.0326 -0.0698
16030W        W31924   3.793  10.065  15.207  0.0896 -0.2069 -0.0426
16031W        W31925   7.045  16.829   5.714 -0.0909  0.0644  0.0203
16032W        W31926   8.848  14.326   2.809 -0.0030  0.2523 -0.0703
16033W        W31927   7.144   3.994  13.796  0.3975  0.0021  0.0380
16034W        W31928   0.097  12.915  11.837 -0.0561 -0.5562  0.1892
16035W        W31929   5.385   9.151   3.734  0.1749 -0.1353 -0.0231
16036W        W31930  13.147   7.227  13.210 -0.2280  0.0631  0.4065
16037W        W31931   7.955  13.864  14.056 -0.1248  0.3088 -0.1040
16038W        W31932  16.591  14.589   5.171 -0.1734  0.0179 -0.0935
16039W        W31933   0.078   8.698  11.190 -0.0941  0.0653  0.2492
16040W        W31934   3.989  12.981   1.671 -0.1060 -0.2146  0.0224
16041W        W31935   9.921   0.037  14.207 -0.1390  0.1604 -0.1077
16042W        W31936   2.576   3.199  12.761  0.0469 -0.0942  0.0209
16043W        W31937  14.917   3.470  16.797  0.0425 -0.3528  0.0916
16044W        W31938  12.970  16.176   3.864 -0.0369  0.0036  0.2660
16045W        W31939   2.841   5.379  13.032  0.0653  0.1171  0.2370
16046W        W31940  16.015  10.617  16.812 -0.0370 -0.2343  0.2001
16047W        W31941   9.755   2.027   0.125 -0.1476 -0.3372 -0.0154
16048W        W31942   5.471  10.972   4.080  0.1882  0.3616 -0.3809
16049W        W31943   2.747   5.049  12.263 -0.0426 -0.1944 -0.1912
16050W        W31944  17.736   8.305   0.876  0.2379 -0.1966  0.0465
16051W        W31945   2.790  11.382  14.518 -0.0803  0.1179 -0.0305
16052W        W31946   6.189  13.812   5.172  0.1192 -0.0611 -0.1084
16053W        W31947   4.750   4.690  14.143  0.2474 -0.0676 -0.0435
16054W        W31948   3.463   3.079   3.773 -0.0028 -0.2689  0.2270
16055W        W31949   4.473  11.905   1.994 -0.2480  0.0065 -0.2672
16056W        W31950  16.545  16.797  13.748 -0.1594 -0.0664 -0.0108
16057W        W31951  10.333  12.245   3.008  0.2376  0.0485  0.0931
16058W        W31952  11.017   0.720  16.576 -0.0166  0.2147 -0.0573
16059W        W31953  13.150  17.585  11.189 -0.2421  0.2677 -0.0700
16060W        W31954  15.027  10.116  16.479 -0.0519 -0.0228  0.0520
16061W        W31955  16.069   7.667   3.607 -0.1582 -0.3143  0.1531
16062W        W31956   3.162  16.592   3.949 -0.0835  0.1411  0.1945
16063W        W31957  17.177  12.661  14.039  0.0798 -0.2443 -0.2270
16064W        W31958   4.657  10.907  15.720  0.3146 -0.1958 -0.1937
16065W        W31959   5.472   7.917   5.539  0.0157 -0.0778 -0.1150
16066W        W31960  17.358   1.033  12.500  0.1446  0.1032  0.1884
16067W        W31961   9.170   7.965   3.518  0.0662  0.0796  0.2278
16068W        W31962  16.599  11.572  14.655 -0.0474 -0.1399  0.3127
16069W        W31963  17.199   8.580   1.655 -0.1799  0.1200  0.1391
16070W        W31964  13.238   5.784  16.485  0.1667  0.1271  0.1536
16071W        W31965   4.488   2.407   4.526 -0.0799  0.0459 -0.0051
16072W        W31966  11.177   2.684  15.155  0.0017  0.1587 -0.0017
16073W        W31967  15.610   3.311   1.859 -0.2950  0.0471 -0.0880
16074W        W31968  16.395   4.409  16.181  0.0166 -0.4149  0.0040
16075W        W31969  14.418  15.676  16.778 -0.0500  0.2777  0.0241
16076W        W31970   3.789   1.959   0.680 -0.0677  0.0851 -0.2427
16077W        W31971   5.477   1.127   1.774 -0.0020 -0.1605 -0.3491
16078W        W31972  17.186   0.305   3.185 -0.0004  0.0140 -0.0823
16079W        W31973   8.539   7.698  14.999  0.0175  0.0041  0.2573
16080W        W31974  17.241   7.668   0.572 -0.1798  0.3042 -0.1948
16081W        W31975  16.123   3.698   2.779 -0.2893  0.0192 -0.2211
16082W        W31976   7.368   4.084   1.572  0.0518 -0.1661 -0.2918
16083W        W31977  16.240  11.010  13.495 -0.1594 -0.1303  0.1318
16084W        W31978   5.892  11.533  16.008  0.3056  0.0091 -0.3049
16085W        W31979   7.422   6.892   5.309  0.2696  0.1627 -0.3286
16086W        W31980   2.465   0.389  11.560  0.3289  0.1430 -0.0254
16087W        W31981   1.297  17.113  16.280 -0.1940  0.0810 -0.0209
16088W        W31982   7.613  17.803  12.631 -0.0066 -0.0468 -0.2686
16089W        W31983  15.418  15.635  12.839  0.2837 -0.0410 -0.2218
16090W        W31984   5.182   2.329   2.400 -0.0545  0.1029 -0.1589
16091W        W31985  15.224   1.067   1.485 -0.3042  0.1294  0.1237
16092W        W31986  17.174   0.967   1.239  0.1153 -0.1382  0.1108
16093W        W31987   1.143  11.645   2.033  0.1981 -0.1930 -0.0446
16094W        W31988  13.289   2.903   3.280  0.4017  0.3204 -0.1529
16095W        W31989  11.941  17.525   0.806 -0.1397 -0.0748 -0.1049
16096W        W31990  13.053   6.185  12.811  0.1497  0.0973 -0.2756
16097W        W31991  17.407   1.118  15.899  0.2380 -0.2140 -0.0878
16098W        W31992  17.151   3.050  14.534  0.0766 -0.0152  0.3130
16099W        W31993   5.436   2.018  15.645 -0.2756  0.0361 -0.0961
16100W        W31994  10.505   8.456   1.610  0.2844 -0.1433 -0.4014
16101W        W31995   5.728   3.826   1.375  0.1481 -0.0184  0.0471
16102W        W31996  13.273   8.879  14.965  0.0146  0.2656 -0.1256
16103W        W31997   8.036  13.823   0.830  0.4076 -0.1987  0.1044
16104W        W31998   3.851   6.931   0.930 -0.0683  0.2380 -0.1267
16105W        W31999  14.258  12.068   1.922  0.1185 -0.0319 -0.0080
16106W        W32000   5.764  11.557  15.145 -0.2586  0.0514  0.1536
16107W        W32001   9.805  15.217  15.562  0.3752  0.1379 -0.1456
16108W        W32002   2.467  11.870   1.329 -0.3673  0.2740  0.1445
16109W        W32003   1.003   5.991  12.786 -0.2862 -0.0022  0.1955
16110W        W32004  13.894   0.212  14.713 -0.1134 -0.0867  0.2224
16111W        W32005   5.045   2.476   5.459 -0.0936  0.1889 -0.1776
16112W        W32006  11.894   1.970   0.673  0.0317  0.0642 -0.1995
16113W        W32007   4.962   9.030   4.326 -0.0879 -0.0984 -0.3493
16114W        W32008  12.722  11.707   4.616  0.0150  0.4385  0.0562
16115W        W32009   6.965   6.533  16.277 -0.3507 -0.1442 -0.1633
16116W        W32010  12.155  10.629  13.833 -0.0318  0.1486  0.0351
16117W        W32011   2.498  16.030   4.760  0.1065 -0.3031  0.0676
16118W        W32012   5.735  13.332  16.406  0.4347  0.2479 -0.0358
16119W        W32013  16.466   2.333   0.207 -0.1610 -0.2574  0.1700
16120W        W32014   8.940  10.619   1.156  0.0208 -0.3651 -0.4532
16121W        W32015  15.555   7.409  15.158  0.1909 -0.1533  0.0198
16122W        W32016   4.809   4.166  16.370 -0.0856  0.0084 -0.2024
16123W        W32017   7.058   4.070   2.132 -0.1781  0.0697  0.1703
16124W        W32018  14.239  13.993  14.757 -0.3289  0.2846 -0.0198
16125W        W32019   8.070   2.423  16.820 -0.0010 -0.0503  0.2026
16126W        W32020   5.341  13.182   3.720 -0.1237  0.0825 -0.1410
16127W        W32021  15.212   8.537   4.714 -0.0508  0.2135  0.0367
16128W        W32022  11.383   4.885   2.112  0.1758  0.0991  0.0304
16129W        W32023   4.069   1.505   2.439  0.1653 -0.0037  0.1839
16130W        W32024   0.943  13.151   2.718  0.0791  0.1241  0.5591
16131W        W32025  17.047   0.777   5.877  0.0593  0.2187 -0.1796
16132W        W32026  13.155  11.626   0.315 -0.2059 -0.0130  0.0335
16133W        W32027  11.963   0.433  15.472 -0.2781 -0.1647  0.1067
16134W        W32028  16.765   3.678  12.306 -0.0198  0.2273  0.0094
16135W        W32029   4.036   0.631   3.098  0.0241  0.0222 -0.1759
16136W        W32030  13.081  11.285  13.569  0.0842 -0.2280 -0.0423
16137W        W32031   1.828   7.303  14.683 -0.1465  0.1297 -0.3000
16138W        W32032  12.532  14.411  13.706  0.1559  0.0327 -0.0355
16139W        W32033  10.677  16.295   6.260  0.1732  0.3786 -0.0682
16140W        W32034  11.069  17.170  12.961 -0.0398  0.5052  0.0600
16141W        W32035   9.816   0.526  13.003 -0.1099  0.2125  0.0701
16142W        W32036  14.461   6.577   4.940  0.0121 -0.0767  0.2557
16143W        W32037  15.211  10.601   2.320 -0.0126  0.1056 -0.1924
16144W        W32038   9.298   1.976  14.360  0.2938 -0.0552  0.0589
16145W        W32039  14.542   9.167   3.984  0.0224 -0.1520  0.0412
16146W        W32040  11.677   4.104   5.519  0.0988  0.0658  0.2843
16147W        W32041   1.330  15.042  12.948  0.0552 -0.1156 -0.1408
16148W        W32042   5.888   6.710  14.421  0.3084 -0.1818 -0.2031
16149W        W32043   4.573  15.348  13.862  0.0576  0.1889  0.1986
16150W        W32044  10.826  15.954   2.078  0.3930 -0.2149 -0.1090
16151W        W32045  12.424   9.896   3.637 -0.2083  0.4394 -0.0631
16152W        W32046  16.093  10.059  15.035  0.2035  0.2268  0.0800
16153W        W32047   3.570   4.821   0.491  0.0632 -0.1077  0.0588
16154W        W32048   3.212   3.849   0.587 -0.0954  0.2924 -0.0916
16155W        W32049  12.154   3.604   2.678 -0.0420 -0.2385 -0.2346
16156W        W32050  10.068   4.681   5.788  0.1191  0.1962 -0.0112
16157W        W32051  13.439  13.510   0.016 -0.2821 -0.0496 -0.5527
16158W        W32052   2.385   2.061   3.675 -0.3913  0.1349 -0.1646
16159W        W32053   5.824   1.648  13.924 -0.2342  0.6013 -0.0188
16160W        W32054   3.045   1.028  15.127 -0.0741  0.1052 -0.2764
16161W        W32055  11.778  10.044  14.679 -0.1103 -0.1380  0.0637
16162W        W32056   4.115   8.306  14.684  0.0289 -0.0541 -0.0655
16163W        W32057  16.336  17.202  14.000  0.4514 -0.2689  0.0627
16164W        W32058   5.468   7.143  13.573 -0.0261  0.1418  0.0975
16165W        W32059   6.542   1.077   5.830 -0.0604 -0.0587  0.2691
16166W        W32060   1.868   4.307  12.951  0.2652  0.1711  0.1295
16167W        W32061   7.522  17.487   3.853 -0.1508 -0.2745 -0.0890
16168W        W32062   3.828  13.747  15.052 -0.6344  0.3454  0.1076
16169W        W32063  11.842   0.247   4.151 -0.0974  0.2580  0.0002
16170W        W32064   6.450  12.964   3.433 -0.2967  0.3200  0.3936
16171W        W32065   9.910  14.258  15.179 -0.0382  0.0491  0.1968
16172W        W32066  11.395  12.340   2.957  0.0092 -0.0289  0.3622
16173W        W32067   0.094  10.445   0.146 -0.0172 -0.0540  0.2852
16174W        W32068  17.660  16.184  13.283 -0.1204 -0.0032 -0.2690
16175W        W32069   5.014  15.628   3.112 -0.1620  0.0462  0.0789
16176W        W32070  13.484  11.748  13.962 -0.1251  0.2526  0.3252
16177W        W32071   1.429  14.700  15.314 -0.1160  0.0992 -0.1115
16178W        W32072  14.709   0.422   0.138 -0.1368 -0.0525 -0.0464
16179W        W32073   4.826  15.726   6.249  0.1182 -0.1899  0.0364
16180W        W32074   3.926  14.111  15.867 -0.0186 -0.2212  0.0101
16181W        W32075  13.443  15.133   3.525  0.2345  0.3763 -0.1859
16182W        W32076   3.537  16.703   2.753 -0.0202 -0.2539  0.0682
16183W        W32077   4.601   4.871   1.987  0.0763  0.1139  0.4024
16184W        W32078  11.139   1.125  15.386 -0.1221  0.1325 -0.1077
16185W        W32079  11.537  13.137  14.731  0.0486 -0.1346  0.1106
16186W        W32080  12.021   6.159   2.538 -0.0652  0.0494 -0.1200
16187W        W32081   8.413  13.745  11.543 -0.0932  0.0222 -0.1728
16188W        W32082   5.353   5.001   0.045  0.2690  0.2721 -0.1216
16189W        W32083   2.405   9.869  12.704 -0.3266  0.0425  0.1120
16190W        W32084   7.130   0.775   3.150  0.0669 -0.1873  0.2375
16191W        W32085   6.714   8.732   1.318  0.2123  0.2081  0.1330
16192W        W32086   3.984  12.639  13.523  0.0114  0.2496 -0.1059
16193W        W32087  13.579  17.465  12.026 -0.2068 -0.2779  0.1245
16194W        W32088   1.441   4.340   1.121  0.1563  0.2585 -0.0412
16195W        W32089   4.277   4.624  15.579  0.0433 -0.1627  0.0783
16196W        W32090  12.453  15.900  11.624 -0.0866 -0.0795 -0.2612
16197W        W32091   0.787   3.050   3.581  0.2735  0.0099 -0.4291
16198W        W32092  10.593   7.547  12.776 -0.0200 -0.0458 -0.1992
16199W        W32093  11.821   5.915  16.421  0.2996 -0.0949 -0.0038
16200W        W32094   2.547  16.474  14.600 -0.0853 -0.1860 -0.2397
16201W        W32095   6.826   7.317   5.595  0.0922 -0.2438 -0.0939
16202W        W32096   9.936   2.198  14.404  0.3065 -0.0601  0.2305
16203W        W32097  15.743   0.092  13.791 -0.1150 -0.0448  0.0665
16204W        W32098  11.017  11.255   4.129  0.2358 -0.1622 -0.1959
16205W        W32099   3.000  15.153  16.094  0.0135 -0.0780 -0.0665
16206W        W32100   5.492   3.697   2.412  0.0436  0.1793  0.2992
16207W        W32101  11.990  13.565  16.487 -0.0325 -0.0172 -0.2876
16208W        W32102   7.953   0.170   2.374 -0.1915  0.4426  0.1342
16209W        W32103   3.296   9.420   2.754 -0.1474 -0.0941 -0.1255
16210W        W32104  16.590  16.190  16.266 -0.0417 -0.2481 -0.2486
16211W        W32105  13.688   0.084   0.072 -0.0708  0.2273  0.0901
16212W        W32106   4.274   4.686  11.900  0.1794 -0.2571 -0.1297
16213W        W32107   7.148   6.263   6.498 -0.0256 -0.0710 -0.2634
16214W        W32108   0.540   9.955  15.188  0.5513  0.0166 -0.3001
16215W        W32109   9.517  15.896   3.705 -0.1585 -0.0698 -0.0199
16216W        W32110  10.169  13.248   4.243 -0.0516 -0.1107  0.0159
16217W        W32111   8.594   2.348   2.037  0.0601  0.2763 -0.0886
16218W        W32112  17.332  16.603  14.731 -0.1156  0.0246 -0.4244
16219W        W32113  16.457   9.305   5.790  0.1504  0.0131  0.0405
16220W        W32114   5.538  14.423  14.999  0.0455  0.1947 -0.0436
16221W        W32115   9.329   3.487   6.219 -0.0589  0.0215 -0.0368
16222W        W32116   7.959  14.587   3.750  0.1535 -0.0631  0.0778
16223W        W32117   9.311  10.981  12.080 -0.4072 -0.1681  0.0849
16224W        W32118   2.810   9.669   0.959  0.1478  0.1117 -0.1523
16225W        W32119  15.872  10.903  14.478 -0.0166  0.1158 -0.3537
16226W        W32120  17.317   7.713   0.053 -0.0885 -0.0019  0.1799
16227W        W32121  11.901  13.335   4.842  0.0355  0.0578 -0.0085
16228W        W32122   1.358   2.018   2.232 -0.0299 -0.0531 -0.1498
16229W        W32123  17.367  15.458   4.396 -0.1023  0.1129  0.2262
16230W        W32124   8.101  10.349  16.099  0.0665 -0.0225  0.0780
16231W        W32125  11.758   6.724   5.804 -0.3176 -0.0167 -0.0980
16232W        W32126   7.431  16.052   1.723  0.0879  0.0700 -0.0750
16233W        W32127  17.700  12.155   1.741 -0.0066 -0.0058  0.2799
16234W        W32128  14.666  15.352   1.175 -0.1645  0.3307  0.2461
16235W        W32129   4.893  10.680   6.571  0.1746  0.5880 -0.1357
16236W        W32130   9.731   7.672  12.654  0.2755 -0.2915  0.0270
16237W        W32131   7.591   5.753  15.197 -0.5035 -0.1210  0.1266
16238W        W32132   2.272   4.189  13.441  0.4185  0.0357  0.0410
16239W        W32133  12.292  13.130  14.133 -0.0728 -0.0068  0.1239
16240W        W32134  11.175   8.849   4.791 -0.0182  0.0384  0.2462
16241W        W32135   6.536   7.638   0.638 -0.1138 -0.1519  0.0367
16242W        W32136   1.725  16.472   4.081 -0.3987 -0.0570  0.0995
16243W        W32137  16.889  12.579  14.610 -0.2678  0.1235  0.2160
16244W        W32138   0.346  11.171  16.232  0.3353  0.1697 -0.1370
16245W        W32139  17.259  16.874   6.309 -0.2443  0.3278  0.0016
16246W        W32140   2.231  11.506   5.472 -0.0375  0.3777 -0.0097
16247W        W32141  10.732  15.570  12.435  0.0403  0.0903  0.0201
16248W        W32142   8.110   3.036   4.995  0.0491  0.1286 -0.0272
16249W        W32143   7.063  13.446  12.893 -0.1071  0.0310  0.0240
16250W        W32144   7.112   9.703  13.295  0.2857 -0.4474  0.0558
16251W        W32145  17.335   3.946  15.156 -0.1700  0.1036 -0.1952
16252W        W32146  15.127   5.958   0.985 -0.0112  0.1858 -0.5183
16253W        W32147   7.167   8.412   1.313 -0.1498 -0.0536 -0.0732
16254W        W32148  17.805   1.228   3.190  0.0754 -0.3630  0.0646
16255W        W32149   5.737   9.250   6.294 -0.2976  0.0046 -0.0777
16256W        W32150   0.726   8.659   4.819  0.1434 -0.0547 -0.0327
16257W        W32151   3.736  15.646   2.066  0.0900  0.0425  0.1363
16258W        W32152   1.458  15.604  12.139 -0.1217 -0.1640 -0.1004
16259W        W32153   2.964  17.439   5.437 -0.3064  0.1780 -0.2109
16260W        W32154   4.367  17.029   6.000  0.0751  0.0261  0.1167
16261W        W32155  12.548  12.292  14.869  0.4197  0.2027 -0.0427
16262W        W32156   1.332  16.861  12.890  0.0510  0.3461  0.1616
16263W        W32157  16.648   5.814  14.248 -0.0532 -0.1297 -0.1354
16264W        W32158   7.192  13.059  16.805 -0.4966  0.0943  0.0954
16265W        W32159  13.737   9.033   2.492  0.0360 -0.3209  0.2347
16266W        W32160   3.002  10.476   5.675  0.1673  0.0384  0.0435
16267W        W32161   1.907   3.987   5.409 -0.0105  0.3004 -0.0293
16268W        W32162   5.307  10.550   4.364 -0.1057  0.1159 -0.0346
16269W        W32163  12.942   6.126   5.395  0.0600  0.0642  0.1038
16270W        W32164   1.760  11.656  12.963 -0.0932 -0.2194  0.3827
16271W        W32165  11.480  13.717   1.092  0.1809 -0.3433 -0.0840
16272W        W32166  11.393  17.246   5.000 -0.2247 -0.0962 -0.0432
16273W        W32167   1.118   2.230  13.793  0.1932 -0.0115  0.0308
16274W        W32168   4.314   2.924   1.525 -0.0402 -0.1472 -0.0494
16275W        W32169   3.655  13.732  12.598  0.3324  0.1268 -0.0240
16276W        W32170  12.995  16.482  16.275 -0.0334  0.1566  0.2183
16277W        W32171   1.725  16.309   5.008 -0.0880  0.1224 -0.1356
16278W        W32172  12.945  16.054  14.961 -0.0726  0.2325  0.1412
16279W        W32173  17.195   6.053  15.957  0.2658 -0.2239 -0.0506
16280W        W32174   4.980   8.597   2.488 -0.3250 -0.0839 -0.0645
16281W        W32175  10.943   2.341   1.196 -0.0739  0.2305 -0.1395
16282W        W32176   3.191   5.876  13.450 -0.0458 -0.0706 -0.0923
16283W        W32177   5.742  10.743   4.565  0.1541 -0.1436 -0.2360
16284W        W32178  10.378   1.283  16.051  0.0961  0.0706 -0.3265
16285W        W32179   4.824  11.806   0.690 -0.0584 -0.1498  0.0837
16286W        W32180  11.235   5.298  11.708 -0.0839  0.1428 -0.3355
16287W        W32181  16.504   5.059  15.473 -0.1228  0.2995 -0.0347
16288W        W32182   9.327  11.479   0.980  0.1366  0.2528  0.2816
16289W        W32183   2.309  15.289  16.692  0.1195  0.1573  0.0159
16290W        W32184   8.255   9.963  13.087 -0.0688  0.0119  0.0689
16291W        W32185   0.660   9.647   2.723 -0.0558 -0.0284  0.1383
16292W        W32186  16.636   8.392  16.496 -0.1501 -0.3597 -0.2042
16293W        W32187   9.914   4.694   1.776  0.3860  0.0232  0.0032
16294W        W32188   6.357  11.462   5.684  0.0404 -0.2147 -0.2861
16295W        W32189  13.356   3.784   4.876 -0.1805  0.3384 -0.2115
16296W        W32190   4.111   3.503  11.890  0.0492 -0.3196 -0.0776
16297W        W32191   4.905   0.696  16.911  0.1433  0.1997  0.0391
16298W        W32192  14.309   2.397  12.230  0.0040  0.0235 -0.3296
16299W        W32193  14.218  13.448   1.244  0.4440 -0.0186  0.0217
16300W        W32194   9.358   0.796   1.993 -0.1028 -0.0930  0.3910
16301W        W32195  14.502  17.216  14.139 -0.1291  0.0506  0.0640
16302W        W32196  14.927   8.864   4.288  0.0517 -0.1965  0.1126
16303W        W32197   1.305   1.244   3.862 -0.1952  0.0793  0.1089
16304W        W32198  10.381   9.866  16.717 -0.0162  0.2445 -0.0416
16305W        W32199   5.021   4.375  14.403 -0.0899 -0.0938  0.1418
16306W        W32200   0.369  10.138  15.800 -0.3289  0.1460 -0.2949
16307W        W32201  12.065   2.937  12.762  0.0737 -0.1057 -0.1950
16308W        W32202   5.125  10.662  14.997 -0.2432  0.2841  0.0419
16309W        W32203  12.318  16.794  14.927 -0.2060  0.1459 -0.1210
16310W        W32204   8.496  12.399   5.274 -0.1270  0.0989  0.0998
16311W        W32205  15.438   0.939  12.815 -0.3229  0.0647  0.3147
16312W        W32206  17.390   2.989  11.865 -0.0315 -0.0104 -0.0120
16313W        W32207   9.162   3.938   3.202  0.3557  0.0979 -0.0773
16314W        W32208   7.406   7.786   0.814 -0.1092  0.2161 -0.0058
16315W        W32209  11.542   0.564   2.802 -0.1963  0.3068  0.1312
16316W        W32210   6.930  16.857   4.977 -0.1794  0.0806 -0.2203
16317W        W32211   3.297  11.903   5.413  0.1500 -0.0362  0.1081
16318W        W32212   2.767  17.491  15.135 -0.1717  0.0597 -0.0349
16319W        W32213   3.857   6.086  16.816  0.3078 -0.0377 -0.3118
16320W        W32214  12.130   1.934   4.455  0.0792 -0.0341 -0.1724
16321W        W32215  11.414  10.962  13.740  0.2332  0.1195  0.0717
16322W        W32216  16.857   5.914  10.822  0.2194 -0.2286 -0.2215
16323W        W32217   6.932  15.911  14.419  0.1434 -0.2202 -0.0290
16324W        W32218   2.916   3.363  12.369  0.1660 -0.0796 -0.1983
16325W        W32219   1.207  12.150   5.722  0.2416  0.0481  0.2019
16326W        W32220  16.105   1.866  14.329  0.1319 -0.0731 -0.0545
16327W        W32221  13.997   1.715  15.222  0.3608  0.0598  0.0664
16328W        W32222   2.319   8.178  12.554  0.0320  0.0253 -0.0379
16329W        W32223  15.822   5.396  14.579  0.2208 -0.6230 -0.2354
16330W        W32224   6.308   4.758  12.476 -0.1357  0.0062  0.2018
16331W        W32225   3.300   0.702   0.339 -0.0857 -0.2397  0.1649
16332W        W32226  16.124  16.042   0.805  0.3145 -0.0173 -0.2301
16333W        W32227   6.769  15.491  14.230  0.0273 -0.0404  0.0791
16334W        W32228  17.527  11.767   3.818  0.3704 -0.1385  0.1680
16335W        W32229   7.107   3.300   3.138 -0.3219 -0.3587 -0.4550
16336W        W32230   5.305  10.910  12.803  0.1482 -0.0952  0.1099
16337W        W32231   8.359  15.884   5.680  0.0158  0.0012  0.0758
16338W        W32232   2.892   9.040  12.597  0.0842  0.1253 -0.0593
16339W        W32233   3.351   2.034   3.236  0.0730  0.2594  0.1455
16340W        W32234   9.358  12.091  16.916  0.2099  0.4199  0.0085
16341W        W32235  10.887  13.322   2.474  0.1951 -0.0034  0.2533
16342W        W32236   6.173  10.426   4.725 -0.0479 -0.0672  0.2076
16343W        W32237  10.631  12.527  11.879  0.2266 -0.0671 -0.0988
16344W        W32238   1.259   1.761   3.259 -0.2953 -0.2122 -0.2870
16345W        W32239   2.753  15.611  16.125 -0.0539 -0.1628 -0.1541
16346W        W32240  10.610   8.506   2.910  0.2295 -0.5398  0.1256
16347W        W32241  13.025   2.451  13.351  0.0409  0.1446  0.0632
16348W        W32242   6.024   3.871   4.086  0.3000  0.0249 -0.0283
16349W        W32243   3.514  15.182   4.080 -0.1887 -0.2961  0.1747
16350W        W32244   7.031   0.896   0.141 -0.0377 -0.2313  0.0690
16351W        W32245  12.076  14.239   5.237  0.0159  0.3074 -0.0590
16352W        W32246   6.596   3.274   4.373  0.2840 -0.0714 -0.1898
16353W        W32247  12.563   2.702  13.819 -0.0194  0.2137 -0.2562
16354W        W32248  12.992  11.151   1.898 -0.1028 -0.3285  0.2706
16355W        W32249  17.452   3.548   0.226  0.0892 -0.0055 -0.3224
16356W        W32250  15.442  10.862   1.835 -0.0857 -0.3583 -0.1398
16357W        W32251  16.817  12.388  13.605 -0.2487 -0.0565  0.0260
16358W        W32252   2.597   2.156   4.668  0.3078 -0.1252  0.1274
16359W        W32253   4.237  13.131   2.520  0.1140 -0.1642 -0.0470
16360W        W32254  15.367   7.499   5.324 -0.0317 -0.0481  0.0848
16361W        W32255  10.483   5.446  14.482  0.1742 -0.2215 -0.1282
16362W        W32256  12.640   7.292  11.657  0.0051  0.2057  0.0856
16363W        W32257   4.897  15.121  12.032  0.0406 -0.1742 -0.3523
16364W        W32258   7.126   2.446  13.111  0.0107 -0.0243 -0.0442
16365W        W32259  14.586  12.645   2.144 -0.1208  0.2732  0.1796
16366W        W32260   1.457   4.287  15.319  0.0166 -0.1191 -0.0777
16367W        W32261  16.970  16.763   4.971  0.0903 -0.0637 -0.3076
16368W        W32262   3.109   4.543   2.436 -0.3449  0.1623  0.1292
16369W        W32263   3.329  13.732  15.116  0.2545 -0.0894 -0.3487
16370W        W32264   3.609   8.705   4.375 -0.1532  0.0058 -0.0668
16371W        W32265  12.909   2.132   2.089  0.0097  0.2049  0.1492
16372W        W32266   1.070   1.527   1.299  0.1768  0.2061  0.2307
16373W        W32267  17.332   9.470   4.771 -0.1670  0.1136  0.1512
16374W        W32268  13.695   1.900   3.562  0.0145  0.0017  0.1884
16375W        W32269  10.579   3.486  15.244  0.1129 -0.0045  0.2101
16376W        W32270   0.808   7.741  13.548 -0.0291 -0.1416 -0.0290
16377W        W32271  13.193   8.011  16.358 -0.0550 -0.1148  0.0286
16378W        W32272   2.535  14.928   1.246  0.3086 -0.1438  0.2517
16379W        W32273   9.993   1.156  12.887  0.0395  0.3052  0.2662
16380W        W32274   6.390   9.466  14.321 -0.2709 -0.0998 -0.0433
16381W        W32275  15.631   7.246   0.951 -0.2530  0.1480  0.1005
16382W        W32276   7.864   0.498  14.569 -0.0727  0.2963  0.1583
16383W        W32277   8.866   5.711  14.615  0.2447  0.2227 -0.0360
16384W        W32278  14.645  16.422  14.608 -0.0785 -0.0084 -0.0559
16385W        W32279   9.100  13.363   2.936  0.1409  0.0655 -0.1547
16386W        W32280   8.703  11.126   0.985 -0.0173  0.0174 -0.0813
16387W        W32281   7.082  16.846   1.890 -0.1428 -0.1735  0.0378
16388W        W32282  11.653  10.009  12.640  0.2005  0.2298 -0.0852
16389W        W32283   0.999   2.730  13.718  0.0139  0.0148 -0.0378
16390W        W32284   9.911  12.084   0.842 -0.0566 -0.2561 -0.0107
16391W        W32285  16.977   8.485   2.098  0.1754  0.0534  0.0323
16392W        W32286  17.621   2.703  12.293  0.1607 -0.1710  0.1883
16393W        W32287   4.808  10.546   3.374  0.1057  0.2534 -0.1975
16394W        W32288  13.711  14.623   1.080 -0.1356  0.2109  0.0791
16395W        W32289   5.370   1.295   2.273 -0.0119  0.0973 -0.0314
16396W        W32290   7.299  12.392   4.751 -0.0739  0.2374  0.0331
16397W        W32291   7.336   3.034   1.373  0.1568  0.2678  0.2487
16398W        W32292   6.752   6.586   6.426 -0.1175 -0.1705 -0.0074
16399W        W32293  11.277   3.228  12.655  0.1231  0.0889 -0.1293
16400W        W32294   9.121   1.388   2.100 -0.0598  0.0002  0.0643
16401W        W32295   3.790   2.578  13.158 -0.0021 -0.0200 -0.0962
16402W        W32296  11.824   2.015   1.584 -0.1006  0.1628 -0.1361
16403W        W32297   4.362  16.672  14.214  0.1359  0.0151  0.4029
16404W        W32298  11.461   4.018   0.531  0.0998  0.0724  0.2868
16405W        W32299   6.147   5.518   5.954  0.1355  0.1151 -0.0343
16406W        W32300   3.050  17.462   4.355 -0.0260  0.3325 -0.1372
16407W        W32301   7.709   5.455   3.744 -0.2283 -0.0880  0.0673
16408W        W32302  16.379  14.621   1.908  0.1667 -0.0434  0.0492
16409W        W32303  10.421   5.023  15.927 -0.2413  0.0807 -0.1699
16410W        W32304  13.115   4.456  16.552 -0.0079  0.1060 -0.2716
16411W        W32305  13.915   0.045   4.778  0.2123 -0.1150 -0.1674
16412W        W32306   6.858  14.997  13.224 -0.2867  0.1005 -0.2195
16413W        W32307  16.366  16.860   4.514  0.1114 -0.0594 -0.1442
16414W        W32308   1.268   7.348   1.100  0.3344 -0.2469  0.0447
16415W        W32309   9.764   1.855  14.103 -0.0672 -0.1981  0.1759
16416W        W32310  10.682   1.104  16.839 -0.0619 -0.0198 -0.0018
16417W        W32311   9.693   7.287  13.956 -0.2350  0.4519  0.1269
16418W        W32312   2.368   2.120  16.754  0.0099  0.3038 -0.0946
16419W        W32313   8.779   9.586   2.633  0.2756 -0.2463  0.4116
16420W        W32314   7.311  11.879  13.978  0.2875 -0.0602 -0.3156
16421W        W32315   4.338  16.228  13.093  0.1620 -0.0792 -0.0167
16422W        W32316   4.778  12.149   3.538 -0.0696 -0.1334  0.0149
16423W        W32317   8.609   6.472   5.708  0.0219  0.0081  0.0067
16424W        W32318   0.369  14.686   2.527 -0.0901 -0.0917  0.0993
16425W        W32319  10.255   8.060   4.288  0.0710  0.1397  0.1530
16426W        W32320   4.060   4.946   3.591 -0.0077 -0.0861 -0.1129
16427W        W32321   9.485   7.007  16.787 -0.1433  0.1319 -0.4021
16428W        W32322   0.103  13.572  13.543 -0.0033  0.1297 -0.3383
16429W        W32323  12.991   4.076   2.498 -0.2116  0.0628  0.0942
16430W        W32324  11.080  10.081   5.259 -0.4660  0.0131  0.3412
16431W        W32325   8.761   6.808  12.717 -0.0730 -0.0611  0.1603
16432W        W32326  11.330   4.598  13.731 -0.0437  0.2708  0.0194
16433W        W32327  14.388  10.665  12.949  0.1921 -0.0089 -0.1081
16434W        W32328   1.392   2.494   1.065  0.3564 -0.0716  0.1618
16435W        W32329  12.688  16.977   0.696  0.2849 -0.0875  0.1345
16436W        W32330   6.243   6.322   1.637 -0.4030  0.1672  0.3111
16437W        W32331  10.575  14.246   5.187 -0.0289 -0.1716 -0.0747
16438W        W32332   6.656   3.204   5.495 -0.3835  0.1681  0.1049
16439W        W32333  10.692  13.308  16.915  0.2561 -0.0011 -0.0860
16440W        W32334  10.667  14.753  11.262  0.2177  0.1377 -0.1887
16441W        W32335   8.722   9.919   0.662  0.0589 -0.1601  0.0603
16442W        W32336   1.391  11.180  12.657  0.2995 -0.0802  0.0855
16443W        W32337  13.771   0.607   4.110 -0.1266  0.0020  0.3175
16444W        W32338  10.706   4.325   6.329 -0.0560 -0.0591 -0.0277
16445W        W32339   0.429   0.885  11.911  0.1488 -0.0456  0.3176
16446W        W32340   3.674  11.631  14.112  0.0785 -0.1974 -0.6024
16447W        W32341   8.034   5.471  11.986  0.0847 -0.1682  0.0722
16448W        W32342  14.653  10.258   1.601 -0.1757  0.2304 -0.2926
16449W        W32343   5.043   5.662   0.663  0.0542  0.1849 -0.3911
16450W        W32344  11.767  15.039   1.095 -0.4622  0.0608 -0.0715
16451W        W32345  15.498   6.345   2.074  0.1759  0.2375  0.3992
16452W        W32346   9.210   7.247  14.845 -0.0096  0.1005  0.0467
16453W        W32347   1.906   8.191   3.467  0.0694  0.1069  0.0420
16454W        W32348  12.279  14.005  13.657  0.0298 -0.0364  0.2039
16455W        W32349   4.914  15.023   0.341 -0.1626  0.0020  0.1937
16456W        W32350  15.550  10.729  12.968  0.1748 -0.0320  0.0291
16457W        W32351   6.198  13.753   6.470 -0.2132 -0.2388  0.1753
16458W        W32352  15.691   4.392  11.609  0.0962  0.0218 -0.1215
16459W        W32353   1.485  12.717   1.325 -0.2753  0.0007 -0.3087
16460W        W32354  16.356   4.690  12.076  0.0101  0.2976  0.3914
16461W        W32355  14.562   5.500   4.802  0.2123 -0.0067 -0.2706
16462W        W32356  10.962   6.993  15.776  0.2866  0.0847  0.2076
16463W        W32357   5.735  12.868   5.405 -0.3115 -0.5358 -0.0026
16464W        W32358   7.651   4.197  16.632 -0.0108 -0.0576 -0.1820
16465W        W32359   0.362   9.033   3.329 -0.0137  0.1674 -0.0659
16466W        W32360  11.518   6.718   6.270  0.1155 -0.1812 -0.2129
16467W        W32361  13.909   5.169   3.325 -0.0913  0.0732  0.0516
16468W        W32362  17.403  12.350  16.702 -0.1092 -0.1903  0.1181
16469W        W32363  13.033  11.090   3.411  0.1183  0.0672  0.1532
16470W        W32364   7.190  13.201   3.109 -0.0806 -0.6041  0.2435
16471W        W32365   8.152  12.748   0.259  0.0391  0.3156 -0.3227
16472W        W32366   4.104  14.691  14.898  0.0178 -0.3000 -0.1777
16473W        W32367  17.133  13.905  13.195 -0.0898 -0.0455  0.2313
16474W        W32368   5.031  12.615  11.693  0.0112 -0.0675 -0.2963
16475W        W32369   3.015   6.590   1.037  0.2011 -0.1020 -0.2195
16476W        W32370  17.376   4.034   3.802 -0.1909  0.4935 -0.1170
16477W        W32371  17.420  14.063  13.730  0.1379  0.0022  0.1656
16478W        W32372  14.340  12.926   4.545  0.0252  0.0163  0.1983
16479W        W32373  13.729   2.733   1.477 -0.0801  0.1347  0.0891
16480W        W32374  15.448  12.499   0.198  0.1788  0.2791  0.0613
16481W        W32375   1.613  11.023  13.821 -0.2795 -0.2727  0.0669
16482W        W32376   5.895   5.201   1.247  0.1256 -0.2430  0.0685
16483W        W32377  10.369   1.390   4.711 -0.2878 -0.4812 -0.1608
16484W        W32378   3.856   9.204  15.895  0.1870  0.0361  0.1742
16485W        W32379   5.790  14.817  13.034 -0.2353  0.3014  0.2896
16486W        W32380  16.694   6.042  13.606  0.0583  0.4950  0.0411
16487W        W32381   4.116  16.244   1.536  0.0722 -0.2304 -0.3233
16488W        W32382   2.426  15.365   6.156  0.0441  0.0421 -0.0461
16489W        W32383   0.118   9.958  14.117  0.1124  0.0277 -0.0643
16490W        W32384  14.276  14.466  13.057 -0.0080 -0.0080 -0.0783
16491W        W32385  16.603   3.380  16.821 -0.1319  0.0626  0.2154
16492W        W32386  16.491   5.569   4.970  0.2492  0.1706 -0.3034
16493W        W32387   6.103   4.498  16.801 -0.1166  0.2776  0.1230
16494W        W32388  16.149  14.440   1.542 -0.0055 -0.2324  0.0478
16495W        W32389   5.437  14.169   4.569 -0.3059 -0.2755  0.1061
16496W        W32390   8.446  10.836   5.600  0.0658  0.3432  0.3723
16497W        W32391  10.297   1.384  16.535 -0.2059 -0.2725 -0.0774
16498W        W32392   8.349  13.338   4.344  0.2400 -0.0946  0.1289
16499W        W32393  15.670   8.566   2.759 -0.2355  0.1235 -0.2880
16500W        W32394  13.394  11.414   3.292 -0.2710 -0.1913  0.2115
16501W        W32395  10.779  10.457   5.725 -0.1050  0.0569  0.1241
16502W        W32396  14.275   9.933   1.483  0.0007  0.3066  0.0283
16503W        W32397   9.086  16.039  14.577  0.3844 -0.0764  0.1247
16504W        W32398  17.706   1.450   1.901 -0.1657  0.2139 -0.1083
16505W        W32399   1.550  14.794   4.951  0.4253  0.2856 -0.1693
16506W        W32400   6.582   6.527   4.642 -0.1278  0.1426  0.1016
16507W        W32401  17.756  12.711  13.312  0.0743  0.0068  0.2123
16508W        W32402  10.498   0.723  11.869  0.1936  0.0847 -0.0306
16509W        W32403   3.237   2.697   4.533 -0.1874  0.0500 -0.0061
16510W        W32404   2.249  17.676   1.059 -0.0541 -0.0379  0.1496
16511W        W32405  11.482  10.436   2.949 -0.4249 -0.1395 -0.4139
16512W        W32406   8.908   5.888  12.345  0.0220 -0.3702 -0.2130
16513W        W32407   8.985  14.173  16.266  0.4679 -0.4784  0.1831
16514W        W32408  10.000  14.442  16.515  0.1826 -0.0848 -0.1139
16515W        W32409  17.103   3.127   1.539  0.3577  0.0563  0.0109
16516W        W32410   3.659  12.204   5.351  0.0613  0.0247  0.0898
16517W        W32411  12.081  16.702   1.759  0.1302  0.1635 -0.2641
16518W        W32412  10.297  16.292   3.694  0.0713  0.3490 -0.2502
16519W        W32413   7.020   3.343   0.379  0.0271  0.1654  0.0721
16520W        W32414   3.266   4.791  12.152  0.2400 -0.0404  0.2831
16521W        W32415   4.854  14.842  11.654 -0.1673 -0.2784 -0.0513
16522W        W32416   9.189   2.682  14.767 -0.0743 -0.2250  0.0369
16523W        W32417   2.840   0.877   5.079  0.1806  0.1469 -0.0564
16524W        W32418   7.968   8.597  14.058  0.2770  0.1097 -0.1122
16525W        W32419   6.203  13.537   0.892 -0.3868 -0.2010 -0.0631
16526W        W32420  13.524  11.499   6.237  0.1322 -0.0219 -0.2109
16527W        W32421   4.639  15.450  14.710  0.2274 -0.4040  0.2685
16528W        W32422  17.704  13.012  14.798 -0.2420 -0.0775 -0.2205
16529W        W32423  16.734   2.572  12.262 -0.4949 -0.0615 -0.2154
16530W        W32424   0.061  12.118  16.803 -0.0205 -0.2085 -0.1677
16531W        W32425   4.633  15.326   1.160 -0.1576 -0.0575  0.3194
16532W        W32426   9.229  15.772   4.155 -0.0864 -0.1107 -0.0794
16533W        W32427  15.854  16.836   4.579 -0.0599 -0.0405 -0.1417
16534W        W32428  15.446   6.455  13.624  0.2779 -0.0927 -0.1182
16535W        W32429   1.150   2.561  16.784  0.1209  0.0426  0.1030
16536W        W32430   5.064   3.556  15.822 -0.2551  0.0153  0.2894
16537W        W32431  13.612   8.811   4.282  0.0408  0.2324  0.1552
16538W        W32432   3.395  10.695   3.588  0.2910  0.0285  0.0235
16539W        W32433  14.168  14.412   0.064 -0.0984 -0.0885  0.2208
16540W        W32434  11.230  12.948  12.137  0.1321  0.0754 -0.0807
16541W        W32435   2.767  15.699   1.940  0.2475 -0.2610  0.1906
16542W        W32436  13.766   1.244  15.346 -0.0830 -0.0948 -0.1988
16543W        W32437  12.214   6.112   1.443 -0.0363 -0.4327  0.1126
16544W        W32438  17.251  13.513   4.221 -0.1364  0.1854  0.0264
16545W        W32439   1.041   8.437   0.727  0.0467  0.0480  0.0409
16546W        W32440  12.137   2.720   2.366  0.0286  0.2395 -0.2273
16547W        W32441   9.791  14.700   2.664  0.0383  0.3126 -0.2978
16548W        W32442   3.156   5.250   4.275  0.2188 -0.0730  0.1803
16549W        W32443   6.854  10.012  12.574  0.1015 -0.1301 -0.0171
16550W        W32444   2.914   4.497  11.899  0.2273  0.0380 -0.1614
16551W        W32445  14.216  16.371   4.650  0.1074  0.0947  0.2769
16552W        W32446  11.307  14.984   2.421  0.0183 -0.0856 -0.2135
16553W        W32447   3.443  16.505  16.777 -0.0955  0.0548 -0.1111
16554W        W32448  15.957   8.178   2.914  0.1879 -0.3462  0.0918
16555W        W32449   0.948  16.372   1.342  0.0902 -0.1602 -0.1268
16556W        W32450   6.943   0.348   0.190 -0.0780 -0.1426 -0.1448
16557W        W32451   0.651   8.709   4.198 -0.2841  0.3558 -0.1026
16558W        W32452  12.650   3.277   2.687  0.3367 -0.0430  0.4210
16559W        W32453   6.764   5.493  12.400  0.2275  0.0036  0.3125
16560W        W32454   9.539   9.733  12.811  0.2006 -0.1315  0.4825
16561W        W32455   9.380   9.824   1.001  0.0026 -0.1210  0.0527
16562W        W32456  10.033  10.778  15.663 -0.3646  0.3652  0.0862
16563W        W32457   1.983   6.335   2.949  0.0891  0.1312  0.2580
16564W        W32458  17.727   6.421  11.631 -0.1891  0.1257 -0.1072
16565W        W32459   6.839  12.808  11.824 -0.3917 -0.2454 -0.2569
16566W        W32460  10.600  12.704  16.102  0.1964  0.0742  0.0330
16567W        W32461  17.334  10.271  12.379 -0.0511  0.0420 -0.1020
16568W        W32462   0.583   8.183   3.029 -0.0645  0.0473 -0.2333
16569W        W32463   5.893  16.434   3.839 -0.0128 -0.0399 -0.1170
16570W        W32464   6.293   0.000   4.199  0.0429 -0.2758  0.1073
16571W        W32465   6.322  10.286   5.626 -0.4050  0.0532  0.1417
16572W        W32466   4.220  13.259  13.044 -0.1009  0.0531 -0.1292
16573W        W32467  12.967   4.920  16.724 -0.0099 -0.2434 -0.1918
16574W        W32468  17.240  10.430  12.826  0.2542 -0.0104 -0.2989
16575W        W32469  13.794  16.123  15.485 -0.1049 -0.1555  0.0079
16576W        W32470   6.388   6.895   5.563  0.1397  0.0058  0.1115
16577W        W32471  11.464  13.658  14.212  0.0412 -0.0671 -0.2091
16578W        W32472  14.725   2.499  16.790  0.2148 -0.0759 -0.0194
16579W        W32473   6.748  17.218  12.556  0.1616 -0.0811 -0.2045
16580W        W32474  13.823   5.673   5.462 -0.1631  0.0528 -0.0526
16581W        W32475  14.562  15.355   2.824  0.2964  0.0723 -0.3942
16582W        W32476  10.073  14.750   2.231 -0.0793 -0.3117 -0.0309
16583W        W32477  12.875  13.442  15.536 -0.0497  0.0286 -0.0247
16584W        W32478   4.379  10.855   2.744  0.1040 -0.0847  0.1678
16585W        W32479   4.393  14.593   4.242  0.3843 -0.0543 -0.0083
16586W        W32480   8.524   5.618  12.071  0.0373  0.1685  0.0306
16587W        W32481  13.396  12.206  16.519  0.3021 -0.0862  0.0996
16588W        W32482  13.288  14.222  14.477  0.3122 -0.1553  0.0841
16589W        W32483   2.855   4.529  12.900 -0.0501 -0.0752  0.2185
16590W        W32484   7.209  14.749   5.626  0.1663 -0.1150  0.2253
16591W        W32485  12.314   8.906   2.071 -0.1156 -0.0397  0.1373
16592W        W32486   4.473   6.825  14.772  0.2240  0.2501  0.2039
16593W        W32487   7.770  15.591   4.276  0.0563 -0.0367 -0.2706
16594W        W32488  11.027   6.116   2.116 -0.1582 -0.0618  0.1325
16595W        W32489   8.240  12.120  14.528 -0.1450 -0.3957  0.2163
16596W        W32490  10.543   0.121  14.580 -0.2540 -0.2553 -0.1806
16597W        W32491   9.202  13.338  13.792 -0.0664  0.1574 -0.0704
16598W        W32492  15.300   4.560   2.637 -0.1468 -0.0466  0.2793
16599W        W32493  10.980  14.061  13.686  0.3394 -0.0071 -0.0483
16600W        W32494  16.540  16.178   2.811 -0.1858 -0.2024 -0.1150
16601W        W32495  17.569   4.302   0.599  0.0042 -0.1352  0.0516
16602W        W32496   8.826  16.271  13.925  0.2580 -0.0171 -0.0072
16603W        W32497   4.732  17.474   3.055  0.1588  0.0280 -0.1304
16604W        W32498   7.753   8.639  15.872  0.4088  0.0753  0.1167
16605W        W32499   1.196   0.170   0.251  0.2624 -0.0333 -0.0748
16606W        W32500   2.434   1.092   2.081 -0.2166 -0.0948 -0.2577
16607W        W32501   0.292   3.819   5.688 -0.1759 -0.2112 -0.0047
16608W        W32502  17.547  15.998   0.806 -0.0075  0.0255  0.0208
16609W        W32503   0.861  16.835  13.014  0.0720  0.3548 -0.0295
16610W        W32504   6.037  16.645   3.403  0.4088  0.0324  0.1722
16611W        W32505   8.567   2.546  15.011  0.0869 -0.1072  0.0085
16612W        W32506   3.800  11.033  11.774 -0.2327 -0.0190 -0.0557
16613W        W32507   8.186  11.875   3.954  0.0253  0.0231  0.2682
16614W        W32508   7.687  17.261   1.275  0.0870 -0.0415 -0.0479
16615W        W32509   2.991  10.779  16.728 -0.0440  0.1448 -0.3698
16616W        W32510   0.880   2.131  13.365 -0.1634  0.1490  0.1396
16617W        W32511   8.686  10.123  12.181 -0.1115 -0.0337 -0.3511
16618W        W32512   4.071   7.930  11.413 -0.2539 -0.0269  0.0065
16619W        W32513   7.866  14.528   3.235 -0.1332 -0.1348 -0.0553
16620W        W32514   3.101  10.652  11.983  0.1182  0.0022  0.1063
16621W        W32515   6.548  11.754   2.791 -0.0307 -0.1001 -0.1965
16622W        W32516   3.460   3.165   2.555  0.0340 -0.0743 -0.1921
16623W        W32517   5.997  11.195   4.758  0.1511  0.1791 -0.1131
16624W        W32518  11.200   2.687   3.337 -0.1315  0.1669  0.0180
16625W        W32519   6.195   9.757   5.341 -0.0593  0.3267  0.1191
16626W        W32520  16.031   0.634   0.670  0.0056  0.0202  0.0379
16627W        W32521   6.127   6.473  16.565  0.2151 -0.1350 -0.0389
16628W        W32522   5.046  16.995   2.321  0.2297 -0.3402  0.1202
16629W        W32523   5.431  13.474   0.467  0.0884  0.1771  0.1945
16630W        W32524  10.712   1.905   1.430  0.1301 -0.0931  0.2860
16631W        W32525  11.819  17.723  14.675  0.2868 -0.0210 -0.0946
16632W        W32526   6.852   6.637   3.861  0.1378  0.0420  0.1118
16633W        W32527  12.947   3.588  12.029  0.2940  0.0699  0.2816
16634W        W32528  12.514   4.264   3.735 -0.3760 -0.1000  0.1368
16635W        W32529  16.735  10.136  13.560 -0.0518  0.0732 -0.2280
16636W        W32530  14.948  10.560  15.332  0.1165 -0.4264  0.1640
16637W        W32531   8.412  13.976   1.502 -0.4547 -0.1152 -0.3782
16638W        W32532  11.696  14.951   5.497 -0.1396  0.3169 -0.0105
16639W        W32533   4.203  17.706   2.941  0.1441  0.1152 -0.0182
16640W        W32534  10.460  11.921   2.136  0.0385  0.0691 -0.0230
16641W        W32535  11.864   7.680   2.416  0.0108 -0.1359  0.0303
16642W        W32536   8.439  17.566  13.656 -0.1082 -0.1189  0.1994
16643W        W32537   3.110  16.226  14.212 -0.1156  0.1782  0.4516
16644W        W32538   9.291  13.668  11.244 -0.0659 -0.2482 -0.2699
16645W        W32539  14.169   4.438   5.681  0.0146  0.0951  0.1435
16646W        W32540  12.415  17.210  14.349 -0.0814 -0.0251  0.2085
16647W        W32541   6.219  17.623  13.390 -0.1954 -0.1313  0.0607
16648W        W32542  17.548  16.465  11.781  0.0966 -0.0952 -0.0528
16649W        W32543   4.401   0.248   1.685  0.3202  0.0132 -0.0486
16650W        W32544   7.673   0.671   2.076  0.0824  0.0290  0.1949
16651W        W32545  10.457  10.609  16.543  0.0162  0.3095 -0.3294
16652W        W32546  10.981  12.466  15.368  0.1823 -0.0162  0.1874
16653W        W32547   0.883  13.035   1.804  0.3555 -0.0543  0.0066
16654W        W32548   3.047   7.570  16.138 -0.1145  0.0389 -0.0178
16655W        W32549   7.322   8.621   3.277 -0.0231 -0.2067 -0.0072
16656W        W32550   9.680   9.363   4.847  0.2276  0.1949  0.0390
16657W        W32551   2.577  11.320   1.052  0.0140 -0.3071 -0.4688
16658W        W32552   8.201  10.989   0.910 -0.1807 -0.1920 -0.1066
16659W        W32553   1.109  12.459  13.058  0.2437 -0.0954 -0.2332
16660W        W32554  11.659  13.915   2.006  0.1757  0.2750 -0.2037
16661W        W32555   1.062   0.656   0.604  0.1920  0.0830 -0.4015
16662W        W32556   7.580   9.017   3.706 -0.1155 -0.4242  0.1425
16663W        W32557   1.210   3.644  12.325  0.3493 -0.1310 -0.1546
16664W        W32558  16.584  17.715   1.623  0.1017  0.1625 -0.2910
16665W        W32559   1.041  14.297   5.694 -0.1482  0.0057 -0.1472
16666W        W32560   3.546   7.355   0.542  0.2079 -0.2882 -0.2738
16667W        W32561   3.046   7.442  15.229 -0.0307  0.3473 -0.1750
16668W        W32562  15.915  13.419   5.330  0.4494 -0.1784  0.0867
16669W        W32563  13.093   4.199  14.328  0.2895 -0.2808  0.0874
16670W        W32564  17.447  10.475   4.900  0.1209 -0.2461  0.0235
16671W        W32565  13.459  11.937   6.675  0.0365 -0.2282 -0.0933
16672W        W32566   0.525  17.422   3.359 -0.3502 -0.3118 -0.0412
16673W        W32567  17.423   3.246   5.757  0.3529 -0.1326  0.0818
16674W        W32568   3.805   6.762  13.160  0.1494  0.2563 -0.2226
16675W        W32569   6.674   6.618   0.169 -0.1593  0.4321  0.0375
16676W        W32570  12.537   9.051   5.153 -0.3057 -0.1350  0.0539
16677W        W32571  17.689   8.219  11.186 -0.0785  0.0220  0.0516
16678W        W32572  15.299  12.440   4.083 -0.1453 -0.2200  0.3805
16679W        W32573   0.908  11.926   4.722 -0.0963 -0.1608  0.0752
16680W        W32574   0.385  12.713   2.773  0.0373 -0.2132  0.2003
16681W        W32575  10.301   1.931   6.430  0.0919  0.0597  0.2549
16682W        W32576   9.062   8.296  15.552  0.2260 -0.0642  0.0163
16683W        W32577  17.351  15.608   1.342 -0.1823 -0.0457  0.2344
16684W        W32578   9.967   7.143   2.811 -0.0957 -0.1331 -0.2210
16685W        W32579  15.307  13.297   4.387 -0.1677 -0.2774 -0.1243
16686W        W32580  13.287  13.771   5.220 -0.2653 -0.0273  0.0006
16687W        W32581  11.735   2.639   5.481  0.1049  0.1529 -0.1219
16688W        W32582  12.041   3.807   4.512 -0.1562  0.3458 -0.1131
16689W        W32583   8.658  16.145  12.547  0.1106 -0.3732 -0.0333
16690W        W32584   4.055   5.702  13.400  0.1319  0.0953 -0.0424
16691W        W32585   9.479   4.925   2.526 -0.0718  0.2201  0.3655
16692W        W32586  15.678   6.562  16.021 -0.0556 -0.0758 -0.1268
16693W        W32587  14.734   2.783   3.228 -0.0659 -0.1947  0.2530
16694W        W32588  15.411  10.941   4.845 -0.1579  0.2104 -0.0216
16695W        W32589  11.610   3.906  15.464  0.0938 -0.0565 -0.0192
16696W        W32590  16.866  16.961   1.317  0.0347  0.2810 -0.3223
16697W        W32591   4.627  16.902   2.632  0.0877  0.1382  0.1272
16698W        W32592   6.234  16.676   2.065 -0.3147 -0.0697  0.3212
16699W        W32593   6.959   3.282   1.158  0.1377 -0.0737  0.1684
16700W        W32594  12.642  12.400   3.464 -0.0494 -0.0598 -0.1122
16701W        W32595   0.893  13.915   4.947  0.0982  0.0094 -0.0281
16702W        W32596  16.894   5.089   2.580 -0.1151 -0.1946  0.1563
16703W        W32597   4.594  10.680   5.486  0.0683 -0.2414 -0.1314
16704W        W32598  12.978  11.075   5.182  0.0912  0.0732 -0.0764
16705W        W32599   8.937   4.683  13.552  0.0167  0.2277  0.0247
16706W        W32600   5.678   9.283   4.657  0.1337  0.2818 -0.0454
16707W        W32601  14.438  13.053   1.774  0.0192 -0.1963  0.1361
16708W        W32602   9.980  16.019   1.277 -0.0961  0.1474 -0.0885
16709W        W32603   6.433  16.218   4.423  0.2097 -0.0090  0.0217
16710W        W32604   6.020   2.442   2.016  0.0410 -0.0186 -0.1334
16711W        W32605   0.299   7.994  10.573 -0.0164  0.1614  0.0368
16712W        W32606   7.276   7.985   2.226 -0.2710  0.0455 -0.0045
16713W        W32607  10.806   2.300   4.803  0.0670 -0.1039 -0.1145
16714W        W32608  15.767   3.464   4.831 -0.2103  0.0334 -0.0673
16715W        W32609  17.789  17.021   3.164 -0.1461 -0.1156  0.0633
16716W        W32610   3.265   5.272  10.542  0.0018 -0.1594 -0.1482
16717W        W32611   5.275  17.459   6.239  0.1478 -0.2462  0.1877
16718W        W32612   0.823  16.102   4.085 -0.1106  0.2672  0.0276
16719W        W32613  15.379  15.867   2.250 -0.2064  0.0607  0.0846
16720W        W32614   9.428   3.237   2.038 -0.3872 -0.4560 -0.2390
16721W        W32615   3.458  13.674  15.613  0.0829 -0.2266 -0.1657
16722W        W32616  14.783   1.771   2.347 -0.0135 -0.2537 -0.0828
16723W        W32617   0.111   5.984   5.087  0.0283  0.0792 -0.1095
16724W        W32618   7.127   4.998  13.862 -0.2708  0.0845 -0.1329
16725W        W32619  14.221  13.410   3.171 -0.0034  0.5716 -0.3058
16726W        W32620   8.679   6.862  13.768  0.2152  0.1953 -0.2492
16727W        W32621   6.213   0.610   2.723  0.2299 -0.0981 -0.0557
16728W        W32622   6.939   1.847  13.978 -0.3781  0.1290 -0.2207
16729W        W32623   3.601   1.135   1.258 -0.0495  0.2801  0.2629
16730W        W32624   1.641  15.111   2.614  0.1453  0.5428 -0.1684
16731W        W32625   0.633  11.769   0.108 -0.0390  0.0792  0.0336
16732W        W32626  17.849   7.277   5.865  0.0469  0.1297  0.2896
16733W        W32627   4.291  13.410  16.523 -0.0592  0.1567 -0.0503
16734W        W32628  12.338   9.040  11.894  0.0134 -0.3375 -0.0312
16735W        W32629  12.816  15.944  16.442  0.1396  0.0600 -0.1800
16736W        W32630   4.647   1.877  16.838 -0.1227 -0.3202 -0.1301
16737W        W32631   6.101   0.103  13.758 -0.0788  0.2563 -0.3866
16738W        W32632   9.564  17.669  12.388 -0.0918  0.0073 -0.2822
16739W        W32633  11.216  13.307  14.400  0.2681 -0.1533 -0.0516
16740W        W32634  15.306  15.193  11.796  0.0797  0.0155  0.0545
16741W        W32635  13.813   5.147   3.816 -0.0312  0.2440 -0.2202
16742W        W32636   9.443   0.002   4.724 -0.1904  0.1393 -0.1685
16743W        W32637  16.645  12.781   4.267 -0.0474  0.1334  0.0461
16744W        W32638  14.577  16.845   2.041 -0.0334 -0.0303 -0.0845
16745W        W32639   9.318  12.608   2.054  0.0997  0.0490 -0.1546
16746W        W32640   6.730   8.241  14.383  0.0909  0.0530 -0.2064
16747W        W32641  15.918  12.018   4.377 -0.1439  0.0661 -0.0958
16748W        W32642  11.844  16.451  14.919 -0.0921  0.1183  0.0913
16749W        W32643   2.101  17.332  11.965  0.1014  0.2844 -0.0420
16750W        W32644  13.421   4.410   1.348  0.0956  0.0238 -0.2545
16751W        W32645  16.183   0.311   1.111  0.2103 -0.1301 -0.2793
16752W        W32646  11.482   1.941   3.093  0.1002  0.0500 -0.0902
16753W        W32647   1.163   6.881   4.695 -0.0283 -0.3958 -0.2062
16754W        W32648   3.492   7.356   3.213  0.1211 -0.0666 -0.0842
16755W        W32649   9.493   0.086  12.816 -0.0126 -0.2959  0.0505
16756W        W32650  12.085   3.941   3.099 -0.3128  0.2479 -0.2830
16757W        W32651   7.967   8.499  14.954  0.2237 -0.2031 -0.2453
16758W        W32652  12.039  16.772   1.286  0.0328 -0.2281 -0.0242
16759W        W32653  12.919   7.236   4.568 -0.1071 -0.2088 -0.0110
16760W        W32654   4.563   6.641  11.051 -0.0288 -0.1087  0.0231
16761W        W32655  15.954   5.962   4.028 -0.1371  0.2544  0.0018
16762W        W32656  10.447   1.148   2.656 -0.0614 -0.1634  0.2046
16763W        W32657  12.400   4.910  15.137  0.1752 -0.2020 -0.0088
16764W        W32658  16.567   3.419  12.742  0.1226 -0.1792 -0.0486
16765W        W32659  11.587   5.140  12.654 -0.1893  0.0418 -0.5328
16766W        W32660   7.972  11.474  14.322 -0.0593  0.1136  0.1742
16767W        W32661   7.672   9.109   5.536  0.2705  0.0523 -0.1601
16768W        W32662  17.688   8.575   1.998 -0.0803  0.3737  0.3184
16769W        W32663   6.833  15.720   4.818 -0.0420 -0.0592  0.0126
16770W        W32664  15.749   1.982   3.805 -0.3108  0.3330  0.2920
16771W        W32665   9.776   3.324   3.599  0.0211 -0.1082 -0.2814
16772W        W32666   6.845   0.460   4.237 -0.1636 -0.0368 -0.3121
16773W        W32667   6.986   0.637  13.074  0.0838 -0.0661  0.0616
16774W        W32668  16.584   0.428   3.225 -0.1375  0.0522 -0.1532
16775W        W32669  11.937   4.130  16.337  0.1962 -0.2020 -0.2672
16776W        W32670  15.959   6.214  11.464 -0.3062  0.3038 -0.0906
16777W        W32671   7.872  15.910  14.749  0.3364 -0.1146  0.1790
16778W        W32672  14.522   1.975   6.083  0.0289  0.0238  0.3489
16779W        W32673  17.651  17.489   1.115  0.0975 -0.3197  0.0863
16780W        W32674  10.366   4.900  11.953  0.1606 -0.1906 -0.0413
16781W        W32675   3.395   1.701  12.303  0.0097 -0.1676 -0.2521
16782W        W32676  10.284  15.289  12.373  0.4345  0.1034  0.2237
16783W        W32677  12.500   6.346  16.791 -0.1662  0.0980 -0.2753
16784W        W32678  14.057  13.706  15.138  0.3159 -0.3007 -0.2186
16785W        W32679   4.069  15.775   0.763  0.1088  0.1019 -0.2082
16786W        W32680   7.649  17.239  11.411 -0.0463  0.2260  0.1958
16787W        W32681   2.950  15.539   6.364  0.2707 -0.1146 -0.1096
16788W        W32682   4.763  11.379  15.620 -0.0745  0.0513  0.1317
16789W        W32683   3.624   3.233   0.064  0.1562 -0.0036 -0.2387
16790W        W32684  12.458   9.162  12.892  0.0882  0.2319 -0.3177
16791W        W32685  17.328  17.092   1.150  0.2100 -0.3941  0.2169
16792W        W32686   3.906   8.769  16.191  0.0780  0.1477 -0.3323
16793W        W32687   4.152  11.855   4.192  0.4033 -0.2253 -0.2494
16794W        W32688   6.505  13.439   3.646 -0.1310  0.0037  0.0279
16795W        W32689  12.192   2.881  14.207  0.1638  0.2302  0.2877
16796W        W32690   3.538  15.507   2.836 -0.1816  0.0377 -0.0576
16797W        W32691   5.582  14.062  15.482 -0.1907  0.1467  0.1276
16798W        W32692   9.972   4.675  11.875 -0.3254  0.3037 -0.3455
16799W        W32693   4.638   3.449  11.750 -0.1044 -0.0653  0.1523
16800W        W32694   6.723  10.172  11.982 -0.1865  0.5291 -0.0174
16801W        W32695   1.345  13.818  15.698 -0.3050  0.4435  0.1347
16802W        W32696   5.001   0.841  14.214  0.1518  0.1424  0.2345
16803W        W32697   5.130  10.552   5.313 -0.3150  0.1044  0.1121
16804W        W32698   2.696  17.785  12.427 -0.0191 -0.2422 -0.2464
16805W        W32699  14.120  10.160  13.191 -0.0570 -0.3572  0.2126
16806W        W32700  14.576  17.548   3.842  0.0031  0.1460 -0.1593
16807W        W32701   1.876  17.237  16.285  0.1554  0.1396  0.0034
16808W        W32702   4.450  11.888   0.361 -0.0549 -0.1615 -0.2250
16809W        W32703   2.455   2.502  15.686 -0.2327  0.2741  0.2054
16810W        W32704  16.907  10.073   1.499 -0.0555 -0.3312  0.0950
16811W        W32705  10.146  13.225   2.443  0.0869 -0.0485  0.2313
16812W        W32706  11.153   8.212  15.550 -0.2683 -0.0211  0.0992
16813W        W32707   6.555   6.141   0.154 -0.2564 -0.0805 -0.0990
16814W        W32708  17.109  17.594   2.926 -0.0304  0.2414 -0.1634
16815W        W32709   9.036  10.761   3.474  0.2543  0.0191  0.1910
16816W        W32710   5.323   6.066  12.908  0.1161  0.0580 -0.0968
16817W        W32711   6.324  11.053  12.947  0.0809 -0.0205  0.2924
16818W        W32712   2.848  14.505  16.707 -0.0498  0.2660 -0.0307
16819W        W32713   2.029   4.902   0.705  0.1363 -0.2102  0.1967
16820W        W32714   6.392   8.451  15.943 -0.1249 -0.0198  0.0060
16821W        W32715  14.495   4.847   3.969 -0.1500 -0.4290 -0.2186
16822W        W32716   8.671  15.374   2.883  0.1122  0.0026  0.0614
16823W        W32717   9.953   2.717  14.384 -0.1965 -0.0794  0.1429
16824W        W32718   4.595  17.137  12.512 -0.3724 -0.0834  0.2471
16825W        W32719  15.265  10.105   2.385 -0.0731  0.2725  0.0553
16826W        W32720   9.355   8.004  13.275 -0.0614 -0.0287  0.1283
16827W        W32721  12.678   9.032   4.159  0.0724  0.2412  0.0952
16828W        W32722   1.250  11.346   1.234 -0.1218  0.0691 -0.0181
16829W        W32723  11.459   0.697   4.720 -0.0389 -0.1090  0.2940
16830W        W32724   0.476   3.965   5.072  0.2737 -0.2937 -0.0427
16831W        W32725  16.662  13.003  16.771 -0.1192  0.0506 -0.1858
16832W        W32726   3.580   1.344   0.732  0.2116  0.1247 -0.1620
16833W        W32727  10.220   3.703  15.501  0.1166  0.2747  0.4717
16834W        W32728  16.543   5.930   1.505  0.0756 -0.1377  0.0769
16835W        W32729  14.087  13.476   1.721 -0.5343 -0.0668  0.1970
16836W        W32730   8.757  17.655  16.199 -0.0223  0.0219  0.2011
16837W        W32731  10.680  16.412  13.912  0.2692  0.0077  0.3069
16838W        W32732   9.545   3.938   2.866  0.2276  0.0291 -0.0220
16839W        W32733  14.810  13.494   1.022  0.1437 -0.2568 -0.2558
16840W        W32734  15.688  17.000  12.138 -0.0939  0.1021  0.4100
16841W        W32735   3.657  15.584   4.678  0.0260  0.1599 -0.2310
16842W        W32736  12.205   2.034  15.348 -0.0429  0.0975  0.3447
16843W        W32737   3.213   5.551   2.060 -0.0001 -0.3125 -0.0471
16844W        W32738   3.714  13.665  14.515 -0.0405  0.2275  0.1089
16845W        W32739  10.387  13.585  15.876  0.3178 -0.2717 -0.1501
16846W        W32740   7.505   2.330   0.776 -0.0124  0.1929 -0.0242
16847W        W32741   1.309   7.470  16.919  0.1489  0.0965 -0.2387
16848W        W32742   5.929  15.836  16.891  0.2545  0.1014 -0.2052
16849W        W32743  14.672  16.707   0.921 -0.2279  0.2431  0.0605
16850W        W32744   0.203  12.761   0.502  0.2170  0.2295 -0.1108
16851W        W32745   2.308   2.045  12.265 -0.0349  0.1796 -0.0809
16852W        W32746   6.178  13.735   2.119  0.2236  0.2358  0.0972
16853W        W32747  14.632   4.564   5.820 -0.0466 -0.1124 -0.1189
16854W        W32748   6.587  10.956   3.196  0.0158 -0.1441  0.1212
16855W        W32749  10.395   5.080   4.015 -0.1086  0.0350  0.0091
16856W        W32750   7.009   1.465   1.482  0.0322 -0.3001 -0.0745
16857W        W32751   5.322  15.874   6.497  0.3609 -0.1507  0.0485
16858W        W32752   8.317  16.373   3.441  0.2887 -0.1642  0.2180
16859W        W32753   3.810   7.555   2.813 -0.0135  0.1064 -0.1597
16860W        W32754  12.964  10.140   5.843 -0.0180 -0.2854  0.0136
16861W        W32755   8.565   1.022  11.692  0.1481  0.3453 -0.2650
16862W        W32756  13.184  11.056   2.392  0.2042 -0.0658 -0.1307
16863W        W32757  10.888   0.690  11.576  0.1917  0.2381  0.0635
16864W        W32758   0.673  14.704   3.958  0.1676  0.1103 -0.1873
16865W        W32759   4.411   6.174  15.537 -0.1474  0.1531  0.0238
16866W        W32760  14.801   0.684   3.797 -0.3292  0.1828  0.0026
16867W        W32761   4.716  14.367   2.969  0.1812  0.1676  0.3508
16868W        W32762  14.835  11.437   6.044 -0.0319 -0.2908 -0.0489
16869W        W32763   5.012  16.096   5.472  0.1379  0.1392  0.1700
16870W        W32764   2.409   9.533  16.423 -0.0076 -0.1771 -0.0423
16871W        W32765  12.550   3.052  16.416  0.0047  0.1553 -0.0323
16872W        W32766  11.558  17.553   5.410 -0.1653  0.0368  0.1229
16873W        W32767   8.816  12.424   2.969  0.1359  0.0427 -0.1415
16874W        W32768  15.374  17.809   2.594  0.1917  0.1807 -0.2368
16875W        W32769   8.759   0.078  12.550  0.2436 -0.0432 -0.0701
16876W        W32770   8.760   6.606   3.078 -0.1642 -0.1445  0.1717
16877W        W32771   5.563  11.858  16.087 -0.0694  0.2264 -0.0228
16878W        W32772  11.772   9.402   4.162 -0.0820 -0.0960 -0.0309
16879W        W32773  15.862  12.802   1.297 -0.1493  0.1547  0.3870
16880W        W32774  14.830   6.919   1.005  0.1418  0.0462  0.1576
16881W        W32775   8.759  11.236  16.154  0.3017  0.1411  0.0307
16882W        W32776   5.846   0.984  14.752 -0.0701 -0.0339 -0.1977
16883W        W32777   8.985  12.133   5.917 -0.1381 -0.0053 -0.0581
16884W        W32778   0.082  13.412  14.048  0.0337  0.0676 -0.0980
16885W        W32779  13.802   3.724  16.717  0.4043  0.1769  0.1132
16886W        W32780   2.874   8.749  14.409 -0.2011  0.2090 -0.0908
16887W        W32781   2.746   0.673   1.991 -0.0100  0.0930 -0.3298
16888W        W32782   5.433   4.422   5.029  0.2333  0.0984  0.1789
16889W        W32783   0.895  13.864   0.025 -0.0684  0.0878  0.2839
16890W        W32784   9.898   9.869  12.419  0.1254 -0.2469 -0.0107
16891W        W32785  10.128   8.733  15.365 -0.1958  0.1023  0.0268
16892W        W32786  15.369   5.449   2.510  0.1394 -0.0498 -0.1760
16893W        W32787   5.508  16.981  12.324 -0.0972  0.0626 -0.0583
16894W        W32788   5.134   4.632   5.360 -0.0331  0.2268  0.1779
16895W        W32789  15.225   8.961   2.124 -0.0065  0.0153  0.1754
16896W        W32790   9.727   3.276   1.346 -0.1582  0.0257  0.0136
16897W        W32791  11.980  10.109   2.899  0.0096 -0.0257 -0.0016
16898W        W32792   8.778   1.769   5.036  0.0278 -0.1169  0.0550
16899W        W32793  11.950   7.079   1.003 -0.1634 -0.0196  0.2159
16900W        W32794  11.132   0.351  16.887  0.2299 -0.2329  0.1085
16901W        W32795   0.925   2.002  11.985 -0.0626  0.2356  0.0859
16902W        W32796   9.191  16.602   1.078  0.0576 -0.1317  0.1486
16903W        W32797   9.431   8.338  14.258  0.0873  0.1776 -0.1596
16904W        W32798   8.769   2.282   3.135 -0.3395 -0.1523  0.7143
16905W        W32799  13.758   9.762   4.101 -0.0816 -0.1008  0.2726
16906W        W32800   4.814   1.614   5.710  0.2113  0.1243 -0.4397
16907W        W32801  14.823   9.169   1.434 -0.1928  0.0561 -0.2429
16908W        W32802   7.192   8.511  13.488 -0.0138 -0.0241  0.0413
16909W        W32803   9.689   9.619   0.288  0.0669  0.3162  0.0173
16910W        W32804  12.325   3.752   5.938  0.1393 -0.0132 -0.0764
16911W        W32805   9.215   2.540   0.720 -0.2176 -0.1111 -0.2762
16912W        W32806  15.430   1.534   4.326  0.0470 -0.3527 -0.0289
16913W        W32807  16.840   9.333   4.588 -0.0159  0.0571 -0.1376
16914W        W32808   0.563   3.446   2.310  0.0886 -0.0232  0.1161
16915W        W32809   9.023   6.028  16.564 -0.0668  0.1282 -0.1562
16916W        W32810  14.552  17.282  14.719 -0.1252 -0.2166 -0.0539
16917W        W32811   2.413   6.935  12.006  0.0379 -0.0310 -0.0473
16918W        W32812   1.918   1.840  12.499 -0.0710  0.0766  0.1843
16919W        W32813   4.693  11.442   4.699 -0.1586  0.1987  0.0157
16920W        W32814  12.571  14.808   2.410  0.3154 -0.1663 -0.0349
16921W        W32815   1.412   5.600   1.907 -0.2749 -0.1638 -0.0212
16922W        W32816   9.467   3.407   2.530  0.1067  0.0562  0.1450
16923W        W32817  13.879   8.780   1.532 -0.0607 -0.0015 -0.2527
16924W        W32818   8.666  16.978   0.834 -0.1223  0.1581  0.0963
16925W        W32819  12.175  11.440  15.569 -0.2358  0.2576 -0.1398
16926W        W32820   6.391   2.936  14.409 -0.1312 -0.0864  0.0379
16927W        W32821   1.248   4.512  13.357  0.0070  0.0902 -0.0045
16928W        W32822  17.505  12.683  12.845 -0.1297 -0.0911 -0.1368
16929W        W32823  14.432   2.144   4.314  0.1578  0.3972 -0.2528
16930W        W32824  12.490   4.454   5.156 -0.1490 -0.3072  0.0036
16931W        W32825  11.608   1.392  10.436  0.3038  0.1043 -0.1274
16932W        W32826   6.921  12.267   0.253 -0.0377  0.1810  0.2536
16933W        W32827   0.674  16.458   3.637 -0.1290 -0.0761 -0.1118
16934W        W32828   7.131  12.558  15.139 -0.4229 -0.1475 -0.0123
16935W        W32829  14.331  10.314   5.890 -0.2526 -0.0901  0.0826
16936W        W32830  17.008   0.306   0.700 -0.2342  0.2696  0.3124
16937W        W32831  12.173   3.151  10.172  0.1851 -0.0100 -0.0568
16938W        W32832   2.555  16.161  14.980  0.1034  0.3304 -0.0538
16939W        W32833   7.003  12.332   5.678  0.1843  0.1038 -0.2097
16940W        W32834   1.154  11.047  13.522  0.1890 -0.0772 -0.1158
16941W        W32835   1.376  14.527  16.535  0.0131 -0.1695  0.1869
16942W        W32836   3.128   3.875   3.652 -0.1990  0.2461 -0.1554
16943W        W32837  11.880  11.967   1.865 -0.1135 -0.1574  0.3955
16944W        W32838  11.395   1.047  13.978  0.5502  0.0226 -0.1105
16945W        W32839  12.475  10.337   0.870  0.1457 -0.1021  0.2162
16946W        W32840  17.037  17.679  14.567  0.2054  0.2980 -0.3445
16947W        W32841   9.309  13.921   5.340 -0.3494 -0.0710  0.1296
16948W        W32842   7.359   4.136   5.603 -0.4032 -0.1643 -0.1139
16949W        W32843   7.459  17.071  16.376  0.1349  0.0599 -0.1913
16950W        W32844  16.644  13.180  12.970 -0.1392 -0.1565 -0.1812
16951W        W32845   6.645   9.874   5.527  0.0145  0.0049 -0.1323
16952W        W32846   1.555   4.432   3.213 -0.0897 -0.1829  0.0107
16953W        W32847   1.408   4.224   4.445  0.0110  0.3250  0.0302
16954W        W32848  17.686   9.277  12.534 -0.0178  0.1327 -0.2676
16955W        W32849  10.851   5.241  14.172  0.1707 -0.1743  0.2373
16956W        W32850   6.026   8.077  11.655  0.2370  0.0779 -0.1655
16957W        W32851   3.187  10.774   4.428 -0.2658 -0.0865 -0.1205
16958W        W32852  15.359   5.044   5.715 -0.2602  0.1619  0.1283
16959W        W32853   7.390  13.732   1.573 -0.0690 -0.1156 -0.0624
16960W        W32854  14.436   0.644  16.634  0.0961  0.0692 -0.2021
16961W        W32855   0.688  16.957   3.509  0.0329 -0.1114 -0.0717
16962W        W32856  11.996   3.882  11.941 -0.2069 -0.2164 -0.0323
16963W        W32857   3.681  12.461  14.390  0.0547  0.1509  0.0017
16964W        W32858  13.521   1.049   3.534 -0.1010  0.0844 -0.1988
16965W        W32859   7.536   6.329  16.919 -0.2950 -0.2327  0.0215
16966W        W32860  13.689   3.821  10.987 -0.3143 -0.1439  0.0647
16967W        W32861   8.836   7.318  15.191  0.0204  0.0554 -0.0022
16968W        W32862  17.514  16.646   5.772  0.2314  0.1421 -0.2223
16969W        W32863  13.785  10.422  13.746 -0.3195 -0.0169  0.0554
16970W        W32864   9.734   1.652   0.503 -0.0103 -0.2388  0.2548
16971W        W32865   6.405   0.487  14.059 -0.0835  0.0355 -0.1264
16972W        W32866  12.034   2.416  14.565  0.0545  0.2127 -0.3173
16973W        W32867   7.079   6.079  11.065  0.1467  0.3414  0.2590
16974W        W32868   6.255   6.914   4.552 -0.3993  0.1395  0.0685
16975W        W32869  11.379   8.819   0.685 -0.1089 -0.2167  0.1149
16976W        W32870   4.740  16.797   4.315  0.0778  0.2915 -0.3904
16977W        W32871  10.161   0.955  14.543  0.2406  0.2773  0.0754
16978W        W32872   1.405  15.615   0.286 -0.0042  0.0453 -0.3730
16979W        W32873   1.174  11.758   0.707 -0.2539  0.1489  0.0515
16980W        W32874   6.017  14.946   2.097 -0.0573 -0.1191  0.1070
16981W        W32875  16.685   5.244   0.423 -0.0470 -0.1450  0.1705
16982W        W32876  11.797   7.324   0.620  0.0229  0.0742 -0.0156
16983W        W32877   5.374   6.949  16.851 -0.2963 -0.5064  0.1138
16984W        W32878  14.949  12.450   5.344 -0.0055  0.0030 -0.2319
16985W        W32879  12.199  13.284  14.639  0.0645 -0.2947 -0.1294
16986W        W32880   8.331   9.482  15.448 -0.1200 -0.1985 -0.2048
16987W        W32881   7.178  16.632   0.939  0.0086  0.0197 -0.0718
16988W        W32882   8.011  17.127  16.463 -0.0003  0.0340  0.0914
16989W        W32883   8.003  12.587   4.329  0.1105 -0.4017 -0.0673
16990W        W32884   5.168  16.997   4.708 -0.2495  0.0502  0.2160
16991W        W32885   3.911   4.923  15.705  0.0586  0.1180  0.0523
16992W        W32886   4.793   3.307   4.045 -0.0161 -0.3269  0.0490
16993W        W32887  10.789   1.956  11.903 -0.0683  0.1633 -0.2931
16994W        W32888  15.616   8.630   3.578  0.1250 -0.0109 -0.1172
16995W        W32889   7.062   3.959   4.400 -0.1041 -0.1730 -0.2451
16996W        W32890  13.753   2.170   0.209 -0.1462  0.1254 -0.1827
16997W        W32891   3.104   8.840  16.745  0.2247 -0.3013 -0.1186
16998W        W32892  15.506  16.561  12.337 -0.0509 -0.0401  0.1105
16999W        W32893  12.220   4.904  16.852  0.0787  0.0324  0.2264
17000W        W32894   5.895   1.123   3.451  0.1974 -0.2385  0.0229
17001W        W32895   3.490   7.929  16.893  0.0760 -0.1212  0.0558
17002W        W32896  15.677   8.548  12.800  0.1742  0.1678 -0.0698
17003W        W32897   8.717  16.420   4.415  0.1619  0.0418  0.0314
17004W        W32898   1.813   8.074   2.492  0.0801  0.1293  0.1818
17005W        W32899  16.762  13.686   1.751  0.0177  0.2138 -0.1809
17006W        W32900  16.521  13.020  14.777  0.0000 -0.0035 -0.1125
17007W        W32901  12.381   9.220   6.338  0.4239  0.4202  0.0383
17008W        W32902   5.856  13.685  11.839  0.0441 -0.0753  0.2307
17009W        W32903   9.151  10.960  16.332  0.0453 -0.0139  0.0659
17010W        W32904   1.203   7.146   3.308  0.2814  0.1386 -0.3546
17011W        W32905  15.853  10.006   1.873 -0.0012 -0.0657  0.1515
17012W        W32906   1.975  13.539  13.844 -0.0989 -0.1202 -0.1263
17013W        W32907   3.060  16.553   5.846 -0.1884 -0.0919  0.0320
17014W        W32908  12.752   1.633  16.637 -0.0433  0.2474  0.1962
17015W        W32909   5.707   9.049   3.031  0.0131 -0.1687  0.2604
17016W        W32910  10.612  11.450   2.316  0.0712 -0.2411 -0.1022
17017W        W32911   6.915  14.796   5.224  0.0618  0.1826  0.1566
17018W        W32912   2.518  17.640  16.454 -0.1188 -0.0209 -0.1679
17019W        W32913   5.374  11.707   3.661  0.1906 -0.2936 -0.3561
17020W        W32914   0.111  17.685  12.597  0.3224 -0.2384 -0.2406
17021W        W32915   5.499   8.586   1.894  0.3163 -0.0457 -0.0359
17022W        W32916   3.005   5.352  11.553  0.0305  0.2664  0.0990
17023W        W32917  17.851   2.161   4.697 -0.0516 -0.1394  0.1492
17024W        W32918  16.446  13.358   2.311 -0.0168 -0.3903 -0.1257
17025W        W32919  11.058   3.378  14.875  0.0682  0.0887  0.3245
17026W        W32920   1.825   1.313   4.010 -0.0507  0.2584 -0.4063
17027W        W32921   7.895   7.344   4.107  0.2571  0.1255  0.1498
17028W        W32922  14.629  14.627   2.132  0.1100  0.2138  0.2510
17029W        W32923   1.170   9.896   0.943  0.0315  0.2232  0.0658
17030W        W32924   6.376   8.415   5.524 -0.0651 -0.3371  0.1159
17031W        W32925   0.065  14.098   3.418 -0.2201 -0.0326 -0.3155
17032W        W32926   4.259  12.975  12.028 -0.0797 -0.1880 -0.0984
17033W        W32927   9.690  13.210  15.198 -0.1992 -0.0989  0.0617
17034W        W32928   3.172   8.922   1.572 -0.2287 -0.0982  0.0587
17035W        W32929  11.279  13.070   5.747  0.1955  0.2126 -0.1568
17036W        W32930   5.153  11.340  13.639  0.4408  0.1031  0.2052
17037W        W32931  17.075  16.134   0.814  0.1365  0.1599 -0.1714
17038W        W32932   6.699   2.245   0.084 -0.1257 -0.0221 -0.4766
17039W        W32933   8.701  16.001   0.431  0.0531  0.2456 -0.2191
17040W        W32934   8.310   1.943   2.740  0.1593  0.1016 -0.1787
17041W        W32935  11.352   9.493  15.110 -0.1554 -0.1819  0.0152
17042W        W32936   0.143  11.365  14.304 -0.1641 -0.3803  0.0575
17043W        W32937  16.930   0.829  12.344  0.1467 -0.1202 -0.0498
17044W        W32938   3.263  17.380   2.645  0.2277  0.1448  0.1311
17045W        W32939  13.274   4.358  13.606  0.0749 -0.2835  0.0936
17046W        W32940  13.224   2.669  15.142  0.3092  0.1718  0.2141
17047W        W32941  15.111  16.594   5.107  0.4357 -0.1006  0.3026
17048W        W32942   3.624  13.576  13.550 -0.1738 -0.0560  0.3061
17049W        W32943   1.698  15.173   5.594  0.1059  0.1965  0.0707
17050W        W32944  16.470  13.368   0.143 -0.1424  0.2041 -0.0593
17051W        W32945  11.038  17.797   2.508  0.0160 -0.2485 -0.1767
17052W        W32946   1.107  11.858  11.810 -0.0133  0.1285  0.1133
17053W        W32947   4.623  16.997  13.849 -0.1526  0.2363 -0.1352
17054W        W32948  13.518   8.387   4.589  0.3414 -0.0123 -0.2061
17055W        W32949   0.136   4.162  15.884  0.2521 -0.1629 -0.0467
17056W        W32950  16.355  16.432  15.873 -0.0683 -0.1746  0.0880
17057W        W32951  14.005   1.211   0.756  0.4554  0.2777 -0.2684
17058W        W32952  13.732  11.299  16.477  0.5902  0.0298  0.3103
17059W        W32953  15.617  15.976   4.557 -0.0590 -0.1296 -0.1786
17060W        W32954   8.316   8.166   4.766  0.1289  0.2489  0.1185
17061W        W32955  17.659   6.655   2.048 -0.1503 -0.3618  0.0395
17062W        W32956  16.902   2.766  15.478  0.0328  0.0295 -0.1389
17063W        W32957  14.324  10.440  12.239 -0.0386  0.0668 -0.1471
17064W        W32958   5.847  14.944   6.578 -0.3869  0.0768 -0.0584
17065W        W32959   8.616   0.143   4.285 -0.1690  0.0613  0.0228
17066W        W32960   4.022  14.617  16.679  0.3609  0.2203 -0.2903
17067W        W32961   2.396   7.942  14.097 -0.1594 -0.0708 -0.1821
17068W        W32962  10.977  14.422   2.455 -0.0706 -0.3894 -0.0077
17069W        W32963  16.489   3.097   5.836 -0.0173 -0.0083 -0.2136
17070W        W32964  10.284  13.647  14.649 -0.0263 -0.2499 -0.3642
17071W        W32965   0.325   8.441  16.714 -0.1375 -0.0548  0.2273
17072W        W32966   9.146   6.902  12.246  0.2881  0.1148 -0.1241
17073W        W32967   9.022   5.555  16.789  0.2631  0.0072  0.0428
17074W        W32968  16.951  10.881  14.224 -0.1877  0.0823 -0.1356
17075W        W32969   3.431  17.145   1.014 -0.0992  0.2968 -0.0187
17076W        W32970  16.152   7.701   3.081 -0.2823  0.2455 -0.1499
17077W        W32971  14.585  11.088   5.234  0.1017 -0.0543  0.1353
17078W        W32972  13.721   9.012  16.600  0.0612 -0.3114 -0.0992
17079W        W32973   6.901   0.675  14.900  0.2047 -0.3315 -0.0039
17080W        W32974  13.548   4.607  16.293 -0.1210 -0.0662  0.2850
17081W        W32975   8.665   6.450  16.653 -0.2886 -0.3338 -0.3574
17082W        W32976  12.215  14.657  15.126 -0.1293 -0.0044  0.4326
17083W        W32977   9.977  10.562  14.974 -0.2540 -0.0915 -0.0593
17084W        W32978  13.672  14.160   1.794  0.4298  0.0880 -0.1966
17085W        W32979  17.072  10.768   2.015 -0.0448  0.0120  0.2925
17086W        W32980  16.490   3.459   2.192 -0.1764  0.1147 -0.1660
17087W        W32981   7.443   1.528  11.558  0.1654 -0.1339  0.1176
17088W        W32982   8.904   5.612   5.566 -0.0205 -0.3201  0.2245
17089W        W32983  17.558   6.284  14.655  0.2557  0.0596  0.2722
17090W        W32984   5.168  14.167  14.755  0.1297  0.0186  0.0020
17091W        W32985   9.389  17.570  14.266 -0.0939  0.1481 -0.0939
17092W        W32986   1.438  15.665  14.641  0.1596 -0.1728  0.0366
17093W        W32987   5.501   3.808   3.378  0.1106 -0.0586 -0.1440
17094W        W32988  11.612   6.600  16.827  0.0892 -0.4568  0.0364
17095W        W32989  15.355  11.584  14.457 -0.0429  0.1535 -0.1143
17096W        W32990   7.023  13.368  13.460 -0.2626 -0.0500  0.1954
17097W        W32991   5.226   1.918  13.304  0.3604 -0.1936 -0.0274
17098W        W32992  13.630   9.309  15.824  0.3493  0.1411  0.0372
17099W        W32993   9.296  17.098  16.432  0.2514  0.0528 -0.0939
17100W        W32994   0.725   7.949   4.294 -0.3826 -0.1334 -0.1606
17101W        W32995  13.044  16.904  12.500 -0.0229  0.2301 -0.3233
17102W        W32996   4.673   1.336   5.288  0.1016 -0.1880  0.1908
17103W        W32997   3.680  17.253   4.967 -0.1470 -0.2022 -0.1267
17104W        W32998  13.083   8.484  11.926  0.1874 -0.1381  0.1381
17105W        W32999  10.276   3.518   2.846  0.2644  0.0683  0.2126
17106W        W33000   4.927  12.417   3.993  0.1185  0.0311 -0.0334
17107W        W33001  15.366  14.771   2.666  0.2334  0.1993 -0.1083
17108W        W33002   0.691  14.508  15.633 -0.3052  0.3968 -0.0216
17109W        W33003   9.730  13.253   5.574  0.1673  0.0719  0.1518
17110W        W33004   6.529  11.565  14.457  0.1912  0.0916 -0.0455
17111W        W33005   8.740  10.472   3.173  0.0466 -0.1711 -0.3482
17112W        W33006   6.120   7.325   2.806  0.1210 -0.1195  0.0748
17113W        W33007   5.543  16.436   0.853 -0.4481 -0.0353  0.0943
17114W        W33008  10.057   6.465  14.880 -0.1101  0.0663  0.0795
17115W        W33009   7.228   1.009  15.166 -0.3664 -0.2592 -0.1681
17116W        W33010  15.653   9.704   2.559 -0.0638  0.3974 -0.2461
17117W        W33011  15.681   0.183  16.811  0.2512 -0.1151 -0.2844
17118W        W33012   3.400   1.882   1.516 -0.0753 -0.1999  0.0734
17119W        W33013   9.173   3.940  16.286 -0.0796 -0.4339 -0.2253
17120W        W33014   1.684  16.901  14.562  0.1233  0.1047 -0.0950
17121W        W33015   2.804  16.436  13.919  0.1633 -0.1521 -0.3111
17122W        W33016  13.387   4.293  12.194 -0.3614  0.0031  0.1423
17123W        W33017   9.404   2.819  14.284 -0.0526  0.2416 -0.0033
17124W        W33018   8.740  16.141  15.531  0.0545  0.1501  0.4073
17125W        W33019   7.083  14.721   2.327  0.0648  0.0852  0.1628
17126W        W33020   9.577   7.502   0.051 -0.1640  0.0716 -0.2463
17127W        W33021  10.581  15.811  15.269  0.3261 -0.1623 -0.0247
17128W        W33022  13.422   2.845   1.090  0.1147  0.2738  0.0647
17129W        W33023  11.675   8.468  13.805  0.1884 -0.1399  0.1704
17130W        W33024   4.418  14.809  14.008  0.2650 -0.2973 -0.0837
17131W        W33025  15.212  10.605  16.160  0.0074 -0.0754 -0.1911
17132W        W33026   4.542  13.950   3.148 -0.0892  0.0517 -0.0733
17133W        W33027  13.166   5.386   2.222  0.1149 -0.3390 -0.1155
17134W        W33028   7.924  16.062   3.641  0.3711 -0.0898 -0.0585
17135W        W33029   6.181  14.693   3.448 -0.2819  0.2753  0.2565
17136W        W33030  13.305  10.581   4.065 -0.2923 -0.0644 -0.3596
17137W        W33031   8.550  16.285  13.086 -0.0641 -0.3870  0.1746
17138W        W33032   3.547   0.612   1.236 -0.2113  0.0781  0.1924
17139W        W33033   6.129   6.836   2.922  0.4290  0.0752  0.0329
17140W        W33034   8.800   2.222   5.369 -0.0369  0.1995 -0.0774
17141W        W33035   5.931   5.091  13.873  0.0517  0.2016 -0.0917
17142W        W33036   0.268  11.420   2.238  0.5622  0.0782  0.2333
17143W        W33037  14.199  14.030  12.138 -0.2416  0.1959 -0.3040
17144W        W33038  14.183   7.344  14.872 -0.0837 -0.1138 -0.2913
17145W        W33039   3.281   9.543   0.966 -0.0174  0.2185  0.1436
17146W        W33040   8.844   6.453  13.951  0.0103 -0.0964  0.1163
17147W        W33041   1.502   7.971  12.147 -0.0971 -0.2907 -0.1434
17148W        W33042   4.284   3.686   1.130 -0.0009  0.1054 -0.0879
17149W        W33043  14.497  13.610  14.992 -0.1021 -0.1921  0.1552
17150W        W33044   8.353  12.907   4.030  0.0214 -0.0336  0.0380
17151W        W33045  14.914   6.461   1.616 -0.0490 -0.2595  0.3563
17152W        W33046   9.490  11.856  15.801  0.2749  0.2917  0.1787
17153W        W33047  10.851   5.986   3.700  0.3055  0.1935 -0.0471
17154W        W33048  14.067   9.586   6.372  0.1310  0.1758 -0.0027
17155W        W33049   8.430   8.714   1.307  0.0626 -0.1543 -0.0729
17156W        W33050  16.899   6.681   4.725 -0.0342 -0.1216 -0.0390
17157W        W33051  16.080   9.790   2.339 -0.0486  0.3739  0.1698
17158W        W33052   9.347   5.541   1.513  0.0521  0.0095  0.1275
17159W        W33053  17.451   8.138   3.860 -0.2111  0.4035  0.2388
17160W        W33054   3.110  12.432   1.875  0.2792  0.2450  0.1382
17161W        W33055  12.293   0.724  12.325  0.0521  0.1822  0.0610
17162W        W33056   3.554   6.822   0.380  0.0352 -0.0712  0.4738
17163W        W33057   3.085  17.109  15.080 -0.0626  0.0649 -0.1885
17164W        W33058  14.781  15.364  14.714  0.0783 -0.1382  0.0067
17165W        W33059   6.146   2.290   0.997  0.0043  0.2256  0.3238
17166W        W33060   3.689   5.534  14.624 -0.2379 -0.2012 -0.0643
17167W        W33061   1.595   6.069  13.466 -0.0739 -0.4060 -0.0352
17168W        W33062   9.074  10.295   0.180 -0.3274 -0.0116  0.0733
17169W        W33063  11.959   5.337  12.412  0.0320 -0.2290  0.1613
17170W        W33064  12.162  11.639  14.610 -0.2770  0.1003  0.4547
17171W        W33065  14.123  13.162  16.726 -0.3341 -0.2012  0.1529
17172W        W33066  17.211  13.860  14.506 -0.1855  0.2385 -0.0110
17173W        W33067  12.796  16.880  11.810 -0.1505 -0.1150 -0.0554
17174W        W33068  16.509   7.674   2.731 -0.2460  0.1306  0.0147
17175W        W33069   1.145  10.892  11.672 -0.0077 -0.1479 -0.1795
17176W        W33070  11.006  17.660  15.840  0.1205 -0.0891 -0.0803
17177W        W33071   7.680   9.987  16.161  0.1968 -0.0514 -0.0639
17178W        W33072   4.852   2.546  12.136 -0.1431  0.0343  0.1093
17179W        W33073   7.567   4.096  13.522  0.3867 -0.0668  0.3090
17180W        W33074  13.283   4.195  11.244 -0.4298 -0.0309 -0.0160
17181W        W33075   7.447  12.901   1.223  0.2637 -0.0112 -0.2079
17182W        W33076   4.819   8.759   0.206  0.1270 -0.0194 -0.2597
17183W        W33077   7.323  16.778  15.757 -0.1116  0.1637 -0.0101
17184W        W33078  13.915   2.265  14.635 -0.1504 -0.0662 -0.0160
17185W        W33079  17.477  15.386   2.322 -0.0804  0.1933 -0.1828
17186W        W33080   5.837   8.720  15.267  0.2582  0.1551 -0.1443
17187W        W33081  13.736   0.743  12.690 -0.0075 -0.2267 -0.1478
17188W        W33082  17.283  17.242  12.324 -0.0353  0.2690  0.1173
17189W        W33083   8.556   3.577  15.832  0.0904 -0.3810  0.2444
17190W        W33084   2.437  16.024   2.174  0.1729 -0.0440  0.0247
17191W        W33085  17.585  12.126  11.986 -0.1367 -0.0911  0.0523
17192W        W33086   4.510   5.240  16.303 -0.0261 -0.1605 -0.1527
17193W        W33087   4.821   1.836   1.751  0.0991  0.2262  0.0481
17194W        W33088   7.598  15.171   0.623 -0.1767  0.0403  0.0048
17195W        W33089   4.069   8.904  14.343  0.1499 -0.2562  0.1874
17196W        W33090  16.856   3.516  15.979 -0.0388  0.0279 -0.3890
17197W        W33091  15.931   9.661  14.706  0.1722  0.1521 -0.0060
17198W        W33092   8.434   8.281  13.782  0.1887 -0.2331 -0.0506
17199W        W33093   1.754  14.801  12.504  0.0009 -0.3136 -0.2514
17200W        W33094  15.880  12.407   5.422 -0.0889  0.0936  0.0534
17201W        W33095  12.059  10.824  12.943  0.0971 -0.1108 -0.1051
17202W        W33096   0.810  13.978   0.898  0.1017  0.1396  0.5760
17203W        W33097   7.539  14.032   1.951 -0.1537  0.5561 -0.1751
17204W        W33098  15.972  10.949   1.731  0.3221 -0.0663  0.1650
17205W        W33099   1.667   5.412   4.478 -0.0247 -0.1111 -0.0759
17206W        W33100  12.031   1.992  13.319  0.0412  0.1259  0.1110
17207W        W33101  12.891  17.530   2.245 -0.2470  0.1056  0.2937
17208W        W33102  10.340  15.958  11.613 -0.5010  0.0159 -0.2302
17209W        W33103   9.932   1.116  12.375 -0.0735 -0.0017 -0.0528
17210W        W33104  11.961   5.187   0.952  0.1914  0.0673  0.0850
17211W        W33105  16.981   5.501   0.752 -0.0283  0.1582  0.0785
17212W        W33106   9.724   2.130   2.188  0.1916 -0.2007 -0.1208
17213W        W33107  10.459  15.410   2.931  0.1915 -0.0337 -0.0278
17214W        W33108   5.859  16.422   1.366 -0.0607  0.0009 -0.1731
17215W        W33109   3.701   7.810   4.452 -0.0554 -0.0402  0.0774
17216W        W33110   9.339   6.477   1.664 -0.1534  0.3245 -0.0338
17217W        W33111   8.515  16.375  15.972 -0.0692 -0.1227 -0.0448
17218W        W33112   2.052   0.659   3.200 -0.1568 -0.3339  0.1479
17219W        W33113   9.822   6.692   2.936 -0.4052 -0.0499  0.5069
17220W        W33114  16.046  12.004   0.470  0.0990 -0.1235 -0.0067
17221W        W33115  11.626  15.776   3.861  0.1412 -0.1964 -0.0229
17222W        W33116  12.909  10.654   2.127  0.0195 -0.2190  0.0335
17223W        W33117  10.997   1.606   0.384 -0.1893 -0.2250  0.3132
17224W        W33118   3.118   2.723   5.005  0.0485 -0.3621 -0.2704
17225W        W33119   8.530   2.016  15.071  0.1318  0.2054 -0.2156
17226W        W33120   4.662   2.670   2.472 -0.1140 -0.0079  0.1291
17227W        W33121  13.425   6.936   3.341 -0.0019  0.4509 -0.0795
17228W        W33122   4.067   3.280  16.756  0.1208  0.3437  0.0017
17229W        W33123   1.758  14.995   4.559  0.1638 -0.4444  0.0894
17230W        W33124  12.308   4.162  16.800  0.1234  0.0677 -0.0079
17231W        W33125   1.103  15.166   0.385 -0.0134 -0.0042 -0.0895
17232W        W33126   0.448   1.444  13.955  0.0507  0.0180  0.0249
17233W        W33127  15.452   7.738  14.363 -0.1605 -0.4022 -0.0057
17234W        W33128   0.912  13.974  13.165  0.2250  0.0871  0.0274
17235W        W33129  12.078  13.300   5.388 -0.3023 -0.0440  0.1048
17236W        W33130   9.430   5.034  11.823  0.1681 -0.0021 -0.0420
17237W        W33131   4.815  13.725   4.457 -0.1166 -0.0481 -0.1546
17238W        W33132   5.777   3.932  11.805  0.0300  0.0084  0.4222
17239W        W33133  14.588   8.093  14.807 -0.0571  0.2291  0.2628
17240W        W33134   3.168  11.876  14.746 -0.1689 -0.0592 -0.3776
17241W        W33135  14.444  13.784   5.031  0.2097  0.0500  0.0903
17242W        W33136   0.723   9.081  11.596  0.0761  0.0192  0.1995
17243W        W33137   8.753   0.798  15.957 -0.2635  0.1742  0.1278
17244W        W33138   9.457   7.943   1.822 -0.2844 -0.0096 -0.0295
17245W        W33139   5.115   1.013   5.069  0.0146 -0.4518  0.0610
17246W        W33140   4.450   4.931   5.082 -0.2687 -0.0928  0.1495
17247W        W33141   2.416  11.493   0.218  0.3909 -0.1198 -0.0665
17248W        W33142  15.690   5.404   0.563  0.4551  0.0910 -0.0569
17249W        W33143   1.573  10.248   0.191  0.3251 -0.1973 -0.0988
17250W        W33144   3.968   0.288   6.042 -0.1845  0.0521 -0.0153
17251W        W33145   9.584   3.733   0.141 -0.0193 -0.0582  0.0100
17252W        W33146  15.519   0.896   0.479 -0.0589 -0.4118 -0.1551
17253W        W33147   8.808   0.040   5.620  0.2179 -0.1046 -0.4789
17254W        W33148  16.435   7.580  13.921  0.2459  0.0303 -0.0715
17255W        W33149   4.217   2.161  12.184 -0.0209  0.0579 -0.0870
17256W        W33150  15.008   6.211  16.590 -0.3668 -0.1447  0.1652
17257W        W33151   2.678  10.127  14.360  0.0135  0.0340 -0.2502
17258W        W33152  17.189   5.342   2.908 -0.0517 -0.0283 -0.1644
17259W        W33153  15.142   6.673  16.357 -0.1174  0.2665 -0.4038
17260W        W33154   3.380  10.230  13.076 -0.0018 -0.0004 -0.0307
17261W        W33155   1.440  10.237   5.083  0.1817  0.2970 -0.0878
17262W        W33156   7.854   8.649   3.522  0.2208  0.0792  0.2658
17263W        W33157   6.809  14.569  14.992  0.4172 -0.0906  0.0190
17264W        W33158   6.384   0.923   1.916  0.2186  0.2250 -0.1118
17265W        W33159   9.554  15.785  12.818 -0.1153 -0.1361  0.0636
17266W        W33160   5.136   0.900  16.468  0.1596  0.2663  0.1033
17267W        W33161   8.730   0.480  14.069 -0.1150 -0.1755  0.0984
17268W        W33162   3.301  10.022  14.854 -0.2442  0.1892 -0.1944
17269W        W33163   3.757  16.480  14.705 -0.1181  0.0331  0.0464
17270W        W33164  13.885  17.587   2.535  0.1833 -0.0484  0.2598
17271W        W33165   7.896   7.434   2.554  0.0641  0.2706  0.0457
17272W        W33166   4.562   9.377  12.112 -0.0207 -0.0787  0.0678
17273W        W33167   4.284   1.827   0.674 -0.1958 -0.1226 -0.0959
17274W        W33168  11.981  17.567   5.738  0.1669 -0.0816 -0.4027
17275W        W33169   5.706   9.922  13.485 -0.0116 -0.1291 -0.1543
17276W        W33170  11.530   2.206   0.177 -0.0064  0.1708 -0.3644
17277W        W33171   2.183   4.438   4.437 -0.1080 -0.2607  0.0305
17278W        W33172   2.317   3.383  13.158 -0.2373 -0.0723  0.0313
17279W        W33173   1.315  15.433   5.299 -0.2997 -0.0858 -0.0306
17280W        W33174  11.853  11.499   1.067 -0.2511  0.1401  0.0406
17281W        W33175  12.771   8.691   2.962 -0.0599 -0.2100  0.1183
17282W        W33176   9.364  17.764   1.759  0.2957  0.1375 -0.1261
17283W        W33177   9.247   0.236  12.413 -0.1278 -0.0670 -0.0415
17284W        W33178   9.226  13.393   3.957  0.1540 -0.1611  0.0612
17285W        W33179  16.961  16.972   0.031  0.2263 -0.2702 -0.3637
17286W        W33180  16.481  10.448   0.770  0.0337  0.1260  0.1917
17287W        W33181  11.639   3.703   1.393 -0.2541  0.0316  0.1508
17288W        W33182  14.592  15.980  14.043 -0.0944  0.0205  0.0410
17289W        W33183  11.760   5.413   4.359  0.3070  0.5706  0.2827
17290W        W33184   1.939   2.660  11.674 -0.1298  0.4882 -0.2492
17291W        W33185  15.109  16.238   4.295  0.1310 -0.0697  0.1059
17292W        W33186   2.651   7.120  15.213  0.1591 -0.1565 -0.0219
17293W        W33187   8.102   5.150   3.578  0.2007 -0.1516  0.3006
17294W        W33188  15.727   5.404  10.721 -0.2413  0.0114  0.0897
17295W        W33189  15.073  12.185   0.305 -0.1862 -0.1714 -0.1202
17296W        W33190   8.230  12.970   4.698  0.1529 -0.0676 -0.1143
17297W        W33191   7.694  11.797  13.209  0.3533 -0.0962 -0.2122
17298W        W33192   3.903  14.496   1.168 -0.1425  0.3831  0.0891
17299W        W33193  14.466   2.806  14.030  0.0904  0.0307  0.3419
17300W        W33194  16.299  10.070  13.290  0.2660  0.0937  0.0224
17301W        W33195  17.615  13.192   3.941 -0.0672 -0.3686  0.1950
17302W        W33196   2.780   2.022   2.141 -0.0536 -0.0194 -0.1269
17303W        W33197   2.588   3.010  14.129  0.2040 -0.0876 -0.1214
17304W        W33198  14.306   8.662  16.108 -0.0599 -0.0196 -0.0623
17305W        W33199  14.897   2.074  10.994 -0.0053 -0.1523 -0.0636
17306W        W33200  15.570   0.367  14.177  0.0939 -0.0616 -0.1754
17307W        W33201   9.706  12.414   1.707  0.1625 -0.1532  0.2301
17308W        W33202   6.452   7.315   3.164 -0.2433 -0.1312 -0.0450
17309W        W33203  17.834   4.934  12.827  0.1460  0.0989 -0.1398
17310W        W33204   4.568  11.637  16.806  0.0621 -0.1037  0.1948
17311W        W33205   9.921   3.747   2.552  0.2217 -0.1696 -0.0814
17312W        W33206   2.311   2.575  11.323  0.1136 -0.1982 -0.3733
17313W        W33207   9.301   7.635   6.156 -0.0460 -0.0938 -0.2701
17314W        W33208   5.101  13.739   0.183  0.0762 -0.1310 -0.1041
17315W        W33209  10.765   7.935  13.263 -0.1053  0.2773 -0.1646
17316W        W33210  17.234  11.362   3.818  0.1872  0.4177 -0.0027
17317W        W33211  11.003   1.720   4.832  0.2197  0.2477  0.0991
17318W        W33212  14.191   5.714   5.857 -0.0585 -0.5357 -0.1469
17319W        W33213   8.518   6.050  13.253 -0.1251 -0.0094  0.2077
17320W        W33214  12.619  17.801   6.150 -0.0917 -0.1741  0.4003
17321W        W33215   6.843  11.763  11.243  0.1159 -0.1363 -0.0422
17322W        W33216  11.873   7.244  12.968  0.0395  0.3326 -0.0360
17323W        W33217   0.544  11.840  13.584  0.3639 -0.2029 -0.2871
17324W        W33218   4.437  11.170  14.303 -0.1084  0.0371  0.0067
17325W        W33219   8.306   4.244  15.838  0.1291  0.2531 -0.2771
17326W        W33220  11.329  12.651  16.426  0.0707 -0.1082  0.0348
17327W        W33221   1.452   2.219   1.776  0.0622  0.3077  0.1756
17328W        W33222  12.613   4.425  15.137 -0.1741  0.0058  0.1936
17329W        W33223   2.621   0.783  15.329  0.1462 -0.3574 -0.2938
17330W        W33224  10.936   4.771  14.604  0.0663 -0.1084  0.0452
17331W        W33225   6.892   1.932   3.925  0.1795  0.2084 -0.0474
17332W        W33226  12.385   6.385  14.297  0.1094 -0.0795 -0.0618
17333W        W33227   5.516   4.118  14.604 -0.0772  0.0012  0.2287
17334W        W33228   8.546   1.592   1.348  0.1894  0.1900 -0.2223
17335W        W33229   5.190   6.199   4.262 -0.0733  0.0458 -0.0896
17336W        W33230  17.107   1.494  12.307 -0.1606 -0.1274  0.1003
17337W        W33231   5.898   9.723   3.740 -0.2154  0.1674  0.0746
17338W        W33232   4.557  16.248  12.304  0.0861 -0.0076  0.1552
17339W        W33233  11.563   2.902   0.860 -0.1071 -0.0538  0.2592
17340W        W33234   3.563  10.422   4.946  0.1341 -0.1930  0.2926
17341W        W33235   1.911  14.076   4.590 -0.2500  0.0049  0.0599
17342W        W33236  16.430   4.571  13.692 -0.0535 -0.2693 -0.2224
17343W        W33237   0.044  17.440   5.702  0.2273  0.0248  0.1543
17344W        W33238   2.330  10.215   4.319  0.0630  0.0743  0.0528
17345W        W33239  10.944  17.081   4.204  0.0299 -0.2166  0.1150
17346W        W33240   1.714  12.166  12.419  0.1886 -0.1067 -0.3062
17347W        W33241  12.411   3.540  15.290  0.1245  0.2387 -0.0979
17348W        W33242  13.554   8.295   2.437  0.5708  0.3691  0.1001
17349W        W33243  13.065  12.596  16.515 -0.1621 -0.1345  0.0470
17350W        W33244   8.655  15.804   2.625 -0.0609  0.1762 -0.0565
17351W        W33245  15.639   5.026  12.758  0.0678  0.0265  0.1449
17352W        W33246   8.248   1.960   0.266  0.1414 -0.0622  0.0512
17353W        W33247   6.096  12.185   4.611 -0.0446  0.1063 -0.1480
17354W        W33248  14.335   5.515  14.641 -0.0427  0.4257  0.3149
17355W        W33249  12.700  17.183  15.620  0.3848 -0.3618 -0.1728
17356W        W33250  12.348   7.134  11.294  0.1213  0.1209 -0.0125
17357W        W33251  14.424  10.494   1.954  0.2507 -0.0893  0.0369
17358W        W33252  13.055   9.667   2.598 -0.1437 -0.0854  0.0333
17359W        W33253  15.011   5.769  14.150 -0.0122  0.1453 -0.1492
17360W        W33254   3.253   6.813  14.032  0.2280 -0.0555  0.1616
17361W        W33255  10.863  10.977   4.896 -0.0261  0.5217 -0.2176
17362W        W33256   9.400   4.539  13.857  0.0309  0.3030 -0.0031
17363W        W33257  12.671   7.070   0.593 -0.1681 -0.0217 -0.0127
17364W        W33258   5.926   7.895   1.951 -0.0634 -0.0560 -0.1046
17365W        W33259   8.857   9.379  14.793 -0.1956 -0.0656  0.0394
17366W        W33260   7.801  12.455   3.542  0.2369 -0.1806 -0.0698
17367W        W33261  17.058   7.401  13.296  0.2333  0.1905  0.2719
17368W        W33262  17.378  16.592   1.122 -0.1104  0.1063  0.1723
17369W        W33263   3.521  17.148   3.011  0.0994 -0.1258 -0.1897
17370W        W33264  16.924   5.733   3.858 -0.0401  0.0519 -0.2113
17371W        W33265   8.652  15.012   0.634  0.0752 -0.3584 -0.1976
17372W        W33266  15.531  12.244  14.203  0.1511  0.0205  0.1466
17373W        W33267   1.274  11.411   2.417 -0.0849  0.1675  0.0505
17374W        W33268  16.889  13.103   2.352 -0.1305 -0.1515  0.1858
17375W        W33269   6.268   9.824   5.833 -0.2010  0.0890 -0.1728
17376W        W33270   4.683  16.248  15.001 -0.2669 -0.3207  0.1519
17377W        W33271  11.925   1.369   0.598  0.0041 -0.1610 -0.3174
17378W        W33272  11.969   0.678  13.342  0.1117  0.0801  0.1501
17379W        W33273   0.822   9.738   3.486 -0.1829  0.0209  0.2621
17380W        W33274   7.066   6.220   0.181 -0.1323  0.3380  0.0625
17381W        W33275   8.160  13.557   1.213 -0.2377 -0.2528  0.0691
17382W        W33276  12.413   5.077  12.582  0.3862  0.2381  0.0960
17383W        W33277   0.977   1.130   5.298 -0.1297 -0.3019 -0.0205
17384W        W33278   3.123  10.156  16.632 -0.0989  0.1324 -0.0449
17385W        W33279  16.835   7.194   4.700  0.1391 -0.2488  0.0233
17386W        W33280   6.900  12.378   2.112 -0.1884  0.2557  0.0363
17387W        W33281   1.117   6.693  12.154 -0.0367  0.0353  0.1693
17388W        W33282  17.604   5.879  12.379  0.0927  0.1164 -0.0274
17389W        W33283   3.201   7.309  11.530  0.0717 -0.2906  0.0443
17390W        W33284  10.130  17.375  12.705  0.2748  0.0311  0.2042
17391W        W33285   1.280  10.930  14.827  0.3893 -0.1618  0.0481
17392W        W33286  14.328   6.331  12.919 -0.0009 -0.0308  0.0495
17393W        W33287   7.796   8.198   0.798  0.0165 -0.0135  0.1116
17394W        W33288   8.053   3.795  12.324 -0.0140 -0.3640  0.2385
17395W        W33289   6.785   8.792   3.276 -0.0769 -0.0103  0.0903
17396W        W33290   5.508  10.695  16.439  0.1463 -0.3324  0.1804
17397W        W33291  12.343   3.492  11.468  0.0621  0.0257 -0.0912
17398W        W33292  15.832   8.663  13.938 -0.2757 -0.0496  0.2567
17399W        W33293  13.426   8.547   1.524  0.2974 -0.1992 -0.1772
17400W        W33294  13.338  11.999   6.123  0.1122  0.1430  0.2423
17401W        W33295   7.674   4.467   1.887 -0.2090 -0.2843  0.1163
17402W        W33296   9.370  17.166  13.182 -0.2163 -0.3226  0.0529
17403W        W33297   4.913   0.330   5.463  0.0184 -0.3275  0.0066
17404W        W33298   1.703  13.080  14.105  0.2804 -0.0720  0.0561
17405W        W33299  17.199  11.303   2.446  0.0178 -0.2618 -0.0739
17406W        W33300  12.877  10.140   3.554  0.1198 -0.0259 -0.0036
17407W        W33301   3.553   8.740  11.429  0.2648  0.1689  0.1705
17408W        W33302   7.637   9.575   5.313 -0.1687  0.0814  0.0975
17409W        W33303  10.122  17.508  13.252  0.1157 -0.2503  0.0931
17410W        W33304   1.170  16.479   0.338  0.1359  0.0867 -0.0208
17411W        W33305  15.720   4.961  10.910 -0.0005 -0.2232  0.0145
17412W        W33306   5.210  11.625  16.384 -0.2242  0.4525  0.2313
17413W        W33307  14.353   0.851   2.108 -0.0097  0.1097  0.0768
17414W        W33308   5.994  15.452   1.259  0.0537  0.1154  0.0578
17415W        W33309   5.150   0.918  15.559 -0.2059  0.1959 -0.0500
17416W        W33310  17.431  12.841  16.846 -0.0261  0.1764 -0.2871
17417W        W33311   5.325  16.945  13.057  0.2007  0.3482 -0.2511
17418W        W33312  15.014   6.627   3.076 -0.1964  0.0747  0.0403
17419W        W33313  14.220  13.901   4.417  0.0563  0.6129 -0.1969
17420W        W33314   1.460  15.492  12.644  0.0643 -0.2205 -0.1984
17421W        W33315  11.012   2.348   2.469  0.0747  0.2573 -0.1426
17422W        W33316   7.555   6.985   0.254  0.0602 -0.0086 -0.2188
17423W        W33317  16.560  10.995   3.809  0.0760 -0.0123 -0.0863
17424W        W33318   1.594   0.443   2.903  0.1576  0.0495 -0.0145
17425W        W33319  14.235   4.291  11.262 -0.1362  0.0244  0.0278
17426W        W33320  15.773  14.612   3.589 -0.0099  0.1262 -0.2095
17427W        W33321  12.071   8.139  11.781 -0.0153  0.0089  0.0505
17428W        W33322   0.736   3.369   4.978 -0.3961 -0.2363  0.1546
17429W        W33323   2.574   8.410  11.377  0.1062  0.0578 -0.1964
17430W        W33324  17.835   2.727  16.411 -0.1170  0.0684  0.0595
17431W        W33325   4.416  15.536   3.079 -0.3309  0.1392  0.2986
17432W        W33326   7.524  10.085  11.863 -0.0055  0.0129  0.1943
17433W        W33327  12.113   7.928  14.392  0.1500 -0.0663  0.7099
17434W        W33328  11.338   8.859   4.266 -0.0647  0.0720  0.1072
17435W        W33329   9.313   8.904  12.229 -0.0104  0.2635  0.1085
17436W        W33330  15.394   1.452  11.377 -0.0364  0.0663 -0.0151
17437W        W33331  10.757   3.536   0.874 -0.2556 -0.2099 -0.0497
17438W        W33332   9.373  14.118   3.499 -0.0600 -0.2358  0.1010
17439W        W33333   5.356   2.275  14.414  0.0700 -0.0177  0.1779
17440W        W33334   1.992   3.159   4.259 -0.1299  0.0325 -0.0321
17441W        W33335  17.076   9.838   3.179  0.1362 -0.1204 -0.0593
17442W        W33336   1.142  10.634  13.123  0.0494  0.1481  0.1097
17443W        W33337   2.508   2.981   4.355 -0.0836 -0.0287  0.0546
17444W        W33338   5.727  14.226  15.932  0.0561  0.0751  0.1539
17445W        W33339  12.215  10.901   3.418 -0.0643  0.0378 -0.1588
17446W        W33340   5.244  12.065   0.551 -0.1334  0.0981  0.0008
17447W        W33341   3.622  12.645  16.171 -0.1123 -0.1547  0.0026
17448W        W33342   9.554   3.468   3.157 -0.4219 -0.1437  0.0083
17449W        W33343   0.479  14.191  15.293 -0.0631  0.0742  0.1164
17450W        W33344  15.824  17.793  14.258  0.0913  0.0267  0.2856
17451W        W33345  12.404   6.535   0.386  0.0501 -0.1053 -0.1589
17452W        W33346   8.063   0.422   4.018 -0.1205  0.0237 -0.2701
17453W        W33347   0.017  12.589  16.075 -0.1866  0.2623 -0.0439
17454W        W33348   6.427  15.580   4.431 -0.0911 -0.0566  0.2941
17455W        W33349   4.294  16.487  12.674 -0.2211  0.0967  0.1152
17456W        W33350   0.846   3.406   5.524 -0.0453 -0.2358 -0.1162
17457W        W33351   3.500   4.891   1.233 -0.2242 -0.1330  0.0419
17458W        W33352  11.339  15.694  13.115  0.2507  0.1874  0.4048
17459W        W33353  14.348  15.061   2.483  0.1396  0.1576 -0.2182
17460W        W33354   5.222   0.573  13.792 -0.2199  0.2160 -0.3665
17461W        W33355   4.259  14.670   3.669  0.0126 -0.1012 -0.0700
17462W        W33356  14.022  13.275  16.237 -0.4347  0.4487 -0.0032
17463W        W33357   3.537   2.784   5.387  0.0846 -0.0529  0.0234
17464W        W33358   9.600   2.340   3.113 -0.0366  0.0072 -0.0138
17465W        W33359   1.651  16.730   5.981 -0.0587 -0.0247 -0.1064
17466W        W33360   4.960   6.901   2.142  0.0620  0.0127 -0.1611
17467W        W33361  11.306   7.542   5.728  0.0212  0.1326 -0.3110
17468W        W33362   2.280  15.682   0.140  0.0888 -0.0668  0.1072
17469W        W33363   6.527  12.329   5.489 -0.1565 -0.0485 -0.1016
17470W        W33364  16.679  13.554  12.572 -0.2004  0.0588  0.1266
17471W        W33365   2.231   0.725  13.239 -0.2415  0.2457 -0.0578
17472W        W33366  13.827   6.399  12.421  0.4413  0.0885 -0.1483
17473W        W33367  11.387   3.243   0.150 -0.1828 -0.0095 -0.2238
17474W        W33368   6.617   2.559  11.962  0.0602  0.2278 -0.0856
17475W        W33369   1.098   8.151   1.745  0.0426  0.2140 -0.2196
17476W        W33370  11.022  17.411   2.182 -0.3982  0.4516  0.1199
17477W        W33371  11.854  15.800  11.644 -0.1280 -0.3970  0.0332
17478W        W33372   2.847   6.742  12.128 -0.0062 -0.1968  0.2473
17479W        W33373   3.467   3.690  16.160  0.0485  0.0682 -0.0649
17480W        W33374   9.062  11.982  12.640  0.0392  0.1513  0.0045
17481W        W33375   8.759  12.812   0.211 -0.0720 -0.2970  0.0881
17482W        W33376  10.464   2.610  15.196  0.2212 -0.1546 -0.0284
17483W        W33377   0.661   5.332   1.164  0.1142  0.1788  0.1735
17484W        W33378  11.731   8.048  13.503  0.3015  0.1541 -0.0601
17485W        W33379  10.656   4.837   0.419 -0.1845  0.2384 -0.0822
17486W        W33380   5.985   3.440   4.368 -0.0274  0.0267  0.1574
17487W        W33381   2.925   5.783  12.232  0.1337 -0.1243 -0.1293
17488W        W33382  14.441   7.633  15.750  0.1326 -0.3319  0.2797
17489W        W33383   3.845   5.804   2.912  0.0451 -0.2155  0.0788
17490W        W33384  10.334   5.555   5.404  0.3493  0.1174  0.1590
17491W        W33385   7.677  11.205  16.496  0.3171  0.1181  0.2528
17492W        W33386   0.842   7.820   0.259 -0.1524  0.1308 -0.0575
17493W        W33387   2.322  11.058   5.599  0.1882  0.0967  0.0895
17494W        W33388  10.606   0.471   4.652  0.0195  0.1067  0.0354
17495W        W33389   5.055  13.373  12.353 -0.0079  0.0556  0.1061
17496W        W33390   3.082   4.127  12.596 -0.0551 -0.2520  0.0246
17497W        W33391   6.999  10.047   2.998 -0.1377  0.1058  0.2424
17498W        W33392  15.152  11.379   4.788 -0.1282 -0.1058 -0.0911
17499W        W33393   1.214   4.319  16.109 -0.1071  0.1584  0.3524
17500W        W33394  10.050   0.138  14.984 -0.0571  0.0158 -0.0366
17501W        W33395   0.315   1.470  15.774  0.0395  0.3049 -0.0240
17502W        W33396   2.041   2.266  14.710 -0.4036  0.1719  0.2143
17503W        W33397  14.262  14.834  15.840  0.0828  0.3612 -0.1079
17504W        W33398   4.614  13.390  14.817  0.1257 -0.2731 -0.1831
17505W        W33399  11.365  14.315  12.765 -0.0176 -0.2386  0.2031
17506W        W33400  11.675  17.043  13.086 -0.0385 -0.1593  0.0797
17507W        W33401   9.376  11.260  14.190  0.2641 -0.2834  0.2272
17508W        W33402  17.714   2.058   3.186 -0.0391  0.0864 -0.1022
17509W        W33403  13.765  11.179   3.519 -0.3333 -0.3498 -0.1976
17510W        W33404   5.635   8.260   2.721 -0.0058 -0.0959  0.0125
17511W        W33405  16.055   6.320  15.728 -0.2105  0.2911 -0.0109
17512W        W33406   3.498  15.979   2.544 -0.3796  0.1252  0.1303
17513W        W33407   6.217   1.494   0.085  0.0533  0.0328  0.0525
17514W        W33408   3.398   5.888   4.323  0.0582 -0.1393  0.1553
17515W        W33409   3.685  11.331   0.203 -0.0911  0.0593 -0.0402
17516W        W33410  12.426   9.221   1.521  0.2104  0.0424  0.0977
17517W        W33411  13.520   7.196  12.802  0.1886  0.3299  0.2297
17518W        W33412  11.381   3.099   4.708 -0.0108  0.1134 -0.4263
17519W        W33413   9.157  14.311  15.179  0.0855 -0.0454  0.0315
17520W        W33414   4.269   5.005   3.054 -0.5024 -0.0498 -0.1900
17521W        W33415   1.702   5.956   1.643  0.0241  0.0829  0.1288
17522W        W33416  10.936   6.431   1.689 -0.0803  0.0099  0.0192
17523W        W33417   3.143   6.235  12.060 -0.0458  0.0559 -0.1500
17524W        W33418  10.282  10.910  13.996  0.1644 -0.1613 -0.0591
17525W        W33419  12.530   9.077   4.620 -0.2837 -0.3210  0.1806
17526W        W33420  11.953   5.524  13.448  0.1409 -0.3851  0.0367
17527W        W33421   9.497   4.304  16.061 -0.2150 -0.1000 -0.0276
17528W        W33422  13.854  10.384   4.393 -0.1206 -0.0504 -0.1838
17529W        W33423  10.612   9.422  16.505 -0.1212 -0.0436 -0.0167
17530W        W33424  11.380   1.471   2.935 -0.3884  0.2144 -0.0093
17531W        W33425   1.220  16.370   4.328 -0.2846  0.0103  0.3407
17532W        W33426  13.992   9.189   1.770  0.0457 -0.1892 -0.0828
17533W        W33427   9.375  14.028  12.600  0.0712 -0.1932 -0.0438
17534W        W33428  15.877  16.522   2.718 -0.1924  0.1878  0.1408
17535W        W33429  13.058   9.870  14.560 -0.1097 -0.0139 -0.3279
17536W        W33430   1.963   9.560  14.045 -0.0185 -0.0233  0.0268
17537W        W33431   4.158   4.396  13.277 -0.0288 -0.0765  0.1416
17538W        W33432   9.614   1.572   1.408  0.2096 -0.0814 -0.1311
17539W        W33433  16.660   0.731  14.317 -0.2185 -0.2443 -0.0563
17540W        W33434  10.469   3.260  12.263  0.0583  0.0760 -0.0387
17541W        W33435   7.648  16.483   3.942 -0.0031  0.0459  0.0621
17542W        W33436  16.830  12.919   5.217 -0.1544  0.0840 -0.3315
17543W        W33437  15.746   0.081  15.091 -0.1058 -0.0035  0.0746
17544W        W33438   5.892   3.407   6.140 -0.0524  0.1191  0.0190
17545W        W33439   8.701   6.916   5.311 -0.0141 -0.0966 -0.0146
17546W        W33440   6.507   9.407  15.211 -0.1172 -0.1840 -0.1283
17547W        W33441   9.973   7.724  10.933  0.1347 -0.1389  0.2695
17548W        W33442  17.814   6.007  14.313  0.0536  0.0154 -0.1130
17549W        W33443   0.895  11.451  13.636 -0.0307 -0.0762  0.0385
17550W        W33444  14.571  11.868  14.388 -0.2232 -0.0426 -0.1442
17551W        W33445  10.961  13.495  16.426  0.1144  0.1462  0.0574
17552W        W33446   4.630   4.567  11.092 -0.1596 -0.1407  0.1573
17553W        W33447   0.552   6.690   3.035 -0.0995  0.5224 -0.0564
17554W        W33448  11.887  12.872  14.969  0.0251 -0.1028 -0.3388
17555W        W33449   6.126   3.093   3.564  0.3316  0.1220  0.0669
17556W        W33450  15.607  11.867   1.768  0.3544  0.1570 -0.3516
17557W        W33451   2.784   0.802  11.403 -0.1081  0.1225 -0.0787
17558W        W33452   2.574   8.769  16.057  0.1887 -0.3787 -0.2555
17559W        W33453   7.963  16.938   4.762  0.0101  0.1181  0.0857
17560W        W33454  15.529   3.061   0.946  0.2794  0.0798  0.1771
17561W        W33455  13.396  10.371  13.440 -0.1769 -0.0507  0.1389
17562W        W33456  10.278  17.593   2.673  0.1884 -0.0315 -0.2784
17563W        W33457   3.032   7.511  14.699 -0.2193  0.1298  0.1199
17564W        W33458   9.722  17.828   0.831 -0.0519  0.2096 -0.3237
17565W        W33459  11.149   3.632  15.422  0.3014  0.0781 -0.0859
17566W        W33460   8.490   7.959  12.152 -0.0085  0.1430 -0.1805
17567W        W33461  11.826   1.036   2.872 -0.2222 -0.0109 -0.0664
17568W        W33462   3.769   3.723   2.017 -0.1128 -0.2134  0.0105
17569W        W33463  12.016   5.096   5.404 -0.0147  0.0006 -0.3631
17570W        W33464   8.531   8.597   4.725  0.0286  0.0887 -0.1509
17571W        W33465  13.733   0.461  16.083 -0.1081 -0.2157  0.1958
17572W        W33466   1.360  11.069   0.162  0.0930  0.2015 -0.1638
17573W        W33467  15.287   1.396  16.230  0.1041 -0.3450  0.1132
17574W        W33468   3.934   9.404   1.797  0.0309  0.0254 -0.0374
17575W        W33469   5.845   5.337  12.384  0.2724 -0.2710  0.4043
17576W        W33470  12.422  17.335   2.177  0.1895  0.2616  0.0327
17577W        W33471  10.119   8.282   0.288 -0.3287  0.1192 -0.0580
17578W        W33472   3.173   5.555  14.508  0.2903 -0.2661  0.1847
17579W        W33473  16.087   3.972  11.631  0.3215 -0.0713 -0.0470
17580W        W33474   1.596   8.506   4.128  0.1613 -0.0530 -0.2321
17581W        W33475  12.001  10.129  13.741  0.0432  0.1311  0.0924
17582W        W33476  17.214  13.407  15.364 -0.0027  0.3584 -0.1227
17583W        W33477   0.534   2.942   0.841  0.0521 -0.2186  0.0601
17584W        W33478  11.236   5.126   1.706  0.2391 -0.4262 -0.2796
17585W        W33479   2.928   5.066   1.279  0.0660 -0.0542  0.2625
17586W        W33480   3.927   4.223  15.536  0.1357 -0.1545 -0.1522
17587W        W33481   5.863   2.850   2.424 -0.2164  0.0534 -0.0318
17588W        W33482   1.761   9.048   0.443  0.0897  0.2695 -0.2005
17589W        W33483  16.589  12.676  15.863  0.3022  0.1682  0.2048
17590W        W33484   6.097   4.341  13.736  0.1241 -0.2311 -0.0253
17591W        W33485   4.729  11.572  12.397  0.0275  0.1032  0.1613
17592W        W33486   2.992  16.524   1.438 -0.0169  0.1505 -0.0623
17593W        W33487  13.696  10.263  11.803  0.0125  0.0401  0.0813
17594W        W33488  14.308  16.309  14.248  0.0543  0.2486 -0.0005
17595W        W33489   0.964   3.956  14.183 -0.0350  0.1162  0.0587
17596W        W33490  12.746  17.809   5.058  0.1110 -0.1352  0.0468
17597W        W33491  10.499  16.196   2.982  0.3495 -0.1666 -0.3715
17598W        W33492   4.345   8.108   4.832 -0.0799 -0.0678 -0.2682
17599W        W33493  10.256  15.881   3.293  0.2381  0.0336  0.1083
17600W        W33494  12.983   1.117   4.355  0.1142  0.0051  0.1701
17601W        W33495  17.391  10.538   2.702  0.2411  0.1706  0.1114
17602W        W33496  14.580   1.524  16.519  0.0321 -0.0361  0.2368
17603W        W33497  15.994   2.799  14.579  0.1241  0.1824  0.0552
17604W        W33498  13.451  12.632   1.249  0.3816  0.1149  0.1173
17605W        W33499   3.174   3.321  14.767  0.0266  0.1928 -0.1249
17606W        W33500   3.597   2.133   2.005  0.0934  0.0163 -0.1694
17607W        W33501  17.672  11.475  11.891 -0.0628  0.0199  0.0998
17608W        W33502  11.374   0.412  14.142  0.3499 -0.0539 -0.0946
17609W        W33503   6.817   6.536  15.381 -0.0392 -0.0640  0.1288
17610W        W33504  11.836   0.258   2.344  0.1033  0.0750 -0.0742
17611W        W33505  12.143   9.455   3.803 -0.2666 -0.0682 -0.2932
17612W        W33506   4.036   6.398  15.925  0.2754  0.1722  0.0584
17613W        W33507   5.101  10.292   0.631 -0.0888  0.2820 -0.0840
17614W        W33508   6.371  15.924  15.595 -0.1401 -0.0844  0.2213
17615W        W33509   9.147   5.528  16.063  0.2003  0.0079 -0.1078
17616W        W33510   0.483  15.146   2.404  0.0026 -0.0209  0.2254
17617W        W33511   7.219   1.980  12.896  0.3899 -0.1495  0.1433
17618W        W33512   6.813  14.292  16.458  0.1592 -0.2966 -0.2308
17619W        W33513  15.324   8.408   2.405 -0.1958 -0.2151 -0.0490
17620W        W33514   8.622  12.443   3.486  0.2477  0.0237  0.1048
17621W        W33515   8.862   9.256  12.244 -0.1585  0.0984 -0.0557
17622W        W33516  16.626   8.946  12.662 -0.1286  0.0991  0.0333
17623W        W33517   3.100   4.523  16.263  0.1384 -0.2449 -0.0820
17624W        W33518   1.580  12.584   2.154 -0.0334 -0.0102 -0.0373
17625W        W33519   7.414   1.939   4.054 -0.0239 -0.4089 -0.3726
17626W        W33520  12.121   8.270  14.797 -0.2063  0.0432  0.1505
17627W        W33521  11.105   5.965  13.583 -0.1940  0.0791  0.0134
17628W        W33522   6.026   4.055  14.594 -0.1710  0.1907 -0.3424
17629W        W33523   0.449   9.412   0.448  0.2146 -0.1069  0.0017
17630W        W33524   7.351   0.295   4.451  0.1375  0.2298 -0.2093
17631W        W33525   8.314  15.553   5.199 -0.4380  0.0583  0.0774
17632W        W33526  14.798  16.944   0.225 -0.0829  0.1860 -0.1350
17633W        W33527  16.413  17.794   5.692  0.0217  0.1483  0.0651
17634W        W33528  17.541  15.378  15.162 -0.0580 -0.0999 -0.1107
17635W        W33529  13.818   4.801   2.214 -0.0061  0.1876  0.1428
17636W        W33530   6.614  11.028  13.501 -0.1722 -0.2263  0.0163
17637W        W33531  13.574  13.544   0.522  0.1686 -0.0246 -0.2030
17638W        W33532   0.119   0.677   4.399  0.1415  0.0466 -0.0732
17639W        W33533   7.835   1.415  11.860  0.2973  0.1098 -0.3409
17640W        W33534   1.429   1.164  13.786  0.2454  0.0317 -0.2335
17641W        W33535   6.284   7.975   0.245 -0.0507 -0.1147 -0.0607
17642W        W33536  14.641   3.210   2.966 -0.2595 -0.1631 -0.1769
17643W        W33537  12.031   4.790  12.857 -0.0096  0.0856 -0.1160
17644W        W33538  15.144  11.767  16.392 -0.0712  0.0733  0.1264
17645W        W33539   2.683   6.252  12.238 -0.0960 -0.0154 -0.1149
17646W        W33540  12.587  11.167   0.787  0.3928  0.1186  0.0039
17647W        W33541  12.984  13.848   1.587 -0.0065  0.1868 -0.1560
17648W        W33542   7.346  12.028   2.927 -0.2993  0.0159 -0.0247
17649W        W33543   0.663   5.733   2.907 -0.2450 -0.0521 -0.2613
17650W        W33544  16.820   1.086  13.955  0.0534  0.0507 -0.0803
17651W        W33545   3.325   4.975  13.660  0.0951  0.0453  0.0897
17652W        W33546  12.003  16.869   4.493  0.0006  0.3615  0.0406
17653W        W33547   2.319   7.203   1.330  0.2260  0.0867 -0.0556
17654W        W33548   1.912   0.580  16.734  0.1373  0.0476  0.0389
17655W        W33549  15.034  10.335   2.800 -0.3328 -0.1931 -0.1330
17656W        W33550  13.753   3.843  15.475  0.2408 -0.0035 -0.0885
17657W        W33551   2.658  13.019   1.190 -0.0592  0.2353 -0.0873
17658W        W33552  15.018  13.686  14.298  0.1906 -0.0774  0.1828
17659W        W33553   9.936   4.099   0.979  0.0534 -0.2240 -0.0799
17660W        W33554  12.947   8.659  14.607  0.1486  0.2398 -0.0674
17661W        W33555   2.687   3.657   3.382 -0.2236  0.1801 -0.2354
17662W        W33556  17.130   8.240  15.776 -0.0370 -0.1169 -0.0502
17663W        W33557  13.187   2.720   1.567 -0.3336  0.2224  0.0486
17664W        W33558  10.520   9.121   3.576 -0.0185  0.3797 -0.1056
17665W        W33559   1.910   7.338   5.227  0.2712 -0.3896  0.0194
17666W        W33560   4.495   6.102   1.930 -0.0469 -0.0113  0.2728
17667W        W33561   1.761  17.055  13.697  0.1290 -0.0286  0.3377
17668W        W33562   9.625   6.481   0.676  0.1314  0.1769  0.0171
17669W        W33563  11.180  12.058  15.190 -0.0701 -0.1350 -0.1360
17670W        W33564   7.752   2.834   0.150  0.0810 -0.2403  0.4009
17671W        W33565  12.511  13.384  12.793  0.0256  0.1379 -0.2010
17672W        W33566   2.467  12.390  11.775 -0.2262 -0.1818  0.0207
17673W        W33567   0.611  11.951  16.437  0.2380 -0.2351  0.1706
17674W        W33568   2.083   7.635   4.707 -0.0348 -0.0074  0.1200
17675W        W33569   2.750   0.629   1.482 -0.0818  0.3498 -0.0818
17676W        W33570   7.335   5.886   3.902  0.0463 -0.2488  0.0890
17677W        W33571   6.438  13.836  11.685 -0.0429  0.2772  0.0913
17678W        W33572  16.459  16.752  12.591  0.0044 -0.2846  0.0896
17679W        W33573  15.709  10.770  16.387 -0.0956  0.0105  0.1011
17680W        W33574   2.837   1.533  12.409 -0.0078 -0.1031  0.2380
17681W        W33575   4.176   8.339  15.568  0.1108  0.6014  0.2174
17682W        W33576  10.061   6.957   5.383  0.0165  0.1421  0.2007
17683W        W33577  11.429  12.092   1.782  0.2804 -0.2907  0.1201
17684W        W33578   4.325   5.083   0.917  0.1196 -0.5278  0.0701
17685W        W33579  16.125  12.489  15.622 -0.0412 -0.1636  0.1833
17686W        W33580   1.716   2.302  15.469 -0.0293 -0.0319  0.2592
17687W        W33581  16.403   7.392   5.283  0.0441  0.0472 -0.0530
17688W        W33582   4.676   2.947  13.544 -0.2428 -0.4180 -0.1276
17689W        W33583   7.877   5.705   2.437 -0.0195 -0.3868  0.0280
17690W        W33584  12.728   2.992  14.165 -0.0591  0.4004  0.1491
17691W        W33585  16.084   9.228  16.638 -0.0773  0.0273  0.0756
17692W        W33586  12.261   9.305   4.276  0.0945  0.1034  0.0108
17693W        W33587   4.767   6.393  14.637  0.0541 -0.0430 -0.2371
17694W        W33588   3.436   5.169   4.720 -0.4108  0.0730 -0.1071
17695W        W33589   1.889   4.692   3.657  0.3343  0.1351 -0.1247
17696W        W33590   2.413   3.613  11.878  0.1726 -0.0782 -0.1533
17697W        W33591  15.561   9.538  13.430  0.0713  0.0867  0.1299
17698W        W33592   3.716   1.420   1.633 -0.3719 -0.1033  0.2196
17699W        W33593   0.864  16.245  16.482  0.0137  0.2472  0.0348
17700W        W33594  11.028  14.016  14.155 -0.1252 -0.0767 -0.0310
17701W        W33595   4.535   1.794   3.712 -0.0998  0.1170  0.1932
17702W        W33596   5.468   1.153  13.985  0.1416 -0.2267  0.1124
17703W        W33597  15.560   6.539  11.590 -0.0763  0.3190 -0.2030
17704W        W33598   7.459   1.812   3.311 -0.1102  0.0738 -0.0592
17705W        W33599   3.184   2.720  11.195  0.2821  0.0870 -0.1118
17706W        W33600  16.045  16.605  14.784  0.0266 -0.0296 -0.0964
17707W        W33601  10.550   0.867  13.679 -0.1445  0.0139 -0.2315
17708W        W33602   1.759  16.127  11.447 -0.1360  0.0170  0.1196
17709W        W33603   3.301  11.890  16.511  0.2454 -0.1261 -0.0055
17710W        W33604   0.053  16.641  13.515  0.0281 -0.2021 -0.0632
17711W        W33605   2.698   0.901  14.806  0.0816 -0.1930 -0.0908
17712W        W33606   8.517  12.915   5.560  0.1019 -0.0947  0.1685
17713W        W33607   6.582   9.743   3.127  0.3101 -0.0812 -0.2644
17714W        W33608  14.259   7.575   3.592  0.1546  0.1748 -0.2746
17715W        W33609  17.720   6.285   2.536 -0.0843 -0.0193 -0.1498
17716W        W33610   2.254   1.289   4.312 -0.1468  0.0210  0.1783
17717W        W33611   7.239   8.607   3.850 -0.0085 -0.5396  0.2573
17718W        W33612   9.164  16.459   6.056 -0.0015  0.0654 -0.6120
17719W        W33613  16.834  13.264   0.900  0.0507  0.2048 -0.0083
17720W        W33614  13.891  12.262  12.119  0.0466 -0.0835 -0.1858
17721W        W33615  11.168   7.204  15.327 -0.0690 -0.0049  0.2073
17722W        W33616   0.917  15.747  13.956 -0.0197  0.0841  0.3666
17723W        W33617  10.698   2.012  12.423 -0.1731  0.2629 -0.1663
17724W        W33618  12.535  13.513  15.168 -0.0078 -0.2294 -0.0731
17725W        W33619  12.842  17.428   5.890  0.1297  0.1602  0.2504
17726W        W33620  12.522  13.042   1.452 -0.1914  0.0391  0.4270
17727W        W33621   0.374   3.286  13.871 -0.1984  0.0592 -0.0323
17728W        W33622   3.239   1.602  12.841  0.2675 -0.1702  0.1807
17729W        W33623   9.036   7.570  12.693  0.0496  0.2547 -0.0918
17730W        W33624  11.259   4.098  14.140 -0.1005  0.1654  0.2430
17731W        W33625   3.178  14.258   1.616  0.0401  0.2057 -0.0232
17732W        W33626  11.776  13.909   5.546 -0.1529 -0.2676 -0.1623
17733W        W33627   9.667   6.030   5.349  0.3680  0.0124 -0.1407
17734W        W33628   7.979   5.102  16.228 -0.1092 -0.0446 -0.2160
17735W        W33629   8.279   0.607  11.811  0.0496  0.1906  0.6017
17736W        W33630  13.153  12.868  12.665  0.1451 -0.2088 -0.0695
17737W        W33631   4.500   9.162   1.264 -0.1709 -0.0070  0.1255
17738W        W33632  11.567   0.690   4.140  0.0158  0.3561  0.2843
17739W        W33633  12.601  12.668  15.728  0.3103 -0.1808 -0.0138
17740W        W33634   7.434   9.713   2.883 -0.0619  0.1542 -0.0021
17741W        W33635   4.064   6.593   1.244 -0.1122 -0.1306 -0.2155
17742W        W33636   9.893   3.062   1.832  0.1807 -0.0802  0.0806
17743W        W33637   9.671   4.889   2.974 -0.0794 -0.0753 -0.3173
17744W        W33638   7.217   7.955  15.929 -0.0382  0.2753  0.2802
17745W        W33639   8.702  13.306   4.686  0.1633  0.1058 -0.0980
17746W        W33640   6.913   7.405   2.886 -0.1278  0.3504 -0.0889
17747W        W33641  10.271  14.064   4.668 -0.3479 -0.0440 -0.0276
17748W        W33642  14.797  15.639   5.745  0.0419  0.1935  0.1096
17749W        W33643  14.833  16.967  15.545 -0.2689  0.2598 -0.0316
17750W        W33644   7.210   8.446  15.938  0.1442 -0.2006 -0.0584
17751W        W33645  15.183   2.740  13.537 -0.0032 -0.1426  0.0781
17752W        W33646   9.919   6.937  13.569  0.2995  0.1010  0.0512
17753W        W33647   3.849   9.854  16.574 -0.0700 -0.2420 -0.4019
17754W        W33648   7.534  14.223  12.900  0.5606  0.0494  0.0704
17755W        W33649   0.419   0.026   0.939 -0.1984  0.0032 -0.3644
17756W        W33650   8.187  12.493   4.805  0.0090  0.1821 -0.3215
17757W        W33651  14.851   7.200  15.907  0.1811 -0.6331  0.2188
17758W        W33652   3.690  13.905   0.774 -0.1128  0.1132 -0.1225
17759W        W33653  15.106   0.862   4.184  0.1905  0.0025  0.0118
17760W        W33654  10.735   8.618   5.267  0.0958 -0.0603 -0.1122
17761W        W33655   5.520   6.097  14.113  0.1520  0.1407  0.3239
17762W        W33656   7.246  11.490  12.888  0.1087 -0.4550 -0.3235
17763W        W33657  17.315  17.577  16.458 -0.0109 -0.2144 -0.2023
17764W        W33658   9.784   1.358   3.862  0.0199 -0.3461 -0.0663
17765W        W33659   7.111   1.988   0.241  0.1731 -0.0544  0.3078
17766W        W33660   5.239   0.438  16.513  0.0674 -0.0102 -0.1575
17767W        W33661  16.119  13.310   3.209  0.1500 -0.1123  0.3587
17768W        W33662   6.120   2.951   3.099  0.1836 -0.1269  0.0128
17769W        W33663  16.916   1.923  14.290 -0.1467 -0.1792 -0.1201
17770W        W33664   0.428   1.017  12.787 -0.2247 -0.1429 -0.2174
17771W        W33665   7.328  15.118  15.713  0.3304  0.3296 -0.3919
17772W        W33666  15.627   7.635   5.743  0.0307  0.0156 -0.2048
17773W        W33667  11.679  16.255  16.413  0.1518 -0.1447 -0.0038
17774W        W33668   5.073   9.197  14.969 -0.0581  0.1242 -0.0669
17775W        W33669   2.764   7.737  13.692 -0.0090 -0.0724 -0.0485
17776W        W33670  15.162  10.076  12.391 -0.2593 -0.2203  0.1648
17777W        W33671   5.059   4.037   0.815 -0.1229 -0.0736  0.0436
17778W        W33672  16.021  17.213   0.283 -0.2837 -0.0889  0.3056
17779W        W33673   2.278  16.287  16.489 -0.0065  0.4827 -0.0586
17780W        W33674  14.007   5.949  11.224 -0.2640 -0.0360 -0.0028
17781W        W33675  17.218  15.407   6.263 -0.1811  0.0423  0.4393
17782W        W33676  14.804   5.579   1.257 -0.2446  0.0577  0.2349
17783W        W33677  17.189  11.820   5.543 -0.0495  0.0765 -0.1116
17784W        W33678  14.184  17.781   5.369 -0.1059 -0.4664  0.0767
17785W        W33679  15.469  17.805  11.831  0.0767  0.2390 -0.1017
17786W        W33680   9.794   9.776   3.727  0.0158  0.0590 -0.0426
17787W        W33681  12.264  16.781   2.781  0.0361  0.0592  0.1851
17788W        W33682   9.545   9.891   2.626 -0.3121 -0.2056 -0.1762
17789W        W33683   1.047   6.857  16.009 -0.2523  0.0328  0.1200
17790W        W33684   4.143   6.957  15.950  0.0145 -0.0825 -0.1960
17791W        W33685   7.003   4.655  15.509  0.0135 -0.0006 -0.3464
17792W        W33686   4.217   3.515   4.203 -0.0718 -0.4000  0.1789
17793W        W33687   1.335  12.751  16.327  0.0239  0.2360 -0.0753
17794W        W33688   8.976   5.343  11.656 -0.0220 -0.1252  0.0927
17795W        W33689   3.147  14.849  13.379 -0.0937 -0.3301  0.1170
17796W        W33690   0.113   4.514  14.064 -0.1612  0.1346  0.2430
17797W        W33691   5.396  16.400   0.053  0.2572 -0.0310 -0.0020
17798W        W33692  12.419  12.951  14.902  0.1383  0.5289  0.1357
17799W        W33693   3.616   0.621  13.012  0.0732  0.0217 -0.1129
17800W        W33694  14.763   4.889   0.069 -0.0278 -0.1149  0.0188
17801W        W33695  15.215  10.886   3.017 -0.1506 -0.4086 -0.1198
17802W        W33696  13.584   6.084   4.297 -0.1080  0.2230 -0.0442
17803W        W33697  14.692   1.869  12.293 -0.0240  0.1478 -0.2605
17804W        W33698   4.596  12.907   1.033 -0.1140  0.1330 -0.0281
17805W        W33699   6.087  10.957  13.444  0.2145 -0.0978 -0.3153
17806W        W33700   0.612   7.069  16.685 -0.2027  0.0299  0.1218
17807W        W33701  11.120   9.720  16.206 -0.1087  0.0864 -0.2640
17808W        W33702  15.583   5.983   1.211  0.0702 -0.2126  0.0065
17809W        W33703   3.702   1.281  12.079 -0.1205  0.4326  0.1110
17810W        W33704  12.443   7.280  13.768  0.0450  0.1261 -0.1101
17811W        W33705   9.939  13.762   4.404  0.1693 -0.0181 -0.1938
17812W        W33706  11.055   9.214  14.590  0.4021  0.1553  0.0308
17813W        W33707  13.540   1.455   0.944  0.1597 -0.1407  0.1310
17814W        W33708   5.259   6.853   3.065  0.4533 -0.1296  0.3405
17815W        W33709  15.278   2.231  14.106  0.1225 -0.4082  0.0393
17816W        W33710   6.385   2.044  15.257  0.0672 -0.2577  0.1737
17817W        W33711  17.135  16.481  12.573 -0.2344  0.1079 -0.0816
17818W        W33712   8.030  17.530   0.300 -0.2935 -0.1559  0.0004
17819W        W33713  10.049  11.380  15.359  0.0016  0.1051 -0.0664
17820W        W33714  10.883   4.493  14.114 -0.1394 -0.0730 -0.2188
17821W        W33715  15.661   9.515  14.302 -0.0450  0.2488 -0.0065
17822W        W33716   3.024   9.728  16.037  0.2262 -0.5023  0.0386
17823W        W33717   4.401   1.071  14.993  0.4000 -0.0548 -0.1046
17824W        W33718   7.984   5.653   0.274 -0.0360  0.1763 -0.0052
17825W        W33719   2.035  16.750   4.499 -0.2989  0.3917  0.2640
17826W        W33720   0.689  12.505   1.770 -0.1011  0.4227  0.2622
17827W        W33721  17.079   5.551   2.483 -0.0796  0.1717  0.0760
17828W        W33722   0.067   4.133   3.870  0.1793 -0.1768 -0.2304
17829W        W33723  15.831   1.199  12.986 -0.1291  0.0231 -0.2443
17830W        W33724  13.768   4.520  12.497  0.2225  0.4521  0.2542
17831W        W33725  11.876   8.056  16.587 -0.0701  0.0526 -0.1327
17832W        W33726  12.144   1.411   4.155 -0.2119 -0.0847  0.1216
17833W        W33727   1.600  16.036  11.900  0.3630  0.1238  0.0184
17834W        W33728  17.179   4.804  13.553 -0.2515 -0.0432 -0.4336
17835W        W33729   7.221  11.288   0.954  0.2839  0.0379  0.3142
17836W        W33730   8.002  17.454  12.622 -0.1968 -0.0231  0.0985
17837W        W33731   6.172  10.836   2.013  0.0927 -0.0361 -0.1408
17838W        W33732  13.321   7.073   2.694 -0.3074  0.0288 -0.1186
17839W        W33733   8.492   3.287   1.083  0.3279 -0.3457 -0.0978
17840W        W33734   2.618  17.143  12.658  0.0516 -0.0675  0.0995
17841W        W33735   9.721  13.389   4.742 -0.1792 -0.0725 -0.1174
17842W        W33736   4.590   8.154  13.956  0.0870  0.2610  0.2697
17843W        W33737   3.991  16.358   4.275 -0.3953 -0.1739  0.1300
17844W        W33738   4.571   6.184   3.475  0.1858 -0.0837 -0.3732
17845W        W33739   7.061   7.667  14.995  0.1417 -0.1580  0.0726
17846W        W33740  12.030  15.298   5.495  0.0238  0.3390 -0.0090
17847W        W33741   3.792   9.679  15.583  0.1282  0.0766  0.3427
17848W        W33742   0.962  10.130  15.951 -0.0970  0.0078 -0.1925
17849W        W33743   1.275  14.530  13.152  0.0486  0.2435  0.0578
17850W        W33744  12.848  13.123  14.251 -0.0352  0.3179  0.0574
17851W        W33745  14.209   6.707   2.667 -0.3910 -0.2626 -0.3861
17852W        W33746   7.466   5.110   4.649 -0.1826 -0.0173  0.2154
17853W        W33747   9.060   0.934   5.321  0.1770  0.2627  0.2734
17854W        W33748  16.847   2.443  15.138  0.0345 -0.1628 -0.0816
17855W        W33749   2.922   1.852  11.043 -0.1937 -0.0506 -0.0573
17856W        W33750  15.049   3.951  12.052  0.0738  0.1902  0.3150
17857W        W33751  14.868   7.510   0.430 -0.0755  0.2022 -0.0501
17858W        W33752   6.359  13.270  11.731  0.0327  0.1158  0.1339
17859W        W33753   2.723  11.520   1.766 -0.2159 -0.3004 -0.0858
17860W        W33754   2.851  17.047   0.240  0.2112 -0.1180 -0.0948
17861W        W33755   4.667  11.135  12.182  0.3167  0.0435 -0.1775
17862W        W33756   7.324   8.148   1.734  0.3390  0.0540  0.1044
17863W        W33757   1.301   6.281   5.202  0.1371  0.0494 -0.0938
17864W        W33758  10.691  16.210   5.750 -0.1097 -0.1504 -0.1516
17865W        W33759  10.589  16.103  12.678 -0.0746 -0.1304 -0.2430
17866W        W33760  11.528  14.646   4.047 -0.0784 -0.1527 -0.0239
17867W        W33761   6.331  16.782   3.025  0.0697  0.3117  0.0550
17868W        W33762  16.028  15.748   4.329 -0.0720 -0.1350 -0.1371
17869W        W33763   6.679   3.148  16.211  0.1246  0.1022  0.2597
17870W        W33764  10.254   8.680   4.974  0.2839 -0.1191  0.1394
17871W        W33765   7.997  14.077  12.889 -0.0074  0.0138  0.2012
17872W        W33766   9.011   4.707  14.210 -0.0609 -0.1870  0.0192
17873W        W33767  12.789   1.053   2.942 -0.1735 -0.0820  0.0555
17874W        W33768  14.217   3.635  14.239 -0.0170  0.3820 -0.0752
17875W        W33769  12.295   1.152  14.560 -0.0571  0.0382  0.0189
17876W        W33770  16.746   5.135  13.145 -0.0259  0.1638  0.0112
17877W        W33771   8.282  10.955   3.800  0.1284 -0.1037 -0.1965
17878W        W33772  13.315  15.539   5.482 -0.2685 -0.1023 -0.0244
17879W        W33773  17.832   2.661  11.824 -0.3131  0.0047  0.0422
17880W        W33774   6.771   8.319   5.248  0.0485 -0.3580 -0.0134
17881W        W33775   1.826   8.867   1.771 -0.0329  0.0037  0.0417
17882W        W33776  13.940   7.254  16.313 -0.0687 -0.0814  0.1740
17883W        W33777   9.431   0.758  14.830 -0.1231 -0.1567 -0.1127
17884W        W33778  10.042  16.661   2.395  0.1583  0.1517  0.0057
17885W        W33779  17.271  15.223   5.045  0.0547  0.0322  0.0528
17886W        W33780  16.448  17.517  15.402  0.0805 -0.3369  0.2405
17887W        W33781   2.696   0.915   2.794  0.0120 -0.1475 -0.1659
17888W        W33782   2.050   0.613   2.721 -0.2270  0.2031 -0.0304
17889W        W33783   8.099   5.964   3.244  0.3997 -0.0259  0.5149
17890W        W33784   6.527  16.154  13.642  0.0636 -0.4329  0.1623
17891W        W33785  16.156   6.667  15.396  0.2107 -0.1498  0.1251
17892W        W33786  14.112  13.900   3.097 -0.0581  0.4570  0.1440
17893W        W33787   2.273  11.955  15.241  0.2229  0.0086 -0.1128
17894W        W33788   2.989   9.686   3.579 -0.1620  0.0522 -0.1636
17895W        W33789   2.583  10.789   5.938  0.1263 -0.0175 -0.0891
17896W        W33790  13.599  15.330   3.125  0.1132  0.1660  0.0841
17897W        W33791   9.169   9.990  12.557  0.1637 -0.1508 -0.0318
17898W        W33792   1.107   4.397   3.443  0.2823 -0.1742  0.1986
17899W        W33793   7.970   3.141   2.248  0.2039  0.2135  0.1066
17900W        W33794  10.871   5.229   4.092 -0.2548 -0.2761 -0.0046
17901W        W33795   3.236  14.869   2.444  0.0669  0.0992  0.2156
17902W        W33796   5.427   1.679  16.013 -0.4151 -0.0981 -0.1778
17903W        W33797   8.317   7.836   2.531  0.0541 -0.0492  0.0100
17904W        W33798   9.854  14.573  13.413  0.0755 -0.0990 -0.1441
17905W        W33799  14.479   1.583   2.751 -0.1418 -0.1507  0.0619
17906W        W33800  12.319  10.410   1.459 -0.2967 -0.0996 -0.0293
17907W        W33801  12.460   2.536   4.280 -0.0218 -0.0385 -0.2041
17908W        W33802   2.982  15.578  14.370 -0.0492 -0.1652  0.1645
17909W        W33803   6.113  10.167   0.066  0.1246  0.1404 -0.2359
17910W        W33804  16.568   0.187   3.679  0.0790  0.0440 -0.1688
17911W        W33805   4.151   2.291  13.738  0.2975 -0.4234  0.0929
17912W        W33806  14.429   5.065  12.384  0.0134 -0.1586 -0.1354
17913W        W33807   5.544   2.397   4.573 -0.0518 -0.2570  0.1486
17914W        W33808   5.655   9.963   1.019 -0.1609  0.0560 -0.0732
17915W        W33809   1.362   6.371   4.435  0.0733 -0.2565  0.2072
17916W        W33810   0.114  13.126  16.177 -0.1703 -0.0958 -0.4759
17917W        W33811  14.738  14.431   6.706  0.1623 -0.4304 -0.1424
17918W        W33812   9.733   2.086  16.142  0.1060  0.0526 -0.0555
17919W        W33813   0.090   0.583  16.627 -0.0399 -0.0645  0.0365
17920W        W33814  16.486   2.299   3.067 -0.1710 -0.1298 -0.1404
17921W        W33815  12.409  15.840   2.671 -0.1978 -0.5051 -0.0189
17922W        W33816  14.877   8.901  12.994  0.1873 -0.0321 -0.0692
17923W        W33817   5.425   3.395   5.903 -0.2453  0.1512  0.1254
17924W        W33818   2.302   8.346  15.813  0.0151  0.0620 -0.1016
17925W        W33819   0.502  13.662   4.864 -0.0633 -0.0836  0.0181
17926W        W33820   4.636  15.381  11.306 -0.0832  0.0039  0.3330
17927W        W33821   0.422   4.300   5.429  0.0854 -0.2468  0.3194
17928W        W33822   1.054  13.862  14.099  0.2351  0.2278 -0.0185
17929W        W33823   5.477  16.780  11.878  0.2086 -0.0154 -0.1428
17930W        W33824   5.464  15.960  16.820  0.0032 -0.3643 -0.1305
17931W        W33825  13.650   9.534  13.135 -0.2719 -0.0639  0.0323
17932W        W33826   7.786   8.477   2.998  0.0366  0.1040  0.1721
17933W        W33827   9.905  15.007   3.625 -0.0447 -0.0423  0.1217
17934W        W33828  15.266   3.503  12.909 -0.1172 -0.2464 -0.1190
17935W        W33829  10.694  14.742   0.345 -0.0445  0.2850 -0.2580
17936W        W33830   9.596  12.331  11.970  0.0689 -0.2987  0.1652
17937W        W33831   4.819  12.011  13.283  0.0192  0.2481 -0.3009
17938W        W33832   4.086  12.697  14.268 -0.1176 -0.1287  0.0156
17939W        W33833  17.105   3.885  14.708  0.2297 -0.2786 -0.0187
17940W        W33834  14.594   6.395  15.675  0.0221 -0.1378 -0.2204
17941W        W33835  15.188  11.198  13.994  0.0306 -0.0748 -0.0299
17942W        W33836   5.651  17.212   0.231  0.1854  0.3922 -0.1504
17943W        W33837   3.034   9.531   2.270  0.0024  0.3351 -0.1013
17944W        W33838   0.631  10.954  11.843  0.4032 -0.0800  0.4165
17945W        W33839   3.806   6.092   4.607 -0.2675 -0.0102  0.0220
17946W        W33840  12.405   0.541   0.426 -0.0724 -0.0707 -0.1020
17947W        W33841  12.062   6.478  12.180 -0.0677 -0.0005 -0.1359
17948W        W33842  14.749  10.881   2.143  0.2170 -0.0065 -0.1973
17949W        W33843  15.388   4.706  11.333 -0.0478 -0.1609 -0.3303
17950W        W33844   3.902  11.235   5.020 -0.1571 -0.0320  0.0043
17951W        W33845  15.121  16.546  15.412 -0.2686  0.2859 -0.0393
17952W        W33846   9.569   0.700   1.016  0.0690 -0.1068 -0.1565
17953W        W33847   4.375   6.574   2.138  0.2128  0.2011  0.2155
17954W        W33848  14.969  17.389  15.381  0.0551 -0.0469 -0.2197
17955W        W33849   8.387   4.615  15.318 -0.0703  0.4010 -0.2528
17956W        W33850   0.966   1.433  13.926 -0.1577  0.2689  0.0600
17957W        W33851  16.534   9.427   4.126 -0.2550  0.1840 -0.1261
17958W        W33852   1.895   0.889   1.346 -0.1937 -0.0489 -0.0237
17959W        W33853   8.483  15.099  14.882 -0.0773 -0.2313 -0.2384
17960W        W33854   5.771   5.075  15.052  0.1428 -0.1043  0.1657
17961W        W33855  15.913  10.333   5.199 -0.0727  0.1810 -0.0272
17962W        W33856  12.421   4.167   5.562  0.1061 -0.3431  0.2674
17963W        W33857  17.098   1.155   4.778  0.3381  0.1056 -0.1073
17964W        W33858   5.093  16.851   3.825 -0.1650  0.2343 -0.0503
17965W        W33859   6.499  16.981  13.939  0.1792 -0.0569 -0.1918
17966W        W33860   2.751  15.309  15.661  0.0451 -0.1073 -0.0188
17967W        W33861   8.126   4.919   4.075 -0.0687 -0.3488  0.2829
17968W        W33862   2.177  15.933  12.782  0.1504 -0.2231  0.0016
17969W        W33863   8.707   4.741   2.879  0.2788 -0.1053  0.1307
17970W        W33864   8.600  10.947   5.082  0.0682 -0.1814 -0.2664
17971W        W33865   0.168   9.327   2.946 -0.0700 -0.1540  0.0151
17972W        W33866  11.879   4.168  14.494  0.1110 -0.2702  0.1467
17973W        W33867  10.761   4.812   6.472  0.1166 -0.0060  0.0978
17974W        W33868  16.837   2.743  12.815  0.0587  0.1811 -0.1259
17975W        W33869   7.460   6.502  16.381  0.0189 -0.0545  0.0385
17976W        W33870  17.205   7.916   2.273 -0.1455  0.1645 -0.2091
17977W        W33871   3.684  14.222   4.897 -0.1921 -0.0774  0.1344
17978W        W33872  13.864  10.666   4.854  0.0748  0.2377 -0.0452
17979W        W33873   6.731   0.656   0.552 -0.1163 -0.0349  0.2943
17980W        W33874  10.410   3.775  12.588 -0.0008 -0.2818  0.1533
17981W        W33875   6.353  11.876  11.546  0.0300  0.0379  0.0633
17982W        W33876   9.429  14.909  13.621 -0.0482  0.0108  0.0498
17983W        W33877   8.060   9.688  16.260 -0.1647  0.0724 -0.2012
17984W        W33878  15.977   6.094  12.769 -0.1420  0.1838 -0.0225
17985W        W33879   1.359   0.635   0.154 -0.0235 -0.0476 -0.1639
17986W        W33880   7.114   8.939   2.421 -0.1130  0.2631  0.3316
17987W        W33881   9.906  15.587   3.454 -0.1836 -0.0456  0.0085
17988W        W33882   1.776   4.725  15.493  0.0942  0.0936  0.3913
17989W        W33883  10.818   5.911   0.721 -0.3231  0.0393  0.0820
17990W        W33884  17.529   6.948   3.022 -0.0206  0.0306 -0.3461
17991W        W33885  12.832   2.103  10.906  0.0948 -0.1489 -0.4381
17992W        W33886  16.510   7.407   3.759 -0.1154 -0.0484  0.2114
17993W        W33887   5.247  14.101   5.610 -0.0049  0.0320  0.1266
17994W        W33888   6.677   4.822   6.061  0.0766  0.0677  0.0411
17995W        W33889  15.024   0.899  13.081 -0.2729 -0.0403  0.1493
17996W        W33890   5.719   5.439   4.924 -0.0818  0.0449  0.1504
17997W        W33891   5.102  12.231   1.474  0.0539  0.0367  0.0952
17998W        W33892   8.214  15.757  12.436 -0.0868  0.0650 -0.1124
17999W        W33893  12.650   1.616  14.566  0.0752  0.0366  0.1283
18000W        W33894   0.073   9.746  14.629  0.0019  0.1906  0.1889
18001W        W33895   5.565   3.232   2.208 -0.0112  0.1663  0.0652
18002W        W33896   8.148   8.068   5.227 -0.0457  0.0597 -0.3801
18003W        W33897   5.025   6.959  12.488  0.3498 -0.0448  0.0808
18004W        W33898   3.415  14.037   1.159 -0.0975 -0.0604  0.0019
18005W        W33899  17.128  17.186   0.433  0.0609  0.1517  0.2525
18006W        W33900   4.874   9.154  11.185 -0.0188  0.1009 -0.1270
18007W        W33901  17.403  16.631  13.527 -0.0019 -0.3460 -0.0263
18008W        W33902   9.076   5.926  13.088 -0.1236 -0.1131 -0.1815
18009W        W33903   8.328  17.085  14.830  0.1982  0.2905 -0.3348
18010W        W33904   7.940   9.949  13.540 -0.2855 -0.0608  0.0275
18011W        W33905  11.248  15.049   5.311 -0.3236  0.0395  0.1051
18012W        W33906   7.511   0.663   4.782  0.0940 -0.0191 -0.1020
18013W        W33907   5.240  12.631  13.928  0.0330 -0.0109  0.2282
18014W        W33908  11.602   9.853   5.081 -0.1088 -0.1060 -0.1094
18015W        W33909  15.736   0.655   5.764  0.0234 -0.1899 -0.1209
18016W        W33910   5.199  16.356   2.927  0.3422 -0.0089 -0.1089
18017W        W33911   5.706   1.525  11.585  0.2297 -0.0007 -0.0170
18018W        W33912   6.312   3.475   3.925  0.1704  0.1613  0.0656
18019W        W33913   8.951   5.448  12.933  0.4077 -0.2977 -0.2357
18020W        W33914  14.769  13.574  16.747 -0.0599 -0.1427 -0.0399
18021W        W33915   6.864   1.023   3.551 -0.1677  0.1948  0.0361
18022W        W33916  11.864  16.625   5.643  0.1104  0.1136 -0.0131
18023W        W33917  10.658  12.865   0.623  0.0586  0.1368  0.2282
18024W        W33918   4.159   1.455  11.456 -0.1309  0.2603  0.2086
18025W        W33919  14.650   8.039  11.903  0.1503 -0.1124  0.4182
18026W        W33920   5.518  15.160   3.619 -0.1683 -0.0391 -0.1274
18027W        W33921  15.369   1.839   0.769  0.0325  0.1716 -0.0046
18028W        W33922   3.554   1.184   3.228  0.1864  0.0017 -0.0910
18029W        W33923   4.040   2.265   2.776 -0.0881 -0.2073  0.1209
18030W        W33924   9.516   5.831   4.807  0.1614  0.2420  0.0183
18031W        W33925  11.528  17.826  15.922  0.1622  0.0512  0.2888
18032W        W33926   7.024   0.398   1.291  0.1018  0.2179  0.1415
18033W        W33927  15.650  14.495   2.277 -0.3645  0.0046 -0.0030
18034W        W33928  11.901  17.277  13.515 -0.0378 -0.0657  0.2502
18035W        W33929  16.424  15.793   0.288 -0.4088 -0.1270 -0.0579
18036W        W33930  12.298   0.141  16.565 -0.0918  0.0666 -0.2367
18037W        W33931   7.283  15.010   2.663 -0.0915  0.2170  0.1292
18038W        W33932   7.386   7.195  14.854  0.0347  0.1577  0.0794
18039W        W33933   5.373  14.397   1.920  0.0578  0.1301  0.2161
18040W        W33934   5.542  14.666   4.592 -0.0021  0.1813  0.1037
18041W        W33935   2.106   0.989   0.054  0.0123 -0.1679 -0.1136
18042W        W33936   3.311  16.291   1.719 -0.0179  0.1084  0.0183
18043W        W33937   7.448  12.438   0.410 -0.3903 -0.1461  0.1121
18044W        W33938   0.546   7.627  14.045  0.2688 -0.1326 -0.0030
18045W        W33939   0.525   2.550   3.601 -0.1860 -0.2101  0.0032
18046W        W33940  13.448  17.009   4.717 -0.2932 -0.1229  0.2451
18047W        W33941   7.052   7.938   2.764  0.3018  0.0890  0.0284
18048W        W33942   9.345   3.006   4.736  0.0530 -0.2967 -0.0214
18049W        W33943  10.178   9.603   0.243 -0.1661 -0.0894 -0.0974
18050W        W33944   3.121  16.297   0.386  0.0559  0.1905  0.0126
18051W        W33945   1.022  10.538   1.499 -0.1483  0.2740 -0.1318
18052W        W33946  13.939  13.517   6.287 -0.0131  0.0490 -0.0289
18053W        W33947   4.216   9.580  15.767 -0.2272 -0.1839 -0.0758
18054W        W33948   9.863   0.228   4.077  0.0944 -0.0690  0.0371
18055W        W33949  16.010   7.194  16.064  0.4272 -0.0950 -0.0094
18056W        W33950   2.329   6.990   2.522  0.2538  0.1016 -0.0359
18057W        W33951  14.958  15.877  12.409  0.1127  0.0635  0.0624
18058W        W33952  15.384  10.454  14.463 -0.0325 -0.1533 -0.0585
18059W        W33953   5.920   2.975   0.358  0.1045 -0.2130  0.1460
18060W        W33954  16.325  14.190   4.330 -0.0911 -0.0345 -0.0909
18061W        W33955   2.527   8.372  14.327  0.1865 -0.1653  0.3451
18062W        W33956   2.208   8.342   4.165 -0.0596  0.0152  0.0398
18063W        W33957  14.885   0.212  15.520  0.1866  0.2288 -0.1758
18064W        W33958   4.536  17.604  12.754 -0.1328 -0.3376 -0.2052
18065W        W33959  12.162  12.878  15.757  0.1282  0.1101 -0.2424
18066W        W33960   2.219   2.320   5.013 -0.0281 -0.0205 -0.0673
18067W        W33961   7.101   0.352   5.546 -0.2645  0.0796  0.0755
18068W        W33962   3.878  10.472  15.985 -0.0155  0.2185 -0.1927
18069W        W33963   0.742  16.313   4.518 -0.2779 -0.2180 -0.1897
18070W        W33964  15.295   4.245  11.200  0.1111  0.2844 -0.0217
18071W        W33965  16.098  16.067   1.838  0.2878  0.1231  0.3434
18072W        W33966  16.191   5.464   4.109  0.3055 -0.0324  0.0190
18073W        W33967   4.234  13.470  15.254  0.0817  0.0393 -0.1801
18074W        W33968  12.429  11.951   1.815  0.3211  0.1099  0.1064
18075W        W33969   8.264  12.206   4.404 -0.1079 -0.2287  0.0094
18076W        W33970   9.937   0.901   5.102  0.0080  0.3742 -0.0110
18077W        W33971   4.295   5.892  16.714  0.0966 -0.0091 -0.0883
18078W        W33972  11.103  17.068  14.299  0.0576 -0.1125  0.1076
18079W        W33973  10.340   1.920  12.795 -0.3153  0.2192  0.0156
18080W        W33974   1.050  17.505   0.190 -0.1099  0.3020 -0.0665
18081W        W33975   7.268  13.512   2.026  0.1419  0.1377  0.0491
18082W        W33976  13.374  14.292   4.715  0.3012  0.1872  0.0742
18083W        W33977   2.816   4.850   0.067  0.0018 -0.2553  0.0035
18084W        W33978  13.763   8.959  11.615  0.0999  0.0161  0.2542
18085W        W33979  14.894   7.455  11.962 -0.0901  0.0102  0.1143
18086W        W33980   9.170  15.561  13.003 -0.0379 -0.2101  0.1214
18087W        W33981   6.397  16.306   1.237  0.1165  0.1549 -0.3777
18088W        W33982  12.990  10.000   5.281  0.0180 -0.0611 -0.0120
18089W        W33983   6.686  10.579   5.260 -0.1208  0.1497  0.2028
18090W        W33984  14.325   5.793  11.980  0.0973  0.1123 -0.2255
18091W        W33985  10.095  12.593   3.283  0.1511  0.3163 -0.0634
18092W        W33986  14.110   0.491   4.895  0.2092  0.2036  0.1085
18093W        W33987  14.227   7.540   2.435  0.3350  0.3192  0.0225
18094W        W33988   3.869   3.954  15.909 -0.0912 -0.0844 -0.0261
18095W        W33989   3.167   2.511   0.257  0.0462  0.1859 -0.3578
18096W        W33990   5.313   9.082  15.749  0.0078  0.2241 -0.1072
18097W        W33991   8.879  14.548   3.272  0.1756 -0.2681  0.0047
18098W        W33992  14.154   7.551   1.699 -0.1711 -0.2277  0.4221
18099W        W33993   8.079  11.100   5.195 -0.1032  0.2527  0.0844
18100W        W33994   2.409   3.927   4.070  0.1112  0.1915 -0.3008
18101W        W33995   3.955   6.802  14.095 -0.1779 -0.0825  0.0872
18102W        W33996  17.465   3.652  12.592  0.0831 -0.0333  0.0336
18103W        W33997   5.265  12.223  11.367 -0.1181 -0.0665 -0.2503
18104W        W33998  12.041  16.458   0.828  0.2415 -0.2589 -0.1626
18105W        W33999  12.667   6.456  15.979  0.0227  0.0712  0.0483
18106W        W34000   5.540  11.097   0.420  0.0353 -0.0856 -0.0571
18107W        W34001   9.997  15.442  14.214  0.0064 -0.1315 -0.0425
18108W        W34002   3.660  11.421   6.689 -0.1291 -0.1469  0.0424
18109W        W34003   4.466   4.387   2.342 -0.0844  0.0188 -0.0804
18110W        W34004   4.108  10.002   3.076  0.2414  0.0006  0.1652
18111W        W34005  15.412  14.888   5.344 -0.2364  0.1908  0.1995
18112W        W34006   7.502   2.956   3.061 -0.1378 -0.0424  0.2252
18113W        W34007  10.991  12.521  12.218 -0.2186  0.1333  0.3376
18114W        W34008   5.129   9.881  12.181  0.4103 -0.0268 -0.1603
18115W        W34009   0.587  12.715   1.319  0.1709  0.2850 -0.1371
18116W        W34010   4.232  10.905  14.692  0.0618 -0.4013  0.0171
18117W        W34011  16.354  10.450  13.682  0.2386 -0.1360  0.0036
18118W        W34012   6.886  17.611   3.632 -0.0187  0.7448 -0.0315
18119W        W34013   0.972  16.584  13.408  0.1537  0.1647 -0.0031
18120W        W34014  11.636  16.796   0.831  0.3028 -0.1546  0.2319
18121W        W34015  12.791  13.336   2.178 -0.0038  0.1800 -0.0316
18122W        W34016  15.618  16.565  15.337 -0.2937 -0.1446 -0.3283
18123W        W34017   3.128   1.283  13.247 -0.1408  0.0829 -0.1974
18124W        W34018   5.003   7.975  13.777  0.3293  0.0734  0.0134
18125W        W34019   9.307  12.405   4.086  0.2069 -0.0625 -0.0993
18126W        W34020   3.206   8.863   5.391  0.2122  0.2842  0.1476
18127W        W34021  15.281   9.545  16.194  0.1028 -0.0755 -0.0619
18128W        W34022   1.103   5.700  12.316  0.3906 -0.0685 -0.1459
18129W        W34023   7.874  11.644   6.034 -0.0827 -0.0373  0.5638
18130W        W34024   2.640  17.231   0.874 -0.0699 -0.2742 -0.2774
18131W        W34025  12.170   1.120  13.071  0.2511 -0.0408  0.0704
18132W        W34026   1.965   9.824  11.482 -0.0028 -0.1706 -0.1376
18133W        W34027   1.661  15.983  15.424  0.3233 -0.0740 -0.3681
18134W        W34028  17.192   2.368   1.264  0.0367 -0.1503 -0.1246
18135W        W34029   5.917  11.977  16.745 -0.2384 -0.0050 -0.1416
18136W        W34030  10.546   6.480  13.223  0.0298 -0.1614  0.0733
18137W        W34031   6.414   6.744   1.467 -0.3572  0.0129  0.0436
18138W        W34032  14.769   8.405   4.383 -0.1211 -0.0048  0.1350
18139W        W34033   7.725  17.064  13.882 -0.0510  0.1835 -0.1040
18140W        W34034  10.438   1.779  10.296  0.0728  0.2394  0.1308
18141W        W34035   6.780  15.641  15.416  0.1479  0.1980 -0.1421
18142W        W34036   2.634  16.316  16.920  0.0734  0.0517 -0.0374
18143W        W34037   5.470  12.045  12.468  0.0792  0.4007 -0.0517
18144W        W34038   3.366   0.030  11.722  0.1308 -0.4201  0.1565
18145W        W34039  15.520   6.423  12.619 -0.0321 -0.0061  0.1494
18146W        W34040  16.064   4.619  14.155 -0.0014  0.1522  0.0407
18147W        W34041   4.634  11.659   1.607 -0.2794 -0.0178  0.2214
18148W        W34042   1.463  11.185   1.944 -0.0375  0.2031 -0.3323
18149W        W34043   5.873  13.577   1.743  0.2523  0.0656 -0.0896
18150W        W34044  11.654  12.927  11.788 -0.2227  0.2139  0.0365
18151W        W34045   2.654   3.603   3.854 -0.2360  0.2915  0.1308
18152W        W34046  14.212   1.532   4.929  0.1324 -0.1187 -0.1132
18153W        W34047   1.402   2.598  13.368  0.1783 -0.0429 -0.0752
18154W        W34048  13.318   7.675   1.305 -0.0881  0.1680  0.2219
18155W        W34049  12.281  17.697  12.298  0.0539 -0.3648 -0.0139
18156W        W34050   9.889  15.550   2.139  0.0832  0.3653  0.3926
18157W        W34051  16.156  14.706  15.776 -0.1426 -0.3508 -0.1977
18158W        W34052   6.700  10.114  13.527 -0.1406 -0.0162 -0.2543
18159W        W34053  17.374   2.233   4.677  0.3274 -0.0798  0.0090
18160W        W34054  10.552   1.305   5.521  0.0437  0.1740 -0.0677
18161W        W34055   9.818   8.224   2.611 -0.1899 -0.0906 -0.0042
18162W        W34056   7.597   4.451   3.329  0.1116  0.1036 -0.0516
18163W        W34057   8.521  16.997   1.318  0.0793 -0.2998  0.0476
18164W        W34058   3.884   3.250   3.588  0.0091  0.2488 -0.1986
18165W        W34059   9.168  16.589  13.992 -0.3648  0.0064  0.2336
18166W        W34060   3.787   8.878  11.877 -0.1095 -0.2001 -0.1710
18167W        W34061   3.784  16.358  13.437  0.0194 -0.1428 -0.1057
18168W        W34062  14.815   2.452   1.234  0.0857  0.1400 -0.0957
18169W        W34063  12.633  13.044   3.317 -0.0613  0.1188 -0.3456
18170W        W34064   0.591   2.786   0.391  0.1629 -0.1630 -0.1945
18171W        W34065   2.688   3.004   0.764  0.1495  0.1614 -0.2277
18172W        W34066  15.323  15.310   1.922  0.0252  0.1325  0.2470
18173W        W34067  13.188   4.216   0.464 -0.3432  0.2123 -0.1124
18174W        W34068  16.187  15.903  16.745 -0.1701  0.3295  0.0581
18175W        W34069   1.312   3.730   2.922 -0.0401  0.2332  0.1522
18176W        W34070   5.626  11.298   5.083 -0.1776  0.3246 -0.0231
18177W        W34071   7.123   8.812  12.118  0.1917  0.0274  0.0273
18178W        W34072   1.169  10.204  11.823  0.0010  0.2706  0.0160
18179W        W34073  11.743  10.806  12.039  0.2951 -0.0943  0.0631
18180W        W34074  14.578   4.127  16.745  0.0150  0.1857 -0.0364
18181W        W34075   5.425  13.275  13.349  0.0295 -0.2166  0.3308
18182W        W34076  10.813   0.313   1.997 -0.0553  0.0595  0.1068
18183W        W34077  11.379  12.629  12.604  0.0528  0.0255  0.0583
18184W        W34078  14.299  12.823  15.535  0.2187 -0.4563 -0.1802
18185W        W34079  17.832  10.720   3.659 -0.3344 -0.0286 -0.0112
18186W        W34080   9.484   0.742   3.241 -0.1153  0.0088 -0.2743
18187W        W34081   2.015  16.357  12.916  0.1805 -0.0535  0.0129
18188W        W34082  14.049   3.361   2.798 -0.0537 -0.2195  0.2718
18189W        W34083  17.417  12.743   2.101  0.0721 -0.3218 -0.1453
18190W        W34084   1.262   5.312  16.548 -0.3745  0.2963 -0.1706
18191W        W34085   3.481   8.067  14.125 -0.1213  0.2387 -0.4441
18192W        W34086   8.205   9.158   0.248  0.2412 -0.3024  0.1966
18193W        W34087  13.258  14.671   1.459 -0.0445 -0.0330 -0.1111
18194W        W34088  15.911  11.630   5.428  0.0786  0.2307  0.1257
18195W        W34089  12.499  11.060  15.452 -0.2331  0.6051 -0.1114
18196W        W34090  11.459   6.885   0.843  0.3090  0.1050  0.1877
18197W        W34091   0.848   1.959   5.014  0.2693 -0.1188  0.3479
18198W        W34092   1.472  16.483   2.486  0.0343  0.1773  0.1451
18199W        W34093  11.270   8.314   4.567 -0.1070 -0.0438  0.0418
18200W        W34094  17.570   7.560  11.873  0.0669  0.0983 -0.2334
18201W        W34095  10.283  13.216   1.934  0.0005 -0.3969 -0.0267
18202W        W34096  13.552  12.392  12.473 -0.0429 -0.0042 -0.1577
18203W        W34097  15.780   3.344  13.137  0.1642 -0.2289 -0.4542
18204W        W34098   2.757   8.639   5.221  0.0036  0.0432 -0.2713
18205W        W34099   6.604  17.614   2.487  0.1369  0.0137 -0.1099
18206W        W34100  17.020   9.613   4.043 -0.5177 -0.3368 -0.2262
18207W        W34101   1.838  11.300   2.456  0.0337 -0.1512 -0.0238
18208W        W34102   8.430   4.462   5.322 -0.2983 -0.1364 -0.2230
18209W        W34103   0.931  10.203   0.531  0.0841 -0.1852 -0.2215
18210W        W34104   0.510   4.745  16.514 -0.0951 -0.1296  0.2457
18211W        W34105   0.191   5.770  16.044  0.0650 -0.1611  0.2028
18212W        W34106  10.516   9.520   1.735  0.3512  0.1323  0.0650
18213W        W34107   0.335   5.893  15.253  0.0125 -0.1482  0.0118
18214W        W34108   8.155   8.047  12.572 -0.1086  0.0756  0.3125
18215W        W34109   9.592   6.793  13.913 -0.0625  0.2358 -0.0529
18216W        W34110   4.434   9.450  12.757 -0.1032 -0.1545  0.1470
18217W        W34111  13.509   6.808  10.586 -0.3603 -0.0948  0.0473
18218W        W34112  14.419   9.627  12.687  0.3833 -0.2428 -0.1969
18219W        W34113   7.647  15.666   3.712  0.0491 -0.0758 -0.1314
18220W        W34114   1.344  13.100   5.822  0.4141  0.2170 -0.4437
18221W        W34115   9.514  14.005  14.420 -0.0967 -0.1125 -0.1013
18222W        W34116  17.520   1.151   3.594  0.0305  0.3136 -0.0269
18223W        W34117   7.165   8.060   6.672 -0.0966 -0.0109 -0.1398
18224W        W34118  16.341   9.899  13.832 -0.1995  0.0380 -0.0996
18225W        W34119   4.236   3.692  13.417 -0.2759  0.0573 -0.0540
18226W        W34120   9.736  14.714   6.174 -0.0416  0.0226 -0.0800
18227W        W34121   4.297   6.963   4.294 -0.0434 -0.1457 -0.0728
18228W        W34122  13.624  15.174   4.773  0.2104  0.1440  0.2040
18229W        W34123  11.692   6.741  13.075 -0.1878  0.4264  0.0636
18230W        W34124  13.589  16.193  16.890 -0.0982 -0.4934 -0.0192
18231W        W34125  11.626   0.985  15.928 -0.0295 -0.2686 -0.0989
18232W        W34126   6.841   6.815  12.068 -0.1655 -0.1345 -0.0682
18233W        W34127   5.381   1.375   4.740 -0.3243 -0.0117  0.0926
18234W        W34128   5.987   6.378  15.318  0.1709  0.0000 -0.0150
18235W        W34129  15.746   1.187   5.162 -0.2358 -0.0822 -0.0149
18236W        W34130   7.821  10.397  15.212 -0.0460 -0.1991 -0.0651
18237W        W34131   7.357   7.840  12.797  0.1299 -0.0198  0.0951
18238W        W34132   9.873   3.234  15.732  0.0110 -0.0707  0.0962
18239W        W34133  13.188   5.875  10.528  0.0840 -0.4236 -0.2081
18240W        W34134   3.640   5.074  14.381  0.1761  0.1644  0.3544
18241W        W34135   4.769   8.137  16.216  0.0587 -0.0226 -0.0049
18242W        W34136   9.186  10.752  13.905 -0.0952 -0.0776 -0.2109
18243W        W34137   6.604   0.174   3.843 -0.0771  0.0612  0.1342
18244W        W34138   2.240   4.796   2.808  0.0253  0.2004  0.1650
18245W        W34139   5.257  14.563   5.428  0.0451 -0.2747 -0.1551
18246W        W34140  14.742  10.326  11.977  0.2862 -0.1939  0.3000
18247W        W34141   4.756   5.388   3.930  0.1811  0.0739 -0.0649
18248W        W34142  11.054   6.705  11.896  0.3249 -0.0430  0.3150
18249W        W34143   4.178   8.456   0.392  0.0786  0.1749 -0.1763
18250W        W34144   4.692   5.447  13.097  0.0061  0.0217  0.1201
18251W        W34145  10.000   7.307   0.271  0.2584 -0.0723 -0.1438
18252W        W34146  10.475   2.106  13.618  0.1567  0.0525 -0.1925
18253W        W34147  11.365   1.680   5.608  0.2474 -0.3267  0.0106
18254W        W34148  12.327  15.328  16.752 -0.0664  0.1343  0.1245
18255W        W34149   7.650   9.555  14.389  0.0396  0.3032  0.0454
18256W        W34150   6.972  17.669  15.949 -0.1401  0.0024 -0.2432
18257W        W34151  17.447   5.615  13.905 -0.0760 -0.1692  0.0332
18258W        W34152  11.126   1.696  15.464  0.0689  0.2504 -0.0845
18259W        W34153  16.623  13.712   6.236  0.0616 -0.0764  0.2631
18260W        W34154   6.917   5.137  12.960  0.0391  0.1646  0.1910
18261W        W34155   3.118   3.264   1.710 -0.1494  0.2366  0.3230
18262W        W34156  17.267   2.191   0.237  0.0957 -0.1866 -0.1484
18263W        W34157   0.690  12.930   0.109  0.0384  0.0107  0.1467
18264W        W34158  11.474  17.437   1.881  0.2505  0.0752  0.0333
18265W        W34159  10.384  17.088  12.402  0.1974 -0.1512 -0.0603
18266W        W34160  13.526  15.615   3.578 -0.3012  0.3461  0.0031
18267W        W34161  15.072   2.248  15.555 -0.2210 -0.1467 -0.0897
18268W        W34162   0.813   6.061   3.853  0.2069 -0.1823  0.0446
18269W        W34163  14.706  14.143  16.904 -0.0887 -0.0238  0.1245
18270W        W34164  14.616   0.457  13.794  0.0510 -0.0056 -0.3161
18271W        W34165   7.677   3.676   3.848 -0.2907  0.0307  0.1226
18272W        W34166   7.431   1.117   0.321 -0.0816  0.1375 -0.0489
18273W        W34167  13.929   9.784   0.238 -0.0641 -0.0036  0.1824
18274W        W34168   0.827  17.839  13.750 -0.2179 -0.3072  0.0734
18275W        W34169   7.119   4.498  13.713  0.1004  0.0470 -0.2708
18276W        W34170  17.132  12.499   3.866  0.1082  0.0245  0.0641
18277W        W34171  15.173   9.927  15.157 -0.1098 -0.0727 -0.1602
18278W        W34172   3.314  14.147  12.855 -0.1713  0.2422 -0.0404
18279W        W34173   5.367  12.370   4.275 -0.0437 -0.0305  0.1503
18280W        W34174  13.192   7.669   5.681  0.0099  0.2372  0.1387
18281W        W34175   8.367   2.214  14.634  0.0439 -0.1471  0.1853
18282W        W34176  11.060   2.814  12.914  0.0297  0.2458 -0.0258
18283W        W34177  10.911   9.857  15.404  0.1093  0.4069  0.0694
18284W        W34178  17.147   8.857  12.701  0.0400  0.1860 -0.0408
18285W        W34179   6.670   9.155  14.709  0.1959  0.3573  0.1585
18286W        W34180  16.230   1.341   5.348 -0.1372 -0.2253 -0.2653
18287W        W34181   0.259   4.122  12.050  0.1316 -0.1351 -0.3825
18288W        W34182   3.633   7.559  11.468  0.2261  0.2102 -0.0150
18289W        W34183  15.127   1.646  16.750  0.0137  0.0560  0.2641
18290W        W34184   8.646  12.053   0.322  0.0591 -0.1576 -0.0084
18291W        W34185   5.718  14.245   5.811 -0.0052 -0.3213 -0.2330
18292W        W34186   0.749   3.885  12.165  0.0187 -0.3921 -0.0972
18293W        W34187   4.485   5.257  12.195 -0.0581  0.0636 -0.0572
18294W        W34188   9.634   5.631   3.709 -0.1690 -0.2351 -0.1592
18295W        W34189  10.205  10.995   2.040  0.2212  0.1090 -0.3193
18296W        W34190   5.382  17.341  11.889  0.1259 -0.0924  0.2193
18297W        W34191   2.772  15.654  12.163  0.0689 -0.1597  0.0721
18298W        W34192  16.137  11.907  15.433 -0.0202  0.0812  0.0737
18299W        W34193   6.555  17.070  14.490 -0.3117  0.3560  0.0087
18300W        W34194  15.561   1.771   3.387 -0.0810  0.0628  0.2104
18301W        W34195  14.325  14.372   1.022 -0.1599 -0.2014  0.0936
18302W        W34196  11.949  16.848  11.696 -0.0738 -0.0103 -0.1162
18303W        W34197  15.042  10.953   6.163  0.1132  0.0327 -0.3009
18304W        W34198  13.948   3.690   1.781  0.1112 -0.0148  0.0775
18305W        W34199   7.134   8.284   6.201  0.6539  0.1921 -0.2979
18306W        W34200   0.111   5.789  16.583 -0.1033 -0.1985 -0.2403
18307W        W34201   4.354  10.673  16.694 -0.1164  0.2151 -0.1163
18308W        W34202   4.432   3.004   0.583 -0.1585  0.0402 -0.0579
18309W        W34203  15.265  12.977  16.848 -0.0593  0.3376  0.1969
18310W        W34204   0.261   1.564  16.251 -0.1224  0.2553  0.0480
18311W        W34205   7.491   3.380  15.946 -0.0966 -0.0873 -0.0422
18312W        W34206   0.618   2.812   4.935  0.0027 -0.1365 -0.1395
18313W        W34207  13.481  14.319   5.240 -0.2647  0.3213  0.1077
18314W        W34208   8.400   0.536   1.436 -0.1024  0.0305 -0.1748
18315W        W34209  15.572  15.634  11.876 -0.0592  0.2640  0.0901
18316W        W34210   6.963   2.862   2.856  0.0482  0.0871 -0.3256
18317W        W34211   9.002   4.776   4.272  0.0454 -0.1625  0.3040
18318W        W34212   2.351  17.279   0.439 -0.3062  0.1295  0.1215
18319W        W34213   5.246   7.788   3.250 -0.1815 -0.0557  0.0987
18320W        W34214  14.081  14.813  15.075  0.1213  0.1355 -0.1708
18321W        W34215  13.483   4.151   3.391  0.0407  0.4488  0.1210
18322W        W34216  14.075   9.287   3.619 -0.0065  0.1488  0.2095
18323W        W34217   7.302   8.826   0.659 -0.3107  0.3724 -0.2826
18324W        W34218   1.040  10.846   2.429 -0.2901 -0.0233  0.0663
18325W        W34219  13.042  11.846   2.567  0.1296 -0.0294 -0.1557
18326W        W34220  16.564   5.363  11.849  0.0985 -0.1149  0.0052
18327W        W34221   8.029   5.196  15.692  0.0384 -0.0437  0.1657
18328W        W34222   7.426  13.806  15.490 -0.1834 -0.0263  0.1498
18329W        W34223  13.687   4.601   3.384 -0.0302 -0.0835  0.0316
18330W        W34224   8.506   6.933   0.153 -0.2399 -0.0579  0.0839
18331W        W34225   0.938   9.603  15.158  0.1282 -0.2353  0.1741
18332W        W34226  10.884  14.074   0.679  0.3114  0.1494  0.1729
18333W        W34227   3.898   2.684  11.742 -0.1040  0.6102 -0.1324
18334W        W34228  14.585  14.072   2.474  0.2473  0.1788 -0.1946
18335W        W34229  16.172   7.411   0.560  0.1663 -0.3605 -0.1070
18336W        W34230  16.255   6.280   1.036 -0.0060 -0.1343 -0.0742
18337W        W34231  17.242  10.734   4.531  0.1340 -0.1816  0.1685
18338W        W34232  11.978  16.832  14.469 -0.1787 -0.1985 -0.0479
18339W        W34233  13.454   2.347   2.922  0.2490 -0.2117  0.0620
18340W        W34234   2.141  12.450   5.163  0.1740 -0.1327 -0.0058
18341W        W34235  13.673   0.913  11.291 -0.3687  0.0353 -0.0459
18342W        W34236  12.795   5.929  16.253 -0.1338 -0.1066 -0.1484
18343W        W34237   5.861  17.686   3.996  0.2316 -0.1352 -0.1711
18344W        W34238  16.983   6.037  11.325 -0.0596 -0.0926 -0.4015
18345W        W34239   0.628   3.359   2.968  0.2215  0.1120  0.0745
18346W        W34240   8.052   7.540  13.816  0.1073  0.0432  0.4477
18347W        W34241  12.590  11.812   5.601  0.1022  0.1912 -0.3727
18348W        W34242  12.620   8.264   2.781  0.0417 -0.1265  0.3163
18349W        W34243  12.399  13.366   4.695 -0.1448  0.1268  0.1525
18350W        W34244  12.115   6.338   3.668  0.2142 -0.1775 -0.0264
18351W        W34245   3.784  12.402   4.874 -0.0249 -0.0942 -0.1655
18352W        W34246  10.611   3.411  11.199  0.0526  0.3088 -0.3569
18353W        W34247   6.369   5.641   2.132 -0.2256  0.1035  0.1594
18354W        W34248  10.011  16.900  14.139 -0.1954 -0.2447 -0.0262
18355W        W34249   2.751   8.044  12.735  0.0193  0.2268  0.2172
18356W        W34250  14.048   0.989   4.798  0.0460  0.0143  0.0931
18357W        W34251  10.074   0.241   3.577  0.1265  0.1957  0.2226
18358W        W34252   1.719  11.796  14.574  0.0014  0.2916 -0.2625
18359W        W34253   8.918   8.380  11.723  0.2042  0.1999  0.2529
18360W        W34254   3.873   3.015   4.070 -0.2190  0.0287 -0.0074
18361W        W34255  16.997   7.635   2.618  0.2168 -0.1969  0.4255
18362W        W34256  13.394  11.719  13.428  0.1411  0.0442  0.0655
18363W        W34257   6.875  15.507   3.295 -0.1778 -0.2200  0.2717
18364W        W34258   4.379   1.006  12.998  0.0469  0.1426 -0.1839
18365W        W34259  12.227  15.544  11.961 -0.2093  0.3176  0.2737
18366W        W34260  14.395  10.817  13.917 -0.1107 -0.1777  0.2270
18367W        W34261  14.253  10.397  14.787  0.0841 -0.0932  0.0175
18368W        W34262   8.613   9.838  14.748  0.2635 -0.0365 -0.2966
18369W        W34263   7.942  17.704   5.134 -0.1979  0.2554  0.0028
18370W        W34264  11.693   1.395  15.674 -0.3075 -0.0350  0.1517
18371W        W34265  16.631   7.397   1.808  0.1045 -0.0002  0.0573
18372W        W34266  10.152  14.531   2.963  0.1037  0.0477 -0.0116
18373W        W34267   2.604   4.069  11.640 -0.1800 -0.0698 -0.0413
18374W        W34268   4.867   6.678  14.140 -0.1365 -0.0664  0.1302
18375W        W34269   9.612  15.233   0.369  0.0014  0.2965  0.0173
18376W        W34270  12.855   5.203  12.364 -0.1376 -0.0071 -0.3275
18377W        W34271   3.938   9.259  10.547  0.0437  0.0017 -0.0473
18378W        W34272   3.036   2.623   5.509 -0.0925 -0.2703 -0.1527
18379W        W34273  14.170   8.895  16.690 -0.0624  0.0615 -0.0473
18380W        W34274  15.091  10.716   3.951  0.1236 -0.0774  0.3073
18381W        W34275   4.435   9.754  12.389 -0.3832 -0.1049  0.1287
18382W        W34276   1.734  14.650   1.054  0.2903 -0.2468 -0.5531
18383W        W34277   5.330  16.329  13.029 -0.1339 -0.2659 -0.3013
18384W        W34278   1.262  11.763   5.425  0.2012  0.0723 -0.0107
18385W        W34279  15.404   8.647  13.550  0.0525 -0.1127 -0.0816
18386W        W34280   4.147   7.314  13.978 -0.0831  0.0769  0.1079
18387W        W34281  13.298  14.090   2.325 -0.4270 -0.0677  0.0653
18388W        W34282   3.097   7.580   4.965 -0.0207  0.0363  0.0714
18389W        W34283   6.922   5.901   4.180 -0.2031  0.0445  0.0366
18390W        W34284  16.596  11.364   1.350 -0.2762  0.3933  0.3022
18391W        W34285   1.785  16.015   1.345 -0.1240  0.0491 -0.2772
18392W        W34286   2.158  16.558   3.626 -0.0157  0.2219 -0.1727
18393W        W34287   6.397  16.898   3.705 -0.0141  0.2163 -0.0058
18394W        W34288   6.768   8.826   3.798 -0.3265  0.0499 -0.2121
18395W        W34289   5.042   4.779   0.403  0.1710 -0.0121 -0.0673
18396W        W34290   8.378   9.089  12.674  0.0567  0.1394  0.2156
18397W        W34291   6.259   1.810   4.938  0.2074 -0.0435 -0.0186
18398W        W34292  17.592   4.154  11.810  0.1835 -0.0265 -0.2342
18399W        W34293  11.757   9.700  12.086  0.1936  0.3434 -0.0018
18400W        W34294  11.894   0.117   1.170 -0.2857  0.0239  0.0769
18401W        W34295  11.448  15.250  14.042 -0.1785 -0.5372 -0.0391
18402W        W34296  12.577  12.239   4.702 -0.1707 -0.0484 -0.2035
18403W        W34297  13.223  15.429  12.792 -0.1275  0.2121 -0.1913
18404W        W34298  17.436   4.904  12.552 -0.0535  0.0483  0.0897
18405W        W34299   1.473  17.047   1.470  0.1804 -0.2461 -0.0597
18406W        W34300  16.825  15.106   0.864  0.0014  0.0964 -0.0027
18407W        W34301   3.176   9.939  14.334 -0.1705 -0.1007 -0.1118
18408W        W34302  11.798  11.665   2.320  0.0323 -0.1474  0.1102
18409W        W34303   3.270  16.335   2.267  0.0837  0.2233  0.0391
18410W        W34304   2.638  14.203   0.768 -0.1637  0.3338 -0.0269
18411W        W34305  15.300  17.788   1.515 -0.1035 -0.1944  0.0367
18412W        W34306  16.397   5.402  16.042  0.2109  0.2167  0.2284
18413W        W34307   2.640   7.845  15.876  0.3406 -0.0801 -0.0443
18414W        W34308   5.228   0.896  12.065  0.3615  0.2023 -0.0621
18415W        W34309  15.174   0.317   4.118  0.0168  0.0476  0.2140
18416W        W34310  12.078   0.697  12.851  0.0663 -0.2271 -0.0424
18417W        W34311  16.779   5.535  13.542 -0.1287  0.2397 -0.3444
18418W        W34312  15.494   9.189  13.976  0.0236 -0.1872  0.1460
18419W        W34313   0.546   3.046   4.073 -0.3600 -0.0373  0.0002
18420W        W34314  12.104   6.762   4.541  0.2585  0.0624  0.0110
18421W        W34315  16.133   2.706   0.156 -0.1202  0.1662 -0.0460
18422W        W34316   2.643  15.139   5.017 -0.0597  0.0199 -0.0672
18423W        W34317   7.304   6.000  13.133 -0.2584  0.0748 -0.1431
18424W        W34318  17.369   2.837  12.770 -0.1373  0.1730 -0.1893
18425W        W34319   6.033   5.907  15.135 -0.3965 -0.0455 -0.1000
18426W        W34320  10.528   0.915  15.252 -0.0274  0.6125 -0.1009
18427W        W34321  16.299  10.705   3.483 -0.1684 -0.2558  0.1542
18428W        W34322   8.220  11.695  12.757 -0.0192 -0.2885 -0.3243
18429W        W34323  17.710  17.156   1.485  0.0082 -0.0511  0.1467
18430W        W34324  15.485   0.041   3.836  0.2048 -0.0969  0.0273
18431W        W34325   4.383   1.078  12.443  0.0042  0.2872 -0.0575
18432W        W34326   3.379   0.081   1.210 -0.3223 -0.1733 -0.1603
18433W        W34327   9.574   5.489   2.404 -0.0011  0.1835  0.0298
18434W        W34328  13.635  11.352   0.680  0.3179  0.0325 -0.0311
18435W        W34329   0.261   1.597  14.387  0.1657 -0.2559 -0.2705
18436W        W34330  17.213  14.409  13.416  0.1621 -0.0948 -0.2447
18437W        W34331   4.129   1.655   1.923 -0.1341 -0.0826 -0.0088
18438W        W34332  12.556  17.679   3.590  0.0567 -0.0855 -0.2624
18439W        W34333  12.025  12.754   0.028 -0.0244  0.2449 -0.0930
18440W        W34334  13.611   7.364  13.586 -0.2019 -0.3897 -0.0706
18441W        W34335   9.126   4.535   3.076 -0.2711 -0.0848 -0.1642
18442W        W34336   1.526  11.366  16.729 -0.0789  0.2139  0.0656
18443W        W34337   1.308   1.901  15.095 -0.1472  0.1971  0.3638
18444W        W34338  14.371   2.654   4.952 -0.0781  0.3016 -0.0078
18445W        W34339  10.453   2.242  15.928 -0.3239  0.0266  0.0058
18446W        W34340  11.766   1.431  13.896  0.1097  0.0684 -0.1012
18447W        W34341   0.183   5.488  14.578 -0.0478  0.0974  0.0510
18448W        W34342  14.508   7.424  12.672  0.0342 -0.1872 -0.0466
18449W        W34343   1.353  10.310  16.641  0.0526 -0.3455 -0.4023
18450W        W34344   6.575   0.287   2.468  0.2452  0.1041  0.0163
18451W        W34345  12.825  13.320   6.589 -0.2466  0.1193  0.0388
18452W        W34346  11.194   7.972   3.548  0.2038 -0.1962  0.0581
18453W        W34347   9.632  11.987  14.908  0.2031 -0.2413 -0.0525
18454W        W34348  12.540   7.667   1.274 -0.2219  0.0633  0.2766
18455W        W34349   4.454  11.909  11.499  0.1626  0.1216 -0.0383
18456W        W34350   6.291   1.377   1.869  0.0330  0.0540  0.3154
18457W        W34351  17.366   1.350  15.419 -0.0656  0.0874  0.0127
18458W        W34352  14.142   1.680  16.838 -0.0141  0.2118  0.2200
18459W        W34353  14.842   7.556  15.481  0.0366  0.0888  0.0233
18460W        W34354  16.970   9.967  11.562  0.2360  0.1184 -0.3129
18461W        W34355   6.786  17.160  16.133  0.1353  0.1994  0.3021
18462W        W34356   9.056  10.587  10.539 -0.0783  0.1060  0.0590
18463W        W34357  12.100  11.013  15.974 -0.1430 -0.0983 -0.1519
18464W        W34358  17.715   3.705  12.088 -0.0144 -0.2715  0.0252
18465W        W34359  14.809  10.877   6.692  0.1771  0.2901 -0.5305
18466W        W34360   3.543  14.611  15.712 -0.0833 -0.3392 -0.0012
18467W        W34361  11.811  11.742  14.958 -0.1923  0.1625 -0.1050
18468W        W34362   5.801   7.221   1.973  0.3224 -0.0485  0.2743
18469W        W34363   4.119   6.131   3.755 -0.1709  0.0993 -0.1214
18470W        W34364  12.923  10.701  16.887  0.0057  0.0727 -0.1048
18471W        W34365   5.482   6.573  15.329 -0.1064  0.2058  0.0126
18472W        W34366   6.810   4.334  14.109 -0.0682  0.0083  0.1027
18473W        W34367  14.701   6.643  16.680 -0.1058 -0.0348 -0.0907
18474W        W34368   5.658   3.314   0.007 -0.1242 -0.0990  0.0387
18475W        W34369  16.711   0.867  13.167  0.1196 -0.1379  0.1321
18476W        W34370   0.609   9.127   1.009 -0.1118  0.1894 -0.0224
18477W        W34371   5.463   3.539  11.671  0.0488  0.0699 -0.0940
18478W        W34372   4.423  17.460   1.022 -0.1409 -0.0771 -0.0891
18479W        W34373   5.475  15.490   3.286 -0.1619 -0.5393  0.0380
18480W        W34374   8.935   8.460  13.973  0.2048 -0.0361  0.0180
18481W        W34375   8.994   1.398   4.808 -0.1620 -0.0914  0.0757
18482W        W34376   0.631  17.412   2.069  0.1470 -0.0034  0.0686
18483W        W34377   2.880  16.731   1.979  0.2994  0.0409 -0.1153
18484W        W34378  10.398  17.744  12.613  0.0517  0.0566  0.1421
18485W        W34379  17.471  13.188  11.998  0.1847 -0.1201 -0.0920
18486W        W34380   6.251   0.040  12.789 -0.1436 -0.2519  0.1255
18487W        W34381   1.583   3.979  12.223 -0.2529 -0.0907 -0.1520
18488W        W34382  16.249  14.313  14.910  0.1101 -0.0004 -0.0025
18489W        W34383   0.960   5.067   2.629 -0.3631 -0.1403 -0.0479
18490W        W34384  14.561  11.547   5.645 -0.4009 -0.0221 -0.0892
18491W        W34385   3.115   5.800  13.951 -0.2822 -0.1511 -0.1093
18492W        W34386  12.926   6.948  13.624 -0.0594  0.1264 -0.0970
18493W        W34387  11.831  16.606   2.594  0.2023 -0.2257  0.0038
18494W        W34388   8.981   7.801  15.246 -0.0504 -0.1261 -0.0654
18495W        W34389   8.199  16.164  12.235  0.3283 -0.0279 -0.2385
18496W        W34390   0.503   1.969  16.417 -0.1958 -0.0187 -0.0738
18497W        W34391  12.548   0.960  16.035  0.1243 -0.1644  0.0825
18498W        W34392   4.541  11.887  13.706  0.0829  0.2131  0.4351
18499W        W34393  14.896   1.107  16.557  0.1219  0.3282 -0.0750
18500W        W34394   6.840  15.129   4.860  0.1637  0.1013  0.0677
18501W        W34395   2.597   2.508  13.970 -0.0682 -0.3171  0.2482
18502W        W34396   5.957  14.753  15.943  0.2350 -0.0754 -0.0192
18503W        W34397   6.695   3.395   3.516 -0.1148  0.2951  0.1889
18504W        W34398   0.258   4.658   3.904  0.1082  0.2687 -0.1775
18505W        W34399  11.994   3.254  15.259  0.2199  0.1902  0.2062
18506W        W34400   2.818   3.716   2.330  0.1396 -0.1067 -0.2035
18507W        W34401  14.132   9.681   3.298  0.1655  0.1833  0.1415
18508W        W34402   1.115  10.280   5.490  0.2568  0.0266  0.0654
18509W        W34403  12.094   9.923  12.395  0.0767  0.1084  0.0612
18510W        W34404   9.828   4.879   4.060  0.2212 -0.1177  0.3180
18511W        W34405   0.064  14.000   4.715 -0.0784 -0.2655 -0.0977
18512W        W34406   3.960  15.866  13.319 -0.5443 -0.1230  0.4813
18513W        W34407   3.560   6.337   0.281 -0.1371 -0.4593  0.1869
18514W        W34408   4.408  14.958   2.857 -0.0359  0.0298 -0.2281
18515W        W34409  14.267   6.302  14.357  0.0240 -0.0153 -0.3724
18516W        W34410  17.249  16.688  10.505 -0.0786 -0.0099  0.1073
18517W        W34411   5.542   2.715  14.410  0.0662 -0.1013  0.1454
18518W        W34412   5.740   3.424  15.065  0.1259 -0.0263 -0.3820
18519W        W34413   2.076   5.181  15.389  0.0245  0.1568  0.0428
18520W        W34414   0.325  15.796  11.289 -0.0215 -0.2151 -0.2884
18521W        W34415   7.833  10.641   0.755  0.1788 -0.1566  0.1456
18522W        W34416  15.679  16.588   3.763  0.1846  0.1677  0.2175
18523W        W34417  14.922   8.097   2.522  0.3838  0.1394 -0.1839
18524W        W34418   5.450   9.797   4.590  0.3855  0.1848  0.2135
18525W        W34419  17.211   3.956  16.642 -0.2413  0.4054 -0.3202
18526W        W34420   1.193   9.444   1.904  0.0443 -0.1225  0.1828
18527W        W34421   9.412  15.015   3.759 -0.0922 -0.4114 -0.0778
18528W        W34422  16.428  11.356  13.777  0.1050  0.1318 -0.0993
18529W        W34423  12.651  11.241   4.352 -0.1534  0.1292  0.0932
18530W        W34424   8.293   4.376  14.865 -0.0315  0.0196  0.2947
18531W        W34425   2.224   8.871   2.149 -0.0699 -0.2048  0.0931
18532W        W34426   6.410  12.097   0.281  0.1317 -0.1556  0.1352
18533W        W34427   0.470  17.300   5.859  0.0160  0.1339  0.1161
18534W        W34428  16.701   9.689  10.905 -0.1098  0.0413 -0.4937
18535W        W34429   6.783  16.337   4.831 -0.1171  0.0496 -0.1932
18536W        W34430  11.557  12.805  13.502 -0.1167 -0.4538  0.1505
18537W        W34431  17.840   6.132   2.046 -0.2708 -0.0897 -0.0393
18538W        W34432  10.275   2.687   3.468  0.0163  0.2606  0.2805
18539W        W34433  10.456  17.777   3.366 -0.1601 -0.0957  0.0179
18540W        W34434  10.531   7.395  14.564 -0.0791 -0.1299  0.0341
18541W        W34435   9.733   2.685   4.811 -0.1343 -0.0527  0.0757
18542W        W34436   5.124   2.742  16.018  0.2551 -0.0664 -0.0199
18543W        W34437  17.418   1.812  16.703  0.1466 -0.2213  0.0022
18544W        W34438   2.041  17.764  11.681 -0.1099  0.0211 -0.1417
18545W        W34439   8.635   9.991  12.689 -0.2552  0.1098 -0.0718
18546W        W34440   3.165  12.179   5.837  0.0690 -0.1381  0.2365
18547W        W34441  14.102   4.016   5.424 -0.1683  0.1725 -0.1737
18548W        W34442  15.095   1.061   5.026  0.0851  0.3047  0.0130
18549W        W34443   8.720  15.063  16.357 -0.0719  0.2349  0.2803
18550W        W34444   2.301   4.115   1.606 -0.1129 -0.0995 -0.1590
18551W        W34445  16.923   7.849   3.050  0.0530 -0.0492  0.3226
18552W        W34446  13.170   7.837  13.510  0.2625 -0.0777 -0.0392
18553W        W34447   1.460   4.872   0.435 -0.0339 -0.2588  0.0433
18554W        W34448   7.544   3.258   1.782  0.0861 -0.2691  0.0299
18555W        W34449   9.827   4.706  16.763  0.0546  0.1014  0.1970
18556W        W34450  15.716  13.419   2.491 -0.0263  0.3438  0.2063
18557W        W34451  12.177  10.432   5.103  0.2831 -0.1211 -0.2864
18558W        W34452  14.662  16.256  16.551 -0.1675  0.1341  0.2162
18559W        W34453   5.174  10.738   5.864  0.2095 -0.0631 -0.0951
18560W        W34454   7.139   7.609   3.277  0.0173 -0.1053  0.1423
18561W        W34455  15.373  13.418  13.043  0.0319 -0.2693  0.2537
18562W        W34456   8.522  12.048   4.783 -0.2277  0.3039 -0.0615
18563W        W34457   7.521  11.630  16.207 -0.1219  0.3567  0.0521
18564W        W34458   5.940   8.212  16.720  0.0583 -0.1164 -0.0352
18565W        W34459   2.481   1.636  11.253  0.0652 -0.0682  0.0385
18566W        W34460  15.729   2.152   0.651 -0.1813  0.0311 -0.1929
18567W        W34461  15.974   5.827   4.528 -0.1771 -0.1151 -0.1571
18568W        W34462  13.904  15.196  15.365 -0.0194  0.0619  0.0177
18569W        W34463   0.591   0.685  16.666 -0.2458 -0.1374 -0.0027
18570W        W34464  17.448   2.258   1.777  0.2733  0.1141  0.1507
18571W        W34465   6.868   2.969  12.432 -0.0985 -0.0375  0.0737
18572W        W34466   7.218   7.389   5.972 -0.0170 -0.0674  0.0995
18573W        W34467   7.010   0.772  11.519  0.0140  0.1386 -0.1780
18574W        W34468   9.095   1.605   0.557  0.0199  0.0682 -0.0275
18575W        W34469   2.927  13.408   5.801  0.0821 -0.5870  0.0809
18576W        W34470   7.788   7.933   4.851  0.1439  0.3984 -0.0955
18577W        W34471   7.415   3.851   2.419  0.2078 -0.1754 -0.0634
18578W        W34472  12.221   4.211  13.958  0.1485  0.1300 -0.1887
18579W        W34473   9.485  10.866   5.617  0.0218  0.1045 -0.1251
18580W        W34474   9.416  13.108  15.581 -0.3500  0.0424 -0.0512
18581W        W34475  10.487  14.722   1.867 -0.2165 -0.1652  0.0762
18582W        W34476  14.094   7.643   3.042  0.3290 -0.2497 -0.2441
18583W        W34477   2.829  17.547  14.654  0.0480  0.2717  0.0847
18584W        W34478   3.963   7.640  16.656 -0.1081  0.0824  0.1039
18585W        W34479   3.129   8.553   2.222  0.1829 -0.2319  0.2336
18586W        W34480   7.691   1.677   2.006 -0.0672  0.0557 -0.0942
18587W        W34481  14.483   8.293   2.212  0.0699  0.2654  0.0057
18588W        W34482  14.930   1.293   2.663 -0.1677  0.1288  0.0995
18589W        W34483   5.233  14.059   3.592 -0.2417  0.3025 -0.0606
18590W        W34484  17.388   2.034  14.836  0.3843 -0.0962 -0.3376
18591W        W34485   0.983  15.617   1.600 -0.2002  0.0675  0.1441
18592W        W34486  11.539   1.870  12.522  0.0110 -0.1111 -0.2082
18593W        W34487  11.348   9.518  13.540  0.0135 -0.0775 -0.0288
18594W        W34488   7.502   5.587   6.037 -0.2512 -0.0844  0.0486
18595W        W34489  10.321  14.022   6.392 -0.1172 -0.3529 -0.1370
18596W        W34490  11.856   1.329   1.613 -0.1392  0.2425  0.4456
18597W        W34491   7.448   6.070   1.051 -0.0883  0.2975  0.0248
18598W        W34492  13.900   2.011   5.364  0.4601  0.2478 -0.2763
18599W        W34493   3.359   6.085   3.065  0.1576  0.0054  0.1573
18600W        W34494   6.038  17.792  16.342 -0.2906 -0.0417  0.0742
18601W        W34495  17.652   1.598  15.976 -0.0294  0.1226 -0.4627
18602W        W34496  17.511  10.066   3.323 -0.2723  0.1001 -0.0411
18603W        W34497  11.503  15.300   3.650 -0.0130  0.1103  0.0592
18604W        W34498  12.634   1.552   2.879 -0.0100  0.2730  0.0067
18605W        W34499   6.000   5.412   3.308  0.1318  0.2564 -0.1492
18606W        W34500   4.236  13.482   5.190 -0.1897 -0.1739 -0.0394
18607W        W34501   9.816   6.258   2.624 -0.1955 -0.0270 -0.0385
18608W        W34502  10.411   2.699  10.590  0.0422 -0.0310  0.1719
18609W        W34503   8.517   8.826   1.787  0.4170 -0.1559  0.2903
18610W        W34504  12.243  16.159   0.300 -0.0900  0.0658  0.1240
18611W        W34505  16.053   7.532   1.027  0.2666 -0.1333 -0.0930
18612W        W34506  15.200   9.206  13.434 -0.1960 -0.1888  0.2326
18613W        W34507  17.209   1.606   2.546  0.1821 -0.3213 -0.1819
18614W        W34508  17.013   4.141   3.464 -0.0448 -0.0172  0.0526
18615W        W34509   3.098  17.250   0.646  0.2593  0.1193 -0.0218
18616W        W34510  10.795   4.730  16.144  0.0093  0.0162  0.0388
18617W        W34511   3.117  14.449  11.685  0.0117  0.1297 -0.1167
18618W        W34512   5.082   1.782   2.197  0.0318 -0.0360  0.0490
18619W        W34513   8.843  10.673   1.984 -0.0098 -0.2246 -0.2921
18620W        W34514  12.532   6.843   2.540  0.1406  0.0834 -0.1926
18621W        W34515  14.115   0.271  16.522 -0.0762  0.0748  0.3180
18622W        W34516   3.558   6.912   2.052 -0.0747 -0.1699  0.0009
18623W        W34517   1.448  15.526  10.763 -0.1179  0.0648 -0.1127
18624W        W34518   8.909  12.824   1.441 -0.1406  0.1145  0.0532
18625W        W34519   9.859   7.495  13.445  0.1871 -0.0627  0.1232
18626W        W34520   6.389  13.056   6.073 -0.0006 -0.2106  0.0553
18627W        W34521  12.106  14.704   4.539 -0.0128  0.3215 -0.0178
18628W        W34522   5.813  12.670  14.628  0.1026  0.1416 -0.0815
18629W        W34523   3.124   1.599  15.021  0.0440 -0.0733 -0.1755
18630W        W34524   5.695   9.115  14.172  0.0567 -0.0368 -0.1418
18631W        W34525  17.335  17.413   1.909 -0.3640 -0.2393 -0.3811
18632W        W34526  15.398  10.240   5.437 -0.2284 -0.2545  0.1540
18633W        W34527  16.651  14.955  13.991  0.0415 -0.0758  0.0879
18634W        W34528  12.166  10.105  16.275 -0.0478 -0.3081  0.1690
18635W        W34529  10.660  14.324  13.989 -0.3375 -0.0788 -0.1204
18636W        W34530   9.542  13.247  11.995  0.3136  0.1475 -0.2183
18637W        W34531  16.505  10.476   4.773  0.1115  0.1828  0.1044
18638W        W34532   8.003  14.786  13.633 -0.2304  0.1909 -0.0029
18639W        W34533  13.074  15.220   2.197 -0.1697  0.1827  0.0174
18640W        W34534   4.095   8.439   5.438  0.0937 -0.1681  0.3749
18641W        W34535  15.326   7.766   0.534 -0.0314  0.3617 -0.2117
18642W        W34536   4.832  14.283  16.636  0.4601 -0.0121  0.3063
18643W        W34537   2.795   8.650  13.417 -0.2075 -0.1221 -0.1943
18644W        W34538   1.679  10.873  12.326  0.2208 -0.0564  0.3097
18645W        W34539  11.435   2.360  11.656 -0.2862 -0.1528  0.1127
18646W        W34540  16.754  13.678   4.291  0.1154  0.1147  0.0993
18647W        W34541  11.731  12.449   1.614 -0.2645 -0.3061  0.2202
18648W        W34542  10.349   3.512   4.142  0.0021 -0.1081 -0.1549
18649W        W34543  15.908  10.198  13.742 -0.1453 -0.2728 -0.1171
18650W        W34544  15.133   0.631  16.618 -0.1219 -0.4201  0.0458
18651W        W34545   6.713  17.470   5.468 -0.1937  0.1171  0.1378
18652W        W34546   2.950  10.719  15.801 -0.0558  0.4370  0.0775
18653W        W34547  13.463   3.795   0.813 -0.1183 -0.0604 -0.0036
18654W        W34548  12.587   8.603   4.460  0.1544  0.1391 -0.6803
18655W        W34549  12.652  13.716   5.822 -0.0481 -0.2021 -0.1703
18656W        W34550  13.335  10.191   3.764  0.0606 -0.1089 -0.0455
18657W        W34551   9.201   4.836  12.200  0.0445  0.0154 -0.1877
18658W        W34552   2.911  13.550  14.861  0.2551 -0.0390 -0.2166
18659W        W34553  15.025   7.167   2.541 -0.0748 -0.1404 -0.2005
18660W        W34554  10.973   7.235   4.634  0.0998 -0.0875  0.0241
18661W        W34555  13.076  16.271   4.386  0.1737  0.1013 -0.0754
18662W        W34556   2.336  17.335  14.736  0.2006  0.1322 -0.1911
18663W        W34557  16.874  14.153   4.434  0.2220  0.1117  0.2242
18664W        W34558   0.807   6.876   4.218  0.0223 -0.0858 -0.0929
18665W        W34559  11.165  13.712  15.151  0.0996  0.0205 -0.0289
18666W        W34560   1.793   9.331   4.759  0.0275  0.0931 -0.0936
18667W        W34561   9.082   7.915   5.763 -0.0219  0.1768 -0.1116
18668W        W34562   8.125   3.158   0.382 -0.1461 -0.2308  0.0275
18669W        W34563   8.236   0.468  14.246 -0.0431 -0.0963 -0.1926
18670W        W34564   4.435   4.530   3.336 -0.0628  0.3332  0.0757
18671W        W34565   4.932  11.685  15.931 -0.0522 -0.2986 -0.2693
18672W        W34566   9.476   9.087   6.667 -0.0176  0.2832 -0.1458
18673W        W34567  16.072  16.748  13.880 -0.0713 -0.1259 -0.0924
18674W        W34568   6.612   3.717   5.336  0.0471  0.0720  0.0025
18675W        W34569  17.047   7.050  11.872 -0.3438 -0.0326 -0.0262
18676W        W34570  13.493   7.207   4.743  0.0275  0.0741  0.2577
18677W        W34571   3.781   2.296   4.131 -0.0336 -0.1259 -0.1949
18678W        W34572   8.629   8.088  15.369 -0.0919  0.1446 -0.1091
18679W        W34573  17.190  17.248  13.342  0.0785 -0.0998 -0.2235
18680W        W34574  16.266  13.547   1.854 -0.1005 -0.0844 -0.0470
18681W        W34575  13.323   5.265   4.671 -0.2157 -0.1401  0.1894
18682W        W34576   6.504  12.173   1.824 -0.3800  0.1058  0.0401
18683W        W34577   1.522   2.749   0.602  0.1306 -0.1270  0.0881
18684W        W34578   3.117  13.745  16.010 -0.1586 -0.1641  0.0604
18685W        W34579   9.629   1.883   3.101 -0.0199  0.0432 -0.0082
18686W        W34580  15.151  17.808  12.913  0.0634 -0.0215  0.0734
18687W        W34581   0.281   5.283   1.439 -0.1234 -0.0878  0.0901
18688W        W34582  13.449  14.746  16.015 -0.0208  0.3989 -0.0012
18689W        W34583   3.653  11.965  16.895  0.1752  0.0556  0.3092
18690W        W34584   5.118   1.508   1.467 -0.1454 -0.1895  0.0167
18691W        W34585   1.194   5.779   4.844  0.0986 -0.1396 -0.3870
18692W        W34586   3.907   0.061  14.704 -0.2333  0.5411  0.1969
18693W        W34587   6.363   1.995  11.085  0.1775  0.0644 -0.3043
18694W        W34588  14.822   9.921  12.805  0.2463 -0.0082 -0.0826
18695W        W34589   8.919  11.544   5.119 -0.0492  0.0054 -0.2405
18696W        W34590   0.211  17.268   6.274 -0.0440  0.0372  0.1320
18697W        W34591  10.753  17.390   3.238  0.2105  0.0639 -0.2569
18698W        W34592  15.232  17.183  13.599  0.2112  0.0128  0.0889
18699W        W34593   3.065  13.877  12.523 -0.0330 -0.0703 -0.2241
18700W        W34594   0.351   0.689  16.191  0.1790  0.2226  0.0700
18701W        W34595   2.156  11.683   4.529 -0.1813 -0.2400 -0.2118
18702W        W34596   7.233   7.958   0.340  0.1646  0.2330 -0.1236
18703W        W34597  13.055   3.200   6.000  0.1138  0.3046 -0.0011
18704W        W34598  12.382  16.023   1.720  0.1533 -0.1396  0.0279
18705W        W34599   6.817   5.695  11.948 -0.2381 -0.1184  0.1409
18706W        W34600   5.829   3.958  12.704 -0.0754  0.1486 -0.3448
18707W        W34601  16.865   7.611   1.468 -0.0898  0.2180  0.1143
18708W        W34602   0.509  16.410   1.130  0.0095 -0.0682  0.0800
18709W        W34603   3.434   3.400  12.339 -0.0075 -0.0226  0.3143
18710W        W34604  14.081   9.710  12.317 -0.1128 -0.1211  0.1066
18711W        W34605  15.404  16.348   3.414 -0.3882  0.0411  0.1383
18712W        W34606   4.742   3.904  12.060  0.1830  0.1977 -0.3705
18713W        W34607  15.773   5.354  15.086 -0.0562  0.1192  0.0810
18714W        W34608   9.094  11.313   3.941 -0.0136 -0.0052 -0.0871
18715W        W34609  12.334  12.620   5.928 -0.0101 -0.0999  0.0159
18716W        W34610   4.556  17.765  11.100 -0.1598  0.0560 -0.1970
18717W        W34611   1.885  15.917   3.254  0.1023 -0.2622  0.1093
18718W        W34612  11.220   1.494  13.670  0.0275 -0.2190  0.1699
18719W        W34613   8.609   5.581   0.815  0.0428  0.1262 -0.1503
18720W        W34614  12.496  16.979  12.996  0.0959  0.0021 -0.0265
18721W        W34615   3.393  12.884  14.396 -0.2226  0.0326  0.0684
18722W        W34616   8.555   4.729   3.896 -0.0069  0.1682  0.1209
18723W        W34617   7.760   6.314   0.833 -0.0532 -0.0764  0.0273
18724W        W34618   9.951  13.812  13.093  0.0186 -0.0518  0.4062
18725W        W34619   7.986   9.299   0.664  0.0702  0.1879 -0.2456
18726W        W34620  17.471  17.435   5.075  0.1067  0.0544 -0.0760
18727W        W34621   7.603   6.399  15.895 -0.1447  0.1358 -0.5359
18728W        W34622  14.159   2.466   4.007  0.4714 -0.2148 -0.0518
18729W        W34623  11.032   7.557   3.206 -0.0080 -0.0420  0.0313
18730W        W34624  10.701  12.730   5.299 -0.4152  0.1338 -0.0509
18731W        W34625   0.132  17.807  14.400 -0.3851 -0.1211 -0.0777
18732W        W34626   1.391   8.620  13.228  0.1591  0.2752  0.1702
18733W        W34627  14.095   5.470   4.499 -0.0290  0.0916 -0.0717
18734W        W34628   2.500   8.746   4.443  0.0304 -0.1950  0.2931
18735W        W34629  16.427  14.949   5.563  0.2624  0.0660 -0.0701
18736W        W34630   9.619   4.541   5.660  0.1291 -0.2723 -0.3173
18737W        W34631   0.242   8.398   6.324  0.1412 -0.0148  0.1004
18738W        W34632   7.626  13.482  14.158  0.2082 -0.5662 -0.0920
18739W        W34633  17.667  10.821  15.813 -0.3448  0.2090  0.1143
18740W        W34634   0.032   8.350  11.596 -0.2466  0.0161  0.0455
18741W        W34635   3.256   2.372  15.408  0.0143 -0.1733 -0.0250
18742W        W34636   2.657   7.712   3.517  0.0099 -0.3129  0.0364
18743W        W34637  16.162  13.711   0.411 -0.0044 -0.0133  0.0812
18744W        W34638  11.551   9.589  13.003 -0.1975  0.0760  0.1911
18745W        W34639  15.728  17.299   4.812 -0.0183  0.2117 -0.0651
18746W        W34640   5.495   1.137   1.180 -0.4849 -0.3250 -0.4175
18747W        W34641   3.534   5.173  12.317  0.3063  0.0979 -0.2726
18748W        W34642   6.578   9.728   4.306 -0.1662  0.1837  0.0307
18749W        W34643   8.627   6.027   4.454  0.0185 -0.0125 -0.1473
18750W        W34644  16.318  12.817  13.429  0.0759  0.3270  0.1473
18751W        W34645   9.740  17.667   5.074 -0.0698 -0.0028 -0.1432
18752W        W34646   7.795   8.968   4.639  0.0265 -0.0074 -0.1930
18753W        W34647  12.301  10.586  15.388  0.1144  0.2906  0.2068
18754W        W34648   6.790   4.727  15.008 -0.1061 -0.1233  0.0742
18755W        W34649  14.713   6.186   0.055 -0.2113  0.3202  0.1085
18756W        W34650   4.830   7.665   2.830 -0.1662  0.1027 -0.1552
18757W        W34651   6.252   4.768  13.442 -0.0238 -0.1949 -0.0327
18758W        W34652  16.490  11.273  15.362  0.2859  0.1285 -0.1320
18759W        W34653  10.624   2.386   0.168  0.0401 -0.3417 -0.1232
18760W        W34654   8.855   8.271   3.003  0.0214 -0.1277 -0.0991
18761W        W34655   0.992  13.700   1.445 -0.1137  0.1625 -0.0329
18762W        W34656  16.000   4.158  13.717 -0.2333  0.2052 -0.0994
18763W        W34657   5.489  10.864   5.517 -0.0311  0.2107  0.2773
18764W        W34658   7.743  11.705  13.769 -0.3639  0.0290 -0.0264
18765W        W34659   2.707   5.345  16.781 -0.1734 -0.1779  0.0125
18766W        W34660   7.874   1.302   4.017  0.2363 -0.0637 -0.1992
18767W        W34661  12.694  14.073  16.777 -0.0347 -0.0579  0.0530
18768W        W34662   1.633   3.127   1.569  0.2525  0.3215  0.1299
18769W        W34663   4.085   0.045   2.472 -0.1170  0.0243  0.1238
18770W        W34664   8.232   8.045   2.046 -0.1875 -0.0642  0.1439
18771W        W34665  11.090   9.011  14.144  0.0260  0.1113  0.1527
18772W        W34666   9.624   7.602   4.582  0.0673 -0.3388  0.0429
18773W        W34667  15.492  11.897   0.368  0.1774 -0.2581  0.0752
18774W        W34668  16.528  15.649   4.316 -0.4630  0.2466  0.2098
18775W        W34669  17.656   9.159  15.304  0.0496 -0.2429  0.0371
18776W        W34670  10.436  11.680   0.792 -0.0599 -0.1453 -0.2185
18777W        W34671   3.540   5.502  13.587  0.2432 -0.0416 -0.1677
18778W        W34672   2.787   5.005   4.057  0.1386 -0.1674  0.0156
18779W        W34673  11.405   2.443   1.673  0.2839  0.2849  0.1096
18780W        W34674  15.335   0.344   5.195  0.1950 -0.1551 -0.2913
18781W        W34675   4.946   0.385   0.852  0.1790  0.1761  0.1286
18782W        W34676  16.087  12.809   0.680  0.1486  0.2110 -0.0255
18783W        W34677  15.232   6.812   1.831 -0.3556 -0.0142 -0.4320
18784W        W34678  12.280   6.516   1.750  0.4390  0.1525  0.0912
18785W        W34679  11.095   9.691   3.794 -0.2755 -0.1040  0.0136
18786W        W34680   9.271   6.680   4.767  0.1979  0.0781  0.0014
18787W        W34681   9.640   5.001   5.567 -0.1184 -0.2939 -0.1518
18788W        W34682  16.065   2.605   3.295 -0.0578 -0.0452  0.0342
18789W        W34683   5.519  17.559   2.790 -0.3560 -0.0012  0.1123
18790W        W34684   1.052   0.856   4.896 -0.0255 -0.0247  0.1412
18791W        W34685  12.382   0.822  11.361  0.1367  0.0286  0.1580
18792W        W34686  10.955   1.096   0.404  0.0385  0.0288 -0.2456
18793W        W34687  10.098   4.253  14.830  0.0796 -0.1410  0.0386
18794W        W34688   2.412  17.809  14.919 -0.0295  0.0735  0.1093
18795W        W34689   1.687   5.759   3.539  0.1015  0.0557 -0.0158
18796W        W34690   1.580   7.065   4.915 -0.0839 -0.2270 -0.0623
18797W        W34691  11.513  15.771   2.933 -0.3342  0.3661 -0.0536
18798W        W34692  15.951   4.861   0.764  0.0852  0.0127 -0.2238
18799W        W34693   2.219  10.833   0.449 -0.3261 -0.2139  0.0351
18800W        W34694   2.585  11.416  13.838  0.0442 -0.0428  0.4063
18801W        W34695  12.550  12.534  12.387 -0.2922  0.1024 -0.3883
18802W        W34696   6.989  10.967   2.690 -0.1584 -0.1012  0.0351
18803W        W34697   6.118   7.519   1.718 -0.1935 -0.0699  0.2063
18804W        W34698   8.653   4.229  16.304 -0.3276  0.2639 -0.4870
18805W        W34699  14.199   3.695  15.313  0.0455 -0.2088  0.2171
18806W        W34700   1.754  10.170  11.874 -0.0867  0.0465 -0.0377
18807W        W34701   2.314  11.185  11.973  0.0903  0.1013 -0.0588
18808W        W34702  11.401   6.864  14.079  0.2053  0.0346 -0.1621
18809W        W34703  15.844   4.527   2.126  0.2054  0.1903 -0.3204
18810W        W34704  10.213  17.518   4.395  0.1771 -0.3500 -0.1166
18811W        W34705  16.078  16.798  13.046  0.0534  0.2531  0.1934
18812W        W34706  17.286  11.712   2.811  0.0755  0.2500  0.0902
18813W        W34707  12.490  12.846  16.740 -0.2796  0.2761 -0.0980
18814W        W34708  13.950   3.530   0.226  0.2459 -0.3965  0.2492
18815W        W34709   2.324   6.988  13.722 -0.1096  0.2102 -0.0811
18816W        W34710   9.843  16.297   4.020 -0.1993  0.0540  0.4758
18817W        W34711   2.999  11.600   3.640 -0.3520  0.1622  0.1879
18818W        W34712   7.460   0.659   5.656 -0.2389 -0.2511  0.2454
18819W        W34713   7.011   5.165   1.091 -0.0327  0.0398 -0.1397
18820W        W34714  12.710  13.729  13.577 -0.0272  0.1167 -0.1582
18821W        W34715   9.359   6.884   6.104  0.0452  0.3495 -0.1031
18822W        W34716   5.817   4.335   0.377 -0.0247 -0.2589 -0.2725
18823W        W34717   2.382  17.461   2.201 -0.0647 -0.0379 -0.1094
18824W        W34718   5.960  15.213   3.372  0.0350  0.1750 -0.0320
18825W        W34719   8.525  17.514   4.338  0.1198 -0.3518  0.0508
18826W        W34720   2.572   2.827   0.266  0.0358 -0.0945 -0.0187
18827W        W34721   9.296   3.953  12.381 -0.2143  0.2502 -0.0401
18828W        W34722   8.108  11.495   6.997 -0.2373 -0.2440  0.0287
18829W        W34723   2.853   7.223  15.668 -0.2689 -0.0479 -0.0265
18830W        W34724   7.113  16.213  13.574 -0.1208 -0.1144  0.0637
18831W        W34725   4.183  11.739  10.644 -0.1420  0.2232  0.2654
18832W        W34726   8.031  13.215   5.496  0.0979  0.1510 -0.0451
18833W        W34727  13.568   4.243  16.824 -0.3117  0.1117 -0.0387
18834W        W34728   8.492  16.514   0.533  0.2066  0.3170  0.0586
18835W        W34729   3.910   0.503   5.569  0.2063  0.2328  0.0459
18836W        W34730  14.717   5.989  12.658 -0.1432  0.1542 -0.0537
18837W        W34731   9.430   8.134   3.936  0.0033  0.0580  0.1344
18838W        W34732   3.521  11.924  15.211  0.3061  0.2788 -0.2453
18839W        W34733  10.178  15.888  12.472  0.0154  0.0657 -0.0284
18840W        W34734  16.781   0.016   4.543 -0.1141  0.0968  0.3305
18841W        W34735   3.981   7.356  11.883 -0.0102  0.0730  0.2029
18842W        W34736  10.780   3.874   0.195  0.0473  0.3475 -0.1301
18843W        W34737  15.414   1.478   4.880  0.0482 -0.1154  0.1306
18844W        W34738   0.515   3.459  16.446  0.1358 -0.2117 -0.0927
18845W        W34739   8.045  10.792   5.951  0.0923  0.0547  0.1442
18846W        W34740  16.186  14.461   2.762 -0.0264 -0.0051 -0.1363
18847W        W34741  15.532  17.485  15.166 -0.1412  0.3595 -0.2045
18848W        W34742   7.588   4.994   5.257 -0.0557  0.0209 -0.0491
18849W        W34743   3.626  13.913   5.613  0.0672  0.2206  0.3272
18850W        W34744   2.854   4.582   1.487 -0.0831 -0.0013 -0.1180
18851W        W34745   4.838  14.743  16.383  0.3158  0.2462 -0.1059
18852W        W34746   3.258   9.929  15.362 -0.0123 -0.0339  0.0132
18853W        W34747   8.867   0.525   5.975 -0.0400  0.0089  0.2599
18854W        W34748  15.117   3.018  10.909 -0.2510  0.1154 -0.0828
18855W        W34749   2.822  12.591   0.888  0.1692 -0.0799  0.0038
18856W        W34750   5.925  15.449  13.843 -0.2423 -0.2925  0.0069
18857W        W34751  11.225   2.825   2.726  0.1639  0.1157  0.2184
18858W        W34752   4.908   4.968   0.841  0.5102  0.0487 -0.0782
18859W        W34753   3.748  17.573   2.724  0.0943 -0.3662 -0.0707
18860W        W34754   4.705   8.251  15.735 -0.1725 -0.2450  0.1484
18861W        W34755   9.998  17.035   4.411  0.0425 -0.0163  0.0290
18862W        W34756   7.798  13.249   4.528  0.0899 -0.0094 -0.2411
18863W        W34757   8.354   3.623   4.798  0.1468  0.1048  0.0168
18864W        W34758   5.577   9.213  16.754 -0.0248  0.3666  0.0947
18865W        W34759   6.336   4.610   4.876 -0.0196  0.0296 -0.1753
18866W        W34760   6.702   8.597  16.795  0.0460  0.2538  0.0566
18867W        W34761  13.279  10.706   1.199 -0.0824  0.0343 -0.0628
18868W        W34762   4.613  11.407   0.364  0.2075 -0.0212  0.2814
18869W        W34763   5.707   3.458   4.794 -0.1513  0.0250 -0.1255
18870W        W34764   2.223   3.951  14.461  0.0958  0.1087 -0.0831
18871W        W34765   4.473  17.852   2.169 -0.0393 -0.1517 -0.1676
18872W        W34766   5.518  11.635   0.333  0.1578 -0.0104  0.0861
18873W        W34767  10.051   3.674  13.560 -0.1003 -0.0269  0.0432
18874W        W34768  15.352   5.071   1.849 -0.0353  0.0931  0.0391
18875W        W34769  17.046   4.132   0.923  0.0290 -0.1443 -0.0561
18876W        W34770   8.825  12.161   0.800 -0.2280  0.0186  0.2069
18877W        W34771  15.807   5.431   2.175 -0.1686 -0.1112 -0.0169
18878W        W34772  14.702   2.296   3.904  0.0228 -0.0665  0.1143
18879W        W34773  11.545   4.907  11.627  0.1580 -0.1050  0.0977
18880W        W34774   5.058  14.677   0.017  0.0317  0.3784 -0.0796
18881W        W34775   1.433   3.238  12.592  0.2623 -0.0918 -0.0930
18882W        W34776   7.276  15.142   2.189 -0.1649  0.2041  0.0367
18883W        W34777   9.199  16.825  11.912  0.3172 -0.3350  0.1194
18884W        W34778   9.589   9.120   4.150 -0.1162 -0.0173  0.0669
18885W        W34779   5.928  11.566   1.615 -0.2395  0.2692  0.2316
18886W        W34780  14.178   6.737  13.195  0.0445 -0.1755  0.0827
18887W        W34781   5.299   7.047  14.968  0.0463 -0.0087  0.0563
18888W        W34782  16.161  11.128   0.722 -0.5326  0.1277 -0.2533
18889W        W34783   5.783  10.575   1.796 -0.3221  0.2781  0.1082
18890W        W34784   5.324  12.834   5.010 -0.0430 -0.0339 -0.2452
18891W        W34785   2.399  11.396   4.248  0.2778  0.1639 -0.1665
18892W        W34786  13.007  11.707   1.788  0.0775 -0.2931  0.3503
18893W        W34787   3.316   6.590  12.964  0.2142  0.0641 -0.5023
18894W        W34788   8.122   4.434   2.113  0.1611 -0.0476 -0.1545
18895W        W34789   2.722  12.183   1.656  0.0437 -0.2480 -0.2035
18896W        W34790  13.152   3.344  15.949 -0.0758  0.2173 -0.0650
18897W        W34791   4.738  14.747   3.370  0.1410 -0.2019  0.3153
18898W        W34792  12.721  13.151  13.272  0.0474 -0.0038  0.1611
18899W        W34793   7.592  10.523   0.305 -0.3899  0.0518 -0.1958
18900W        W34794  12.076  17.704   6.203 -0.0862 -0.0111  0.0825
18901W        W34795  16.461   8.099   3.026 -0.1583 -0.2797 -0.1828
18902W        W34796  14.561  17.146   3.580 -0.4546  0.0522  0.3137
18903W        W34797  10.911   2.473   4.311 -0.0153  0.2894 -0.1265
18904W        W34798   6.496  14.471   0.856 -0.0998  0.2093  0.1242
18905W        W34799  17.398   7.298   2.694  0.1373  0.1356 -0.0159
18906W        W34800   7.901  10.646  12.602  0.0699 -0.1899  0.1241
18907W        W34801   6.017   5.270   2.239 -0.0548 -0.0146 -0.0337
18908W        W34802   7.843  10.996  14.334  0.0865 -0.3552  0.2900
18909W        W34803   5.058  13.228   0.742  0.0026 -0.4450  0.0975
18910W        W34804   0.066   7.690   0.025  0.1528  0.1143  0.3355
18911W        W34805  16.136   1.383   4.406 -0.0457 -0.3842 -0.1000
18912W        W34806  13.552   9.132   1.378 -0.1866  0.0500 -0.1889
18913W        W34807   9.427   5.117  12.996 -0.0685 -0.2780 -0.2050
18914W        W34808   4.215   6.441  16.861  0.0476  0.0121  0.0851
18915W        W34809   0.467   3.826   3.584 -0.1479  0.3563 -0.1887
18916W        W34810  12.358  14.213  15.950  0.2343  0.0387  0.2209
18917W        W34811   6.179   5.290   5.299 -0.0484 -0.0661  0.0598
18918W        W34812   7.701   4.574   0.101 -0.0472  0.1019 -0.0371
18919W        W34813   5.175  12.283  13.564 -0.1068  0.0580 -0.1109
18920W        W34814   8.931   7.984  13.702  0.2022 -0.0985  0.0183
18921W        W34815  14.480   1.456  14.129 -0.0855 -0.1880 -0.2673
18922W        W34816   2.719   7.194   3.794 -0.0683  0.2067  0.2528
18923W        W34817   2.066   8.586  11.380  0.1781 -0.1775  0.1030
18924W        W34818   4.453   1.612   4.360  0.1194 -0.1574  0.0104
18925W        W34819   4.189   4.364  12.682  0.1846 -0.1532 -0.0431
18926W        W34820   2.513  16.260  15.508  0.2940 -0.2425  0.3664
18927W        W34821  17.083   9.785  12.248  0.0056  0.0451  0.2232
18928W        W34822   3.018  13.256   0.878 -0.0481 -0.0573 -0.2897
18929W        W34823   2.656  12.227   5.928 -0.2137 -0.2277  0.0833
18930W        W34824   9.070   6.492  14.633  0.1280  0.1230 -0.1568
18931W        W34825   8.768  14.334   4.781 -0.1494  0.0309  0.0761
18932W        W34826   2.339   6.706   1.541  0.0253 -0.0387 -0.1715
18933W        W34827   7.152  17.632   5.446  0.2481  0.2046 -0.5264
18934W        W34828  12.369   8.754  15.239  0.1044  0.1405 -0.0458
18935W        W34829  15.299   4.200  15.314  0.2336  0.0440 -0.0263
18936W        W34830   2.799  15.973  11.760 -0.3016 -0.0491 -0.4741
18937W        W34831  11.258  15.701   2.009 -0.0963 -0.0413  0.1569
18938W        W34832   8.032   9.433   5.789 -0.0850 -0.2453  0.1181
18939W        W34833  17.577   6.177   5.894 -0.2467  0.0248 -0.0825
18940W        W34834  15.166  15.504  12.197  0.0956  0.0304  0.3874
18941W        W34835  10.182   2.700   5.158 -0.2488 -0.1390  0.0107
18942W        W34836   4.758   0.527  16.469  0.2791  0.2281  0.2179
18943W        W34837   1.744   9.057  14.387 -0.0880 -0.1488 -0.1345
18944W        W34838   7.660  16.172  12.324 -0.1739  0.0011 -0.2552
18945W        W34839  14.837  12.531   4.084  0.1365  0.0143 -0.1556
18946W        W34840  17.496   0.510   5.694 -0.0102 -0.1268 -0.1448
18947W        W34841  13.428  10.612   0.053  0.0194  0.0685  0.1962
18948W        W34842   3.178  12.629   0.086  0.0347 -0.0320 -0.0694
18949W        W34843   0.852  11.197  13.123 -0.0765  0.2517 -0.1634
18950W        W34844  10.651  13.235  13.545 -0.2541  0.2142 -0.2777
18951W        W34845  15.963   0.887   4.295  0.0492  0.1984 -0.2380
18952W        W34846   6.257  15.999  13.261  0.2193 -0.0981  0.2256
18953W        W34847  14.369   5.138   5.873  0.0471 -0.0840 -0.0240
18954W        W34848  14.393   4.946  16.128 -0.0828  0.0954 -0.0513
18955W        W34849   1.491   8.431  15.349  0.3355 -0.1732  0.1062
18956W        W34850   0.619   8.225  15.597 -0.3673  0.3976 -0.1568
18957W        W34851   6.024  16.677   1.009 -0.1493  0.0661 -0.2588
18958W        W34852  15.501   4.909   3.859 -0.3593 -0.0620  0.0019
18959W        W34853   0.772   0.003  16.219 -0.2694 -0.0071 -0.1696
18960W        W34854   4.662  14.636   2.461 -0.0035 -0.2765  0.0634
18961W        W34855  12.328   6.916  13.260 -0.1222 -0.1116  0.0166
18962W        W34856  14.811   5.808  11.640 -0.0004 -0.0976  0.2011
18963W        W34857  13.342   5.155  11.787  0.1941  0.0749  0.2483
18964W        W34858   1.976   2.983   3.640  0.1846 -0.2186  0.2620
18965W        W34859   0.316   7.918   4.801 -0.1861 -0.0873 -0.0915
18966W        W34860   9.275  17.446   5.003 -0.0342 -0.0800  0.1415
18967W        W34861   3.270   5.480   5.566 -0.2718  0.0124 -0.0485
18968W        W34862  12.954  17.361   1.044  0.1272  0.3367  0.2838
18969W        W34863   3.888   9.350   5.444 -0.1581 -0.0861 -0.2538
18970W        W34864  10.329  14.607  12.907 -0.2920 -0.0723 -0.0369
18971W        W34865  10.751   6.842   0.196 -0.2393  0.1406  0.0704
18972W        W34866   6.948   2.794   5.282 -0.0415  0.1904  0.0162
18973W        W34867   3.546   2.748   1.986 -0.2360  0.1236  0.1453
18974W        W34868   3.987   9.490   3.972 -0.3784  0.1251 -0.1985
18975W        W34869   4.988   2.409  14.034  0.3025  0.0690  0.1524
18976W        W34870   7.107  17.322   1.732 -0.0990  0.0630 -0.1700
18977W        W34871   7.846   0.505  13.567 -0.1340 -0.1487 -0.3211
18978W        W34872  14.345   1.287   5.348 -0.3910  0.0404  0.0637
18979W        W34873  11.529   0.909   1.545  0.1236 -0.0474  0.0659
18980W        W34874  11.711   6.142   3.982  0.1583 -0.1313 -0.0609
18981W        W34875  15.180   6.450   1.168 -0.0995  0.0990  0.1568
18982W        W34876  15.350  15.822  16.433 -0.2368 -0.0890  0.2178
18983W        W34877   6.932   2.695   1.348 -0.0369  0.1019  0.0936
18984W        W34878  12.774  14.792  13.891 -0.0045 -0.3070 -0.0382
18985W        W34879   9.834   5.696   1.430 -0.1608  0.0931 -0.1796
18986W        W34880  14.904   5.062  12.496  0.2345  0.2788  0.1020
18987W        W34881   6.438  14.513  10.852 -0.0482  0.0615  0.1449
18988W        W34882   2.027  14.109  14.889  0.0528 -0.2546 -0.0096
18989W        W34883   7.947   3.028  14.534 -0.2029  0.0918  0.0927
18990W        W34884  11.819   0.263  15.012 -0.1176 -0.2438 -0.1121
18991W        W34885  10.234   5.476  15.774 -0.2759 -0.5037  0.2428
18992W        W34886  16.479   2.301   1.320  0.0206  0.0477  0.0705
18993W        W34887   8.628   4.794   5.698  0.1850 -0.0927  0.0057
18994W        W34888   2.549  13.152  14.554  0.1975 -0.2027  0.2170
18995W        W34889   1.575  12.574  16.785 -0.1600 -0.2662 -0.2813
18996W        W34890   8.216  15.510   3.397 -0.0532  0.0586  0.0701
18997W        W34891   7.360  13.653  14.982 -0.4072  0.0072  0.0415
18998W        W34892   3.052  17.604   3.059  0.0344 -0.2246 -0.2344
18999W        W34893   8.235  13.807  16.046 -0.0099  0.1470  0.1521
19000W        W34894   1.353   0.126   1.673  0.2035  0.1638 -0.0602
19001W        W34895   7.040  10.301   6.129  0.0957 -0.1885 -0.2340
19002W        W34896   9.481   5.148  16.089 -0.0199 -0.2546 -0.0292
19003W        W34897  14.792   7.589   2.412  0.0859 -0.1218  0.3105
19004W        W34898   6.131   8.736   2.114  0.2459  0.0336  0.3137
19005W        W34899   9.936   9.707  13.760  0.1712  0.0378  0.3651
19006W        W34900  12.865   7.670  15.757 -0.1929 -0.0982  0.1052
19007W        W34901  12.979   9.250   0.046  0.0596 -0.0421  0.1232
19008W        W34902   3.256  13.097   5.573  0.1766  0.0041  0.0875
19009W        W34903  16.352  10.268   2.462  0.0318 -0.2481  0.1895
19010W        W34904  14.633  12.494   0.465 -0.0163  0.0144 -0.1364
19011W        W34905   4.058  12.005  14.355  0.0491  0.1306  0.0090
19012W        W34906  10.010  11.249   6.323 -0.0632  0.0315 -0.0098
19013W        W34907   9.193   7.418   2.718  0.0747  0.1734 -0.1140
19014W        W34908   8.000   7.571  14.290  0.2335  0.2099 -0.0623
19015W        W34909  10.062  15.693  15.590  0.0698  0.1210  0.4058
19016W        W34910   3.496  14.966  14.452  0.2066  0.1597  0.0355
19017W        W34911  11.408   5.103   4.516  0.0980  0.0378 -0.2258
19018W        W34912   4.051   7.190  15.469 -0.1605  0.0161 -0.0021
19019W        W34913   8.863   4.648   3.506 -0.0393 -0.0490 -0.0097
19020W        W34914   8.413   2.899   3.719 -0.0152  0.0050 -0.0303
19021W        W34915  16.748   3.216   0.460 -0.4188  0.1069 -0.3016
19022W        W34916   8.851   2.966   0.818 -0.0819 -0.0161 -0.1083
19023W        W34917   2.881   1.644  16.515 -0.2430 -0.1817  0.0212
19024W        W34918  14.947  10.270   0.916 -0.1954 -0.1193 -0.1267
19025W        W34919   0.529   7.835   3.809  0.1120  0.0524 -0.4653
19026W        W34920  14.642  13.914  14.472  0.0456 -0.2434 -0.3762
19027W        W34921   8.339  11.553   0.989 -0.2877 -0.0728  0.2591
19028W        W34922   5.737   6.064  13.640 -0.0811 -0.3527 -0.2956
19029W        W34923   3.830   7.051   2.820 -0.1349 -0.1667  0.0486
19030W        W34924  16.221   8.780  16.548  0.1583 -0.0245  0.0387
19031W        W34925   7.381   4.718  12.732  0.1302 -0.2351  0.1466
19032W        W34926   4.314   7.015   1.364 -0.0236 -0.2682  0.0633
19033W        W34927  10.155  16.956   0.663  0.1167 -0.0449  0.0144
19034W        W34928   4.180   0.684   5.010 -0.2265  0.2041  0.0270
19035W        W34929   5.156   1.210   0.118  0.1326 -0.2154  0.0911
19036W        W34930   3.347  11.043   2.395 -0.2103  0.0171  0.1836
19037W        W34931  17.794   3.691   3.639 -0.1414 -0.3274 -0.0283
19038W        W34932  12.768  11.948   0.327 -0.0562  0.1628 -0.2571
19039W        W34933   6.209   5.784   5.433 -0.2685 -0.1452 -0.1766
19040W        W34934  11.174   4.423  12.286 -0.1255  0.2628 -0.0146
19041W        W34935   2.296  12.878  11.745 -0.0368 -0.2495 -0.0153
19042W        W34936   6.975  16.434  15.774 -0.1600 -0.0238 -0.1817
19043W        W34937   4.244   8.825   0.806  0.0102  0.2654  0.1393
19044W        W34938  12.089  15.679   0.474  0.0843 -0.3034 -0.0789
19045W        W34939  15.255  16.110   3.830 -0.0418 -0.0482  0.1271
19046W        W34940  14.397   0.232  11.526 -0.2958  0.0698 -0.3502
19047W        W34941  10.663   8.008  12.175  0.0672  0.0044 -0.1000
19048W        W34942  16.411   3.756   1.812 -0.0076  0.3801  0.0826
19049W        W34943   5.030   1.051   1.594  0.1308  0.0782  0.0875
19050W        W34944   0.426   6.068  14.117 -0.4264 -0.0760 -0.1933
19051W        W34945   7.981  12.482   2.534  0.0670 -0.1825 -0.0704
19052W        W34946  10.107   1.787  15.459 -0.3973 -0.2557 -0.0655
19053W        W34947   2.765   5.766  11.372  0.1047  0.1629  0.0258
19054W        W34948   3.400   4.521  12.600  0.0118  0.0642  0.0565
19055W        W34949   9.491  12.201  13.765  0.2899  0.0755  0.0266
19056W        W34950  11.348   2.530  15.652  0.1408 -0.0454  0.1521
19057W        W34951   0.237   7.637   5.568  0.1017 -0.2089  0.1404
19058W        W34952   5.470   2.609  15.315  0.0918 -0.0630  0.0732
19059W        W34953   9.515   2.423  15.086 -0.0800 -0.2563 -0.2967
19060W        W34954  13.224   7.622   4.801  0.0038 -0.1836 -0.3536
19061W        W34955   2.515  16.275  12.666  0.0103  0.1174  0.2174
19062W        W34956  16.747   4.216  12.198  0.1863 -0.2347 -0.0834
19063W        W34957   4.669  17.265  11.904 -0.1256  0.0635 -0.0764
19064W        W34958  10.836   3.469  12.515  0.2467  0.0638  0.0943
19065W        W34959   5.268   6.380   2.867  0.0643  0.0465 -0.0713
19066W        W34960  13.872  15.259   1.786 -0.2544  0.1085 -0.1949
19067W        W34961  12.256  14.643  13.162  0.0056  0.1579 -0.1543
19068W        W34962  16.170   0.351  14.286  0.3356  0.0758  0.3357
19069W        W34963   2.532   9.475   1.964  0.0107  0.3301  0.2470
19070W        W34964   5.543  10.426  15.112 -0.2796  0.1911 -0.1366
19071W        W34965   3.270  11.553   6.379 -0.5987 -0.0314  0.0390
19072W        W34966  13.918   4.309  15.470  0.2955 -0.0538 -0.1343
19073W        W34967  16.695  16.493   1.083  0.1047 -0.1656 -0.3616
19074W        W34968  12.243  10.939   4.626 -0.0530 -0.2285 -0.0842
19075W        W34969  15.843   2.402  14.917 -0.0340 -0.0338 -0.0981
19076W        W34970  10.512   2.373   1.576 -0.1924  0.2376  0.3404
19077W        W34971  11.344   7.120  14.789 -0.0495  0.1454 -0.0515
19078W        W34972   0.742  14.666   4.558 -0.3278 -0.1166  0.0072
19079W        W34973  16.014  13.189   3.793 -0.1311 -0.2201 -0.5055
19080W        W34974   3.638  10.901   1.063  0.3191 -0.0797  0.2716
19081W        W34975   1.281  14.292   1.429  0.1859  0.0116  0.0813
19082W        W34976  13.775  11.405  14.214 -0.3214 -0.0140  0.2179
19083W        W34977  16.396  12.818   1.211  0.0107  0.1019  0.0014
19084W        W34978   8.937   1.930  13.980  0.1196 -0.0479 -0.0321
19085W        W34979  16.756  14.863   0.316 -0.0274 -0.3493 -0.0131
19086W        W34980  14.993   7.859   0.942  0.1362  0.1574 -0.0379
19087W        W34981   5.793   4.116   3.622  0.3250 -0.1206 -0.0867
19088W        W34982   3.429   2.690   3.280  0.1723  0.0089 -0.0186
19089W        W34983   0.626  13.506   1.794  0.0155  0.1224 -0.0096
19090W        W34984   5.964  16.714  11.735  0.1531 -0.1262 -0.0863
19091W        W34985  13.977  12.581  13.683  0.0972  0.1917 -0.1140
19092W        W34986  10.586  13.654   5.625 -0.0094 -0.0742  0.1194
19093W        W34987  13.502   8.748  15.802 -0.0354 -0.0838  0.0278
19094W        W34988  10.741   0.922   0.885  0.1643  0.0575  0.3142
19095W        W34989   0.637  10.900   5.881  0.1101  0.0772 -0.0963
19096W        W34990  17.510  11.416  13.939 -0.1982 -0.0783 -0.0994
19097W        W34991  10.413   8.422   3.486 -0.1010 -0.2754 -0.4870
19098W        W34992  12.167   2.406  12.540  0.0744  0.1980  0.0026
19099W        W34993  12.596   1.969  12.309  0.0637  0.1470  0.0993
19100W        W34994   5.265   0.896  10.204  0.0857 -0.2591 -0.1575
19101W        W34995   6.307   4.344   5.329  0.1688  0.1652  0.2149
19102W        W34996   9.372   6.988   3.758 -0.0439  0.1116 -0.1002
19103W        W34997   9.949  15.716   6.211 -0.2473 -0.3861  0.1715
19104W        W34998  13.850   3.012  12.567 -0.0236  0.1649  0.0196
19105W        W34999  12.154   2.365  13.980  0.0545 -0.3080 -0.3045
19106W        W35000   1.356   0.512  13.039  0.2543 -0.1668  0.2846
19107W        W35001  14.602   1.041   4.106 -0.1616 -0.0909 -0.0976
19108W        W35002   9.303   4.315   3.557  0.0883  0.0959 -0.0330
19109W        W35003  12.873  10.253  14.767  0.0171 -0.1171  0.3922
19110W        W35004   6.526   0.762   0.022  0.0031 -0.1463 -0.0145
19111W        W35005  16.365   0.297  16.366 -0.0740  0.0619 -0.0708
19112W        W35006  12.676  13.576  16.126  0.0164  0.1723 -0.1460
19113W        W35007   3.172   3.532   0.164  0.0453  0.0439 -0.1133
19114W        W35008  11.023  12.980   0.289 -0.2181 -0.1037 -0.0147
19115W        W35009  11.342  12.282  12.988 -0.1651 -0.0184  0.0469
19116W        W35010   7.496   5.202   2.395  0.2184 -0.0509 -0.2089
19117W        W35011  14.830  14.868   4.173  0.1102 -0.0420  0.3086
19118W        W35012   6.445  11.258  12.439  0.0318 -0.1774  0.0336
19119W        W35013   7.262  14.911   0.910  0.0395 -0.1438 -0.0723
19120W        W35014   1.478   2.755  15.488  0.0533 -0.0764 -0.0651
19121W        W35015   5.829   8.334   2.289  0.0118 -0.0196 -0.1773
19122W        W35016  13.323  16.604   3.602  0.0009 -0.1542  0.1095
19123W        W35017   5.814  11.123  16.248 -0.0854  0.0354 -0.0682
19124W        W35018   4.951   7.757  13.070  0.0180 -0.0638 -0.0525
19125W        W35019  16.295   1.801   2.632 -0.2459 -0.0020  0.2797
19126W        W35020   0.687   9.283  15.800 -0.3863  0.0609 -0.1374
19127W        W35021  13.980  16.995   4.764  0.1101 -0.4216 -0.0166
19128W        W35022   8.227   3.839  16.117 -0.2092  0.0411 -0.0907
19129W        W35023   7.798   3.560   6.265 -0.0993 -0.0815  0.0101
19130W        W35024  13.123  10.228  12.814 -0.1659  0.0163 -0.1039
19131W        W35025  13.529  15.689  11.953 -0.1570  0.0830  0.2605
19132W        W35026   8.798  16.061  13.456 -0.0240 -0.0747  0.2479
19133W        W35027  14.403   0.374  12.570 -0.1086 -0.0820 -0.2953
19134W        W35028  17.583  10.943  14.242  0.1524 -0.0811  0.2271
19135W        W35029   1.101   8.631  16.295  0.0517 -0.1334 -0.2941
19136W        W35030   7.782  12.442   2.992 -0.0620 -0.0321  0.1573
19137W        W35031   5.391  10.431   2.050 -0.1776  0.0141 -0.2157
19138W        W35032  11.709  16.145   2.464  0.0169  0.1317 -0.1774
19139W        W35033  17.092   3.331  16.871 -0.1416  0.0372 -0.3736
19140W        W35034  17.470  14.310  16.549  0.3013  0.0884  0.0914
19141W        W35035   7.258   5.476  13.129  0.0030 -0.0120  0.0996
19142W        W35036  15.535   6.683   0.275 -0.2762  0.0160 -0.1528
19143W        W35037   8.650  14.837   5.839  0.1001 -0.1158  0.2769
19144W        W35038  17.169  15.176   0.555  0.0879  0.2115  0.0082
19145W        W35039   7.901   4.674   5.041 -0.4051 -0.0053 -0.2282
19146W        W35040   2.174  16.189   0.087 -0.2020  0.0604 -0.1596
19147W        W35041   8.224  15.630  14.252  0.1014  0.1071 -0.0482
19148W        W35042   6.320  17.546  14.002  0.4026  0.0544  0.1057
19149W        W35043  17.755  14.466   4.660 -0.1726 -0.0600 -0.0817
19150W        W35044  15.193  14.315  11.454  0.0674  0.0196  0.0752
19151W        W35045  11.509   9.898   2.951 -0.1139 -0.2438 -0.0417
19152W        W35046  15.197  12.167   2.897 -0.2112  0.0136  0.0650
19153W        W35047   5.687   0.207   3.492  0.2110  0.2563  0.0482
19154W        W35048  14.870  14.661  13.615 -0.1851 -0.0670 -0.0202
19155W        W35049  15.393  11.730  12.192  0.2939  0.1529  0.2530
19156W        W35050  12.239  10.894  12.110  0.0745 -0.0315 -0.2389
19157W        W35051   2.264   5.673   0.315  0.1778  0.0502 -0.0622
19158W        W35052   5.348   5.268  15.292  0.3044  0.1276  0.3936
19159W        W35053   9.427   9.485  13.679  0.0726  0.0627  0.0743
19160W        W35054  17.636  12.007   6.392 -0.0234  0.0072  0.1146
19161W        W35055  16.611   6.769  15.766 -0.2086  0.0760  0.2423
19162W        W35056   3.361  15.621   5.693  0.0426  0.2742  0.2431
19163W        W35057   4.097  15.451  13.058 -0.0618 -0.1079  0.1781
19164W        W35058   2.377   9.380   0.856  0.2615 -0.1979  0.2168
19165W        W35059  10.905   2.927   0.763 -0.1355 -0.1656 -0.0758
19166W        W35060   7.759  12.354  14.497  0.1066  0.3712  0.1010
19167W        W35061   1.780   2.907   4.689 -0.2632  0.0618 -0.2094
19168W        W35062   7.671  15.861   1.314 -0.0822  0.1064 -0.1047
19169W        W35063  11.865  10.850  15.428 -0.1255 -0.2362  0.1348
19170W        W35064   7.367  10.791   0.998 -0.1581 -0.1609  0.0815
19171W        W35065  13.747   5.159  13.541  0.1784 -0.1825  0.1749
19172W        W35066   5.025  17.776  13.127 -0.1603 -0.1493  0.0828
19173W        W35067  11.478   5.352   0.123 -0.3832  0.0282  0.0093
19174W        W35068   4.950   5.834   3.984 -0.1999 -0.2698 -0.3270
19175W        W35069  17.421  16.579   1.880  0.1103  0.1233 -0.0766
19176W        W35070   2.030   6.660   5.683  0.1143 -0.1433  0.0909
19177W        W35071   0.204  15.956   5.710  0.3233  0.0218 -0.0239
19178W        W35072   0.899   5.845  15.053 -0.0165 -0.1612  0.0285
19179W        W35073  14.867   4.809  12.065 -0.0705 -0.1926  0.0825
19180W        W35074   7.519   8.650   5.628 -0.0727 -0.5516  0.0296
19181W        W35075  12.528  10.208  14.426 -0.2529 -0.1869 -0.1280
19182W        W35076  10.440   7.855   2.193  0.2061  0.0030 -0.0806
19183W        W35077  15.472  11.346   1.722  0.0968 -0.3929 -0.4786
19184W        W35078   5.554   4.849  15.449  0.2030  0.0051  0.2168
19185W        W35079   1.464   5.355  12.347 -0.1337  0.1398  0.0640
19186W        W35080  14.395   7.149   3.420 -0.2704 -0.1476 -0.1689
19187W        W35081  11.391   6.832   1.755 -0.1223  0.1401  0.1724
19188W        W35082   2.511   2.142  11.170  0.5496 -0.2087 -0.1484
19189W        W35083  16.239   5.826   0.571 -0.0911 -0.1612  0.0556
19190W        W35084   1.328  17.714   1.137 -0.2620  0.0913  0.1028
19191W        W35085   0.816   6.852   5.641  0.2204 -0.2031  0.4029
19192W        W35086   7.826  14.594  16.542 -0.1690  0.0554 -0.2413
19193W        W35087   0.598   0.349   5.446  0.2431  0.2947 -0.1089
19194W        W35088   4.035  15.364   2.653  0.0315  0.2060 -0.0983
19195W        W35089  15.433  10.927  15.150  0.1473  0.2592 -0.3851
19196W        W35090   9.309  11.052  11.524 -0.1453  0.1216 -0.1017
19197W        W35091   6.706   5.038   4.008 -0.0592  0.1579  0.0804
19198W        W35092  10.164   5.702  14.105  0.1637 -0.1705  0.0309
19199W        W35093  11.785   7.158   2.688 -0.2141 -0.2325 -0.0078
19200W        W35094   6.558  12.587  16.248  0.0779 -0.6081 -0.3044
19201W        W35095   1.526   7.828   3.633 -0.0880  0.1033  0.2241
19202W        W35096  17.359  13.604   2.998  0.0674  0.0883 -0.1297
19203W        W35097   6.208   3.781  15.472  0.1342  0.0580  0.2068
19204W        W35098   8.968  16.413   1.989 -0.4252 -0.0239  0.2892
19205W        W35099  16.340  13.767   4.561  0.0603  0.0908 -0.0091
19206W        W35100   2.182  11.001  16.180 -0.2421 -0.0245 -0.1153
19207W        W35101   4.163   0.729  14.681 -0.0221 -0.1921 -0.2940
19208W        W35102   1.900   4.408  11.078 -0.0235  0.2299  0.1003
19209W        W35103  12.817   6.578   6.208  0.0897 -0.0951 -0.0013
19210W        W35104   5.476   9.050  11.658  0.1058  0.3271  0.3219
19211W        W35105  17.187   2.287  15.840  0.2733 -0.0643 -0.0455
19212W        W35106   6.549   3.526   5.838  0.0698  0.3123 -0.0894
19213W        W35107   8.320   4.010   4.458 -0.1213 -0.3200  0.0036
19214W        W35108   9.439   4.479  11.929  0.0922 -0.0707 -0.2618
19215W        W35109   8.284   1.854  15.472 -0.1592 -0.0438  0.2654
19216W        W35110  17.464   1.215   2.758 -0.4242 -0.1730  0.0735
19217W        W35111   7.402   5.288  15.091 -0.2926 -0.0618  0.0896
19218W        W35112   0.171  12.428  11.900 -0.0440 -0.3184  0.1868
19219W        W35113  12.990  16.888   3.348 -0.0207 -0.2078 -0.0196
19220W        W35114  15.683  11.168  12.225 -0.0887  0.2006  0.2315
19221W        W35115   3.696   4.501   0.871 -0.0501 -0.1844  0.0287
19222W        W35116  16.944   8.690  11.646  0.0403  0.1002  0.0261
19223W        W35117  10.935  11.468   1.063  0.2506  0.1192  0.0811
19224W        W35118  15.668  15.068   1.599  0.0532 -0.1146  0.3764
19225W        W35119   9.917  13.463  15.603  0.2175 -0.0354  0.0455
19226W        W35120   5.451   6.108   6.142  0.1120  0.1296 -0.1812
19227W        W35121   1.046   0.629   5.369 -0.0229 -0.0548  0.0078
19228W        W35122  14.297   1.717   0.762 -0.0914  0.0138 -0.0402
19229W        W35123   4.311   7.270   4.651  0.1476  0.0040 -0.1680
19230W        W35124  10.243   4.589   3.940  0.2735  0.1278  0.1743
19231W        W35125   0.286  12.221   2.932 -0.2828  0.0918  0.0182
19232W        W35126   8.500   6.812  15.327 -0.1027  0.3659  0.1619
19233W        W35127  17.525  15.348  14.139 -0.0112 -0.1659  0.0010
19234W        W35128  10.459  11.327   5.009 -0.0568 -0.0578 -0.0447
19235W        W35129  13.502   8.258  13.461  0.0786 -0.1689 -0.2645
19236W        W35130  15.223  16.578   2.330 -0.2656  0.0966 -0.2042
19237W        W35131   8.935   9.583  12.767  0.0021  0.5178  0.1651
19238W        W35132   8.115  17.539   1.303 -0.0645 -0.1622  0.1931
19239W        W35133   0.509   8.874   1.432  0.0038  0.3231 -0.0107
19240W        W35134  10.842  10.137   0.518 -0.0029  0.0487 -0.1580
19241W        W35135   1.653  15.747  16.119  0.1725 -0.3823 -0.0087
19242W        W35136   5.962   3.576   3.467  0.1861 -0.0179  0.2222
19243W        W35137   6.818   5.359   4.335 -0.0888  0.0519 -0.0760
19244W        W35138   2.677   2.432   5.197 -0.1935 -0.1756  0.1620
19245W        W35139   6.595   0.050   0.272 -0.0955 -0.2849 -0.0831
19246W        W35140  13.154  13.725   5.884 -0.1635  0.1407  0.3420
19247W        W35141  11.178  17.672  12.926 -0.3325 -0.1655  0.4118
19248W        W35142   8.394  13.747  14.829  0.1723 -0.0886  0.2527
19249W        W35143   4.136  15.790   1.747 -0.0319  0.0519 -0.3981
19250W        W35144   8.929   7.205   3.864  0.0597 -0.3349 -0.0478
19251W        W35145   9.521   8.417  13.036 -0.2597  0.3664  0.0934
19252W        W35146   0.276  17.171   4.225  0.1165 -0.0146  0.4386
19253W        W35147   8.156  16.527   4.977 -0.0119 -0.0381 -0.1065
19254W        W35148   8.761   3.601  16.299 -0.0223 -0.4395  0.0824
19255W        W35149   9.659   6.480  14.340 -0.1440  0.1476  0.2319
19256W        W35150  15.544   1.063   4.082  0.0438 -0.2520  0.2596
19257W        W35151  12.318  12.830   4.876 -0.2857 -0.2318  0.1713
19258W        W35152   4.225  13.990  12.304  0.1919  0.1281 -0.1987
19259W        W35153  17.155  10.708  15.063  0.1665  0.1220 -0.1177
19260W        W35154  12.505  14.802   0.553 -0.1083 -0.3607 -0.1797
19261W        W35155  15.034   4.726   3.955 -0.1719 -0.4486  0.0800
19262W        W35156   1.852   0.008  15.123 -0.4603 -0.2027  0.1762
19263W        W35157  12.783  17.086   3.716 -0.0365  0.4113 -0.0685
19264W        W35158  13.602   6.554   5.100 -0.0904  0.1504 -0.0017
19265W        W35159   8.109  14.083   3.794  0.0557  0.1768  0.3449
19266W        W35160  15.785   6.443   1.079  0.0588  0.1931 -0.1135
19267W        W35161   5.458   9.539   4.152 -0.1007  0.0772  0.0768
19268W        W35162   4.990  10.731  16.238  0.0404  0.1222 -0.0354
19269W        W35163   3.741  11.571  13.424 -0.0479 -0.2174 -0.0733
19270W        W35164   4.011  11.290  15.044  0.0198  0.1198  0.1262
19271W        W35165   8.964  17.848   4.690 -0.1204  0.0373  0.1906
19272W        W35166  10.198  13.430  13.340  0.0284 -0.2293  0.0519
19273W        W35167  12.950   2.019   3.011  0.4384 -0.1972 -0.1518
19274W        W35168   5.442   4.593  14.573 -0.2398 -0.0103  0.1942
19275W        W35169   3.852  11.109   1.505  0.3769  0.0520 -0.1239
19276W        W35170   8.989  17.123   1.184 -0.0740  0.0002  0.1624
19277W        W35171  13.699  11.815   4.285 -0.0993 -0.1381  0.2110
19278W        W35172  12.100  17.013  13.939 -0.3021 -0.0723 -0.1557
19279W        W35173  11.999   4.813  12.364 -0.1011  0.0626  0.0432
19280W        W35174   5.146  13.772  15.465  0.0638 -0.1624  0.1966
19281W        W35175   3.878   3.540  12.326 -0.2038 -0.1641 -0.0331
19282W        W35176   4.030   0.413  14.377  0.0894 -0.2925 -0.1600
19283W        W35177  17.767   3.988   4.749 -0.1591  0.1943  0.2158
19284W        W35178   7.383  14.478   3.892  0.0666 -0.0025 -0.2526
19285W        W35179   0.041  11.667  16.534 -0.1080 -0.1153 -0.1541
19286W        W35180  17.445   0.668   0.068  0.1078  0.0334  0.0948
19287W        W35181  17.463   6.871  14.639  0.0509 -0.2173 -0.2285
19288W        W35182  13.097   0.517   0.900 -0.2450  0.0207  0.1396
19289W        W35183   0.168   7.737  11.908 -0.0397  0.1697 -0.3037
19290W        W35184   3.401   9.175  14.938  0.2318 -0.0084  0.0085
19291W        W35185  13.752   1.935  11.754 -0.0760 -0.3397 -0.0530
19292W        W35186  13.823   6.275   2.407  0.2568 -0.0704 -0.2158
19293W        W35187  14.898   9.946   0.221 -0.3123  0.3358 -0.0076
19294W        W35188   3.805   2.343   3.206  0.1196 -0.1468 -0.2408
19295W        W35189   5.447   7.582  16.080 -0.1094  0.0853  0.1243
19296W        W35190   5.532   8.627   3.858 -0.2049  0.4225 -0.0510
19297W        W35191  11.128   4.564  15.080 -0.2677 -0.2349  0.1215
19298W        W35192   6.349   7.109  16.895 -0.0887 -0.0687  0.2513
19299W        W35193   0.038  15.327  12.583 -0.1724 -0.1711 -0.0098
19300W        W35194  15.912  12.317  11.391  0.1874  0.1923  0.1450
19301W        W35195   1.731   1.328  12.824  0.1647  0.0563  0.3222
19302W        W35196  17.043  10.184   3.639 -0.1385  0.1549 -0.0885
19303W        W35197  12.396   4.642  13.568 -0.3710 -0.3667 -0.1182
19304W        W35198   8.387   8.234  11.769  0.0745 -0.2991  0.1594
19305W        W35199  11.925   0.714   2.470  0.0495  0.3090 -0.0300
19306W        W35200   7.511  12.081  15.894  0.2316 -0.1661  0.0776
19307W        W35201   5.100   7.124   0.949  0.2809 -0.3188 -0.0112
19308W        W35202  15.316   4.739   3.396  0.2184 -0.3161  0.1073
19309W        W35203   9.647  10.217   0.293  0.4070 -0.2255 -0.1828
19310W        W35204   0.297   5.169  16.494  0.1755 -0.2209  0.1008
19311W        W35205   6.323   3.907  13.000  0.1093  0.0572 -0.1036
19312W        W35206  11.089  15.717   3.708  0.0693 -0.1432  0.0615
19313W        W35207  14.833   3.134   5.284  0.0465  0.1256  0.0503
19314W        W35208   6.697  14.701   0.450 -0.2390 -0.5998 -0.0980
19315W        W35209  16.787  17.527  14.113 -0.4070 -0.1719 -0.0544
19316W        W35210  11.038   0.026   3.613  0.1370 -0.0056  0.1616
19317W        W35211  10.004   2.022  16.529  0.2904  0.0151 -0.0505
19318W        W35212  16.229   5.401  13.460 -0.0908 -0.0848  0.2490
19319W        W35213   7.542  14.899   3.577 -0.0136 -0.2137 -0.1594
19320W        W35214  11.221   7.362   0.872 -0.2102 -0.0382  0.0829
19321W        W35215   6.317   6.330   0.527  0.1582  0.1092  0.2673
19322W        W35216   5.471   5.031  12.026  0.0601 -0.0095 -0.0319
19323W        W35217   0.978   0.177   1.327  0.1218  0.2256  0.1391
19324W        W35218   2.019  16.470  11.840 -0.1408 -0.1714  0.3004
19325W        W35219   1.554  17.570   0.043 -0.0315 -0.0226  0.0683
19326W        W35220   9.617  13.005   1.893  0.2554 -0.3391 -0.1653
19327W        W35221  17.212  11.257   4.663  0.0241 -0.1189 -0.0109
19328W        W35222   6.909  10.146   5.207 -0.1743 -0.3591 -0.3798
19329W        W35223   6.711  13.833   5.001  0.2802 -0.2160  0.2427
19330W        W35224   7.246  17.251  15.914 -0.2797  0.0587 -0.2471
19331W        W35225   1.640   0.316   1.293  0.0880 -0.0986 -0.2056
19332W        W35226  15.278   3.467  11.174  0.0310 -0.0205  0.0067
19333W        W35227   6.441   0.886   1.373  0.2990 -0.1057  0.0174
19334W        W35228   8.321   2.400   2.900  0.1889  0.1972  0.2212
19335W        W35229   5.700   0.895   2.641 -0.0023  0.1651 -0.1733
19336W        W35230   9.157   9.227  15.636 -0.0131 -0.5094 -0.5178
19337W        W35231   7.369  11.602   3.311  0.2470 -0.3506 -0.1471
19338W        W35232  12.828  15.183  13.026  0.0936 -0.2426 -0.1580
19339W        W35233  16.945   5.001   4.434  0.0344  0.1212  0.2237
19340W        W35234   6.127   7.274   0.814  0.0337  0.1298 -0.1062
19341W        W35235  16.000  12.077   6.282  0.0674  0.0575  0.1493
19342W        W35236  16.920  10.666   3.449  0.0524 -0.4290  0.1540
19343W        W35237   7.352   6.160  15.504 -0.2051 -0.0529  0.1921
19344W        W35238  16.203  17.394  16.773 -0.1905 -0.0828  0.1337
19345W        W35239   3.972   2.431  16.770  0.2019 -0.0171  0.1850
19346W        W35240   7.223   9.793   0.507  0.0653  0.2080  0.0323
19347W        W35241   1.797  15.503  15.718 -0.2307 -0.0023 -0.2952
19348W        W35242  12.930   8.853  16.003  0.0338 -0.0276 -0.0822
19349W        W35243   5.642   2.862   4.728 -0.1221 -0.0835  0.2219
19350W        W35244   6.145  17.321   1.649  0.3274 -0.1573 -0.2564
19351W        W35245  16.285  15.345  14.058  0.0567 -0.0582 -0.3210
19352W        W35246  14.109  12.651   1.955 -0.0357 -0.1996 -0.1942
19353W        W35247  16.450   3.815  16.338  0.0779  0.2601  0.0584
19354W        W35248  12.393   9.028   3.015  0.1462  0.0193  0.0346
19355W        W35249   8.819  15.458  16.037  0.1788  0.1396  0.2569
19356W        W35250  17.163  11.742  14.972 -0.0232  0.0850  0.3981
19357W        W35251   6.839   1.678   0.911  0.1006 -0.0700  0.0380
19358W        W35252  13.512  14.931   2.418  0.0220  0.2886 -0.2286
19359W        W35253  10.901   0.625  15.505  0.2226  0.1951 -0.2998
19360W        W35254   1.299  10.648  13.915  0.0775  0.1968 -0.0828
19361W        W35255   1.363   2.805   6.060  0.1367  0.2633  0.0060
19362W        W35256   1.889   9.187  15.395 -0.2002  0.2545  0.2249
19363W        W35257  17.550  11.537   1.024 -0.1296 -0.0613 -0.1522
19364W        W35258   9.032  16.784  16.734  0.0437 -0.1282 -0.0325
19365W        W35259   9.444   3.345  15.521  0.1622 -0.1629 -0.3620
19366W        W35260   6.018   8.632   2.963  0.0636 -0.0457 -0.2364
19367W        W35261   1.945   1.220  13.780  0.1327  0.0974  0.0822
19368W        W35262   8.871   9.547   5.280 -0.1192  0.1309 -0.0387
19369W        W35263  13.917   8.189   3.706 -0.1007  0.3164 -0.0444
19370W        W35264  13.828   3.427  15.163 -0.1413 -0.1188  0.0431
19371W        W35265   6.534   2.029   2.567 -0.1006  0.1052 -0.0524
19372W        W35266  15.805  17.149  14.143  0.0387 -0.0713  0.2220
19373W        W35267  17.297  11.257   0.165  0.1159 -0.1432  0.1907
19374W        W35268   3.341   6.097   4.789 -0.0863  0.2340 -0.0071
19375W        W35269  14.086   5.929   4.023  0.1148  0.0093  0.0294
19376W        W35270  16.931  15.701  12.833 -0.0109 -0.0587  0.0283
19377W        W35271  12.874  10.773   0.850  0.2002  0.1362 -0.0534
19378W        W35272   4.648   8.809  16.391  0.1497  0.1386 -0.0341
19379W        W35273  16.761  11.489   4.650  0.0073  0.3183  0.4355
19380W        W35274   7.781   2.886   2.612  0.2375 -0.0663  0.2759
19381W        W35275  10.827   6.375   4.104  0.1862 -0.4750  0.0148
19382W        W35276   7.870   7.170  13.549  0.2751 -0.0927 -0.0189
19383W        W35277  10.290   0.284  13.837  0.1385  0.1360 -0.0613
19384W        W35278  11.474   8.632  15.422  0.0307 -0.0825  0.1177
19385W        W35279   4.411   5.332   3.579 -0.2545  0.2006  0.3943
19386W        W35280  14.509   0.719  15.074 -0.1790 -0.0631  0.0448
19387W        W35281   4.924   8.450  14.278 -0.1029  0.1376  0.0833
19388W        W35282  12.955   3.561   1.012  0.0058  0.0742 -0.1406
19389W        W35283  11.186  14.817   0.281 -0.3393 -0.1042  0.1694
19390W        W35284  17.433   3.430  10.640  0.1754  0.0979 -0.1367
19391W        W35285  14.875  17.056   3.943 -0.0498 -0.0470 -0.0071
19392W        W35286   4.265  10.474   3.467 -0.0144 -0.1800  0.0044
19393W        W35287   7.249   6.473  14.085  0.2155  0.2428 -0.1692
19394W        W35288  14.473  16.634   3.651  0.1611  0.2797 -0.3224
19395W        W35289  16.303   0.843   0.102 -0.2273  0.1174  0.0087
19396W        W35290   8.104  17.087  15.322  0.0627  0.0827 -0.1238
19397W        W35291   0.487  14.781  14.182  0.0628  0.1828  0.1535
19398W        W35292   8.241  12.555   2.124 -0.3729  0.1589 -0.0495
19399W        W35293   9.750  17.151   5.158  0.1613 -0.0494 -0.1915
19400W        W35294  10.486  16.787  11.910  0.1262 -0.0723  0.1292
19401W        W35295   8.194   7.587   4.945 -0.0034  0.2481 -0.0743
19402W        W35296  14.112   8.137   0.941  0.0263 -0.1299  0.1811
19403W        W35297  10.130   3.728   5.229 -0.1123  0.0598  0.1191
19404W        W35298  11.805  14.383   2.067 -0.0011  0.1029 -0.0241
19405W        W35299  14.065   5.966  13.914  0.0541 -0.1003  0.0754
19406W        W35300   4.115  14.465   0.311 -0.1686  0.1887 -0.3613
19407W        W35301   5.774  10.278   6.109 -0.2674  0.0519  0.2295
19408W        W35302   4.038   8.615  15.157 -0.0592  0.2901 -0.1306
19409W        W35303   3.254  17.073  15.581 -0.1989 -0.1089  0.0430
19410W        W35304   5.213   3.466  16.305 -0.0389  0.0255 -0.1984
19411W        W35305  14.153  14.131   4.822 -0.0400 -0.0588  0.3071
19412W        W35306   5.188  10.497   1.553  0.0403  0.0838 -0.1021
19413W        W35307   3.720  14.988   2.666 -0.3364 -0.0032  0.1001
19414W        W35308  11.298  15.978   3.323  0.1986 -0.1104  0.1971
19415W        W35309  10.237  12.746   4.174 -0.1010 -0.0519 -0.3350
19416W        W35310  11.083   6.669  16.459 -0.2648  0.6261 -0.0795
19417W        W35311   1.086   9.822  14.207 -0.0693  0.3306 -0.3835
19418W        W35312   0.698   9.388   3.148  0.4137 -0.4960 -0.0820
19419W        W35313  11.231   3.811  12.457  0.1469 -0.0454 -0.1649
19420W        W35314   2.974   3.537  13.716 -0.1095 -0.0786 -0.2008
19421W        W35315   5.240   7.400   1.335 -0.1902 -0.2185 -0.1007
19422W        W35316  13.150   9.355  12.037  0.0954  0.0489  0.0225
19423W        W35317   8.662  11.717  12.525 -0.0774  0.1866  0.0953
19424W        W35318  10.198   6.772  16.419 -0.1536  0.0485 -0.0102
19425W        W35319  10.383   2.014  14.333  0.0946  0.0539 -0.1393
19426W        W35320   3.822   8.449  14.264 -0.1664  0.0525  0.0363
19427W        W35321  13.054   8.362   3.610  0.2645 -0.0162  0.1011
19428W        W35322   4.268  16.930   4.433  0.2514  0.1433  0.0668
19429W        W35323   7.499   3.428   5.248  0.3519 -0.1796 -0.0106
19430W        W35324   3.558  13.554   2.154  0.2207  0.1833 -0.0596
19431W        W35325   5.615   8.621  16.612  0.0442 -0.0139  0.0480
19432W        W35326   3.783  13.701   4.967 -0.1178  0.0494  0.2045
19433W        W35327   3.649  10.451  14.914  0.2340 -0.1467 -0.0566
19434W        W35328  14.948  13.636   6.456  0.1487 -0.0155  0.1812
19435W        W35329  14.858   4.613  11.565  0.1134 -0.2879  0.2730
19436W        W35330   2.707   1.538  13.011 -0.0345 -0.0380 -0.0829
19437W        W35331   0.656  15.232  13.943  0.0701 -0.1494 -0.1406
19438W        W35332   0.191   8.492   3.156  0.0867 -0.1188 -0.0716
19439W        W35333  13.794   5.649  13.519 -0.1704  0.1788 -0.0058
19440W        W35334  14.116  10.471   5.202 -0.2218  0.4318 -0.0535
19441W        W35335  12.353   6.219  16.306  0.3791 -0.1328 -0.0680
19442W        W35336   8.248  14.966   4.629 -0.1442 -0.0101 -0.1748
19443W        W35337   2.590   5.505  12.551  0.2362 -0.1415  0.2004
19444W        W35338  16.265   7.357  13.066 -0.0786 -0.1619 -0.1065
19445W        W35339   1.962   6.991   1.651 -0.2496  0.1624  0.0309
19446W        W35340   0.939   8.465  12.973  0.0657 -0.1325 -0.3445
19447W        W35341   5.199  16.625   4.298 -0.1482  0.2244 -0.1720
19448W        W35342   9.648  12.903   0.614  0.0540 -0.2180  0.0816
19449W        W35343  14.030  15.865  14.086 -0.0584 -0.1516  0.2178
19450W        W35344   3.871  16.182  15.991 -0.0215 -0.0063 -0.3870
19451W        W35345   4.051   4.444   3.703 -0.1535 -0.0723 -0.1868
19452W        W35346   8.891   2.210   3.728 -0.0532 -0.1396 -0.0938
19453W        W35347   1.561  15.783   5.018  0.3445  0.2100  0.0745
19454W        W35348  17.365  15.420  12.700  0.0565 -0.0714 -0.1562
19455W        W35349   2.733   4.558  14.720  0.0255 -0.1568 -0.2738
19456W        W35350   9.931   7.182   1.943 -0.1603  0.0390 -0.2858
19457W        W35351   2.427   2.779  11.813  0.3245 -0.0553 -0.3336
19458W        W35352  15.442   3.593  16.314  0.1196  0.2301 -0.0614
19459W        W35353  13.196   0.891  11.234  0.1062 -0.0565  0.0751
19460W        W35354   3.403   2.613  15.893  0.1828 -0.1546  0.0517
19461W        W35355   3.033   8.690   4.625 -0.0165 -0.0336 -0.4707
19462W        W35356  11.715  10.158  15.996 -0.0116  0.0937  0.2513
19463W        W35357  11.244   2.384   2.929 -0.2729  0.2670  0.0976
19464W        W35358  10.177   9.391   1.330 -0.3433  0.2550  0.0660
19465W        W35359  14.059  15.496   4.925  0.0134  0.0474  0.1055
19466W        W35360  14.790   1.099  14.979 -0.1293  0.1369 -0.2589
19467W        W35361  11.170  13.312   1.162 -0.0957  0.1196 -0.0170
19468W        W35362   2.421   2.991  11.097 -0.2563 -0.0759  0.1355
19469W        W35363   1.657   4.461  16.338  0.1943 -0.2778  0.0111
19470W        W35364  14.243   6.623  11.553 -0.6194  0.2019 -0.0745
19471W        W35365   1.123  15.628   4.798  0.2558 -0.1576  0.1895
19472W        W35366  14.734   6.375  11.762  0.1486  0.0916 -0.1072
19473W        W35367  15.733  10.620   5.753 -0.0194 -0.0372 -0.2270
19474W        W35368   4.015  17.169   0.990 -0.1153 -0.0695 -0.0266
19475W        W35369   8.637   1.525  14.059 -0.1193  0.0509  0.0863
19476W        W35370  10.923  12.346  16.110  0.1826  0.0398 -0.2198
19477W        W35371  15.628   7.575  13.861 -0.0085 -0.3204 -0.2712
19478W        W35372  12.278  16.891   5.270  0.2417  0.0787  0.2901
19479W        W35373   9.334  11.795   5.405 -0.0353  0.3526  0.4710
19480W        W35374   3.474  17.430   5.888  0.1270  0.0719 -0.0141
19481W        W35375  12.362  10.430   4.577  0.0369 -0.2804  0.0508
19482W        W35376   9.918  10.799  13.493  0.1650  0.0315  0.0345
19483W        W35377   7.307  17.243  11.784  0.1117  0.0163  0.2839
19484W        W35378  13.756  11.327  12.616 -0.2506 -0.1919 -0.1487
19485W        W35379  12.360   5.049  15.625 -0.2149 -0.0320  0.2266
19486W        W35380   7.271  16.867   0.405 -0.0915 -0.1424 -0.2681
19487W        W35381  15.850   9.182  14.587 -0.0117 -0.0985 -0.1178
19488W        W35382   7.326   7.609  13.344  0.0942  0.0808 -0.0654
19489W        W35383   9.173   8.748  15.767  0.0144  0.2387  0.0771
19490W        W35384   1.969  10.397   0.521 -0.0214  0.2615 -0.0399
19491W        W35385   5.565  13.998   1.542 -0.1057 -0.1187  0.2797
19492W        W35386  14.862   8.417   5.073 -0.3699 -0.2767  0.1680
19493W        W35387   5.301   9.869   2.686 -0.0927 -0.0700 -0.0388
19494W        W35388  16.704   6.250  12.423 -0.2858  0.2937 -0.0061
19495W        W35389  17.247  12.099   4.126 -0.0761  0.0278  0.0334
19496W        W35390   5.515  14.554   0.823  0.2223  0.2057  0.1404
19497W        W35391   6.471   8.932  16.043  0.0379 -0.1843 -0.0952
19498W        W35392   4.212  11.456  16.446 -0.5084  0.0753 -0.3017
19499W        W35393   6.526   2.631  16.180 -0.3294 -0.4623 -0.4069
19500W        W35394  13.179  14.049  12.270 -0.1449  0.1424  0.1682
19501W        W35395  10.366   7.286  16.358 -0.0385  0.0095  0.0572
19502W        W35396   8.493   9.449   4.400  0.1261  0.0992  0.0946
19503W        W35397  11.753   4.154  15.003 -0.0389  0.2183 -0.2338
19504W        W35398  12.333   7.030  16.633 -0.0114 -0.1583  0.0268
19505W        W35399   4.931  15.735   1.750 -0.2910  0.0331 -0.4245
19506W        W35400   0.095  15.065   2.875  0.2602 -0.1293  0.0478
19507W        W35401  13.274   7.908  16.797 -0.0968 -0.1573 -0.2639
19508W        W35402   5.974   6.316   2.620  0.0895  0.1987  0.2742
19509W        W35403  12.336  16.361   5.159 -0.0003  0.1930  0.2235
19510W        W35404  11.061   5.525   3.341 -0.0984  0.0054  0.0838
19511W        W35405   8.778  12.647   0.798  0.3146  0.0578 -0.1785
19512W        W35406  10.490  15.518   5.103 -0.2340 -0.1698 -0.1159
19513W        W35407   8.000   8.498   6.021  0.2103  0.0231  0.1488
19514W        W35408   8.480   9.103  13.383 -0.2185 -0.2664  0.2911
19515W        W35409  10.691   2.681   5.733  0.0571 -0.0898  0.0525
19516W        W35410  15.176   2.340   3.931  0.0592 -0.0918  0.0493
19517W        W35411   3.010   8.724  11.554 -0.0881 -0.1388 -0.0090
19518W        W35412  16.060   8.637   2.385 -0.2534  0.1009  0.1423
19519W        W35413  15.197   7.519  14.676 -0.1161  0.1443 -0.0083
19520W        W35414  17.637  10.900  15.266  0.0201 -0.0682 -0.0484
19521W        W35415  14.467  11.980  14.909 -0.1924  0.1186 -0.2035
19522W        W35416   0.452  11.556   3.711 -0.3283 -0.3031  0.3466
19523W        W35417  11.054   1.962  11.463 -0.0548  0.4352  0.1797
19524W        W35418   7.517  15.938   2.217  0.2731 -0.1833 -0.0720
19525W        W35419   3.067  16.086   4.036  0.1467  0.3099 -0.2650
19526W        W35420   0.441  15.794   2.414 -0.0638  0.0314 -0.2990
19527W        W35421  12.710  15.478  11.534 -0.0243 -0.0201  0.0946
19528W        W35422   3.914   5.573   3.727 -0.2566  0.0688  0.0998
19529W        W35423  12.297   9.613  11.744 -0.2402  0.1147  0.3172
19530W        W35424  14.084  13.482  12.261  0.2170 -0.3429  0.1585
19531W        W35425  15.192  14.703   0.334  0.0897  0.1223 -0.0058
19532W        W35426   3.848   1.863  13.955 -0.2225 -0.2366  0.1733
19533W        W35427   9.418  15.281   5.025 -0.1579 -0.1084 -0.1389
19534W        W35428  12.470  10.062   3.125 -0.2145 -0.3982 -0.0198
19535W        W35429   0.181   1.897   0.888  0.2432 -0.0714 -0.2693
19536W        W35430  15.542   7.636  12.317  0.1266 -0.0246 -0.0048
19537W        W35431   7.075  13.728   2.432  0.0245 -0.0253 -0.3640
19538W        W35432  14.317  12.330   3.049 -0.0128 -0.2543  0.3295
19539W        W35433   9.213   2.885  11.905 -0.2438 -0.3456 -0.1411
19540W        W35434   6.435   0.724   4.598 -0.1679 -0.0312  0.0485
19541W        W35435  11.657  13.618  16.125  0.2225  0.2232  0.2233
19542W        W35436   7.891   3.717   4.420  0.0864 -0.1003 -0.0560
19543W        W35437   3.445  10.893   4.838 -0.1439 -0.3839 -0.0594
19544W        W35438  12.193  12.653   3.519  0.1653  0.2591 -0.3328
19545W        W35439   4.482   7.134   2.303 -0.0619  0.0460 -0.2032
19546W        W35440   4.627  12.539  14.855 -0.3822 -0.2807 -0.2851
19547W        W35441  16.560   0.437  12.633  0.1699  0.0523 -0.1762
19548W        W35442  10.481   9.145  12.297 -0.0402  0.1529  0.2645
19549W        W35443   6.731   8.069   1.195 -0.0085 -0.0918 -0.1598
19550W        W35444   0.308   1.838   0.385 -0.0342 -0.1065  0.1547
19551W        W35445  12.979   8.655   0.585  0.2804 -0.0496 -0.1849
19552W        W35446  10.154   0.383  16.758  0.2238  0.3557  0.2155
19553W        W35447   9.503  11.642   4.909  0.1994  0.0876 -0.0084
19554W        W35448  15.261  15.721   0.068  0.0598 -0.3278  0.1477
19555W        W35449  12.904  17.272  12.799  0.2991 -0.0321  0.2099
19556W        W35450   8.419   4.005  15.170 -0.0754 -0.1622 -0.0558
19557W        W35451   4.337  14.884  11.940  0.2036  0.2638  0.2414
19558W        W35452   1.916   6.844   0.690  0.0626 -0.3146  0.2462
19559W        W35453  12.200   2.974  12.170 -0.2028 -0.1666  0.0287
19560W        W35454   6.177  12.380  14.974  0.2120  0.0530 -0.1934
19561W        W35455  10.059  17.714  12.275  0.2638 -0.3420  0.0438
19562W        W35456   2.838   8.689   1.245 -0.0312 -0.1734 -0.3946
19563W        W35457   9.785   9.162  16.321  0.1907  0.3581 -0.1872
19564W        W35458  10.114   1.473  11.542 -0.0715  0.1323 -0.0815
19565W        W35459   5.766  16.709  14.322 -0.1023  0.0232 -0.5228
19566W        W35460   7.813  15.156   4.499  0.0715  0.1939  0.0754
19567W        W35461   4.451  11.125  13.078  0.1418  0.2428 -0.0261
19568W        W35462  15.609   3.263  11.530 -0.1618 -0.3270 -0.2407
19569W        W35463   0.280   2.389  12.744 -0.1256  0.1523  0.0882
19570W        W35464   0.796  10.052  14.744  0.3966 -0.1927 -0.1386
19571W        W35465  12.876   5.667   2.472 -0.1886  0.1542  0.1563
19572W        W35466  15.780   6.250   3.668 -0.0318  0.1658  0.0053
19573W        W35467   3.632   8.563   2.235 -0.0564  0.2625  0.1317
19574W        W35468  15.674  13.849   0.206 -0.1550 -0.1142  0.0828
19575W        W35469   6.545  15.231  15.282  0.1618  0.0703  0.0722
19576W        W35470   6.438   3.290   1.834 -0.0400 -0.1176  0.3201
19577W        W35471   0.430  15.504   0.023 -0.1108  0.2257 -0.0641
19578W        W35472   6.502  10.716  14.990 -0.0037  0.2154 -0.1564
19579W        W35473   7.226   1.214  14.411  0.0417 -0.1623  0.1244
19580W        W35474   0.571   4.177   3.990  0.1564 -0.3102 -0.1438
19581W        W35475  12.910   3.859   2.024 -0.0171 -0.1985  0.0023
19582W        W35476   1.290  11.356   3.345 -0.0671 -0.1821 -0.1284
19583W        W35477  10.084   9.191   5.058 -0.0146  0.0474  0.1182
19584W        W35478   0.092  14.985  14.442  0.0271  0.0864  0.0163
19585W        W35479   9.908  16.206  12.769 -0.0697 -0.1677  0.1146
19586W        W35480  17.336   3.482  13.547  0.2184 -0.1519 -0.1699
19587W        W35481   1.348  16.264   1.026 -0.3325  0.0442  0.0777
19588W        W35482   4.477  14.231   3.966 -0.0630 -0.2497  0.3807
19589W        W35483   2.309  15.622  11.936  0.2134  0.1549 -0.2728
19590W        W35484   6.666   8.789   1.821 -0.1154  0.1784  0.0308
19591W        W35485  13.387   3.204  13.551  0.0098  0.0102 -0.0715
19592W        W35486  13.594   8.940   0.650  0.0982 -0.0411 -0.3722
19593W        W35487   5.386  14.736  16.582  0.0665 -0.0920 -0.2811
19594W        W35488   1.452  13.090  16.660 -0.2753 -0.0759  0.0226
19595W        W35489  11.762  12.952  12.344 -0.1803 -0.0041 -0.4764
19596W        W35490   5.877   6.704   3.381 -0.2200 -0.1252  0.0336
19597W        W35491  12.786  12.329  13.953  0.0515 -0.1269 -0.0399
19598W        W35492   1.418  17.165   5.080 -0.1177 -0.1989  0.0285
19599W        W35493  17.221  16.416  15.584 -0.0857 -0.0389  0.1358
19600W        W35494  17.074  13.555  13.593 -0.1354 -0.1266  0.1156
19601W        W35495   1.622   8.959  12.862 -0.0074 -0.1657  0.2764
19602W        W35496   7.564   6.655  15.466 -0.2197 -0.1005 -0.3201
19603W        W35497   0.585   9.232   4.088 -0.1742 -0.1524  0.2010
19604W        W35498  12.897   0.354   0.417  0.0631  0.0750  0.0025
19605W        W35499  11.002   5.064   3.182 -0.2135  0.1368 -0.1913
19606W        W35500  14.121   7.934   5.094 -0.0638  0.1680  0.1772
19607W        W35501  10.892   5.269  14.725 -0.6860  0.0421  0.1810
19608W        W35502   8.653   7.828   5.005  0.0645 -0.0043  0.0939
19609W        W35503   8.212  16.741   0.959 -0.1447 -0.1389  0.1993
19610W        W35504  11.547   6.336  13.265  0.0695  0.1271 -0.1372
19611W        W35505   5.813   2.173  11.719 -0.2546 -0.1209  0.1502
19612W        W35506   9.954  15.995   0.791  0.1327  0.1585  0.1095
19613W        W35507  14.793   0.995  13.965 -0.4448  0.1468 -0.2142
19614W        W35508  15.775  10.629   4.446  0.2016  0.1812  0.2632
19615W        W35509   3.058  10.994  13.572  0.3112  0.3444  0.2002
19616W        W35510   0.660  16.039  15.681 -0.0760  0.1595 -0.0547
19617W        W35511  11.240  17.413   2.732  0.0844  0.0224  0.2271
19618W        W35512   8.645  11.041  15.657  0.3450 -0.1220 -0.3824
19619W        W35513   2.191  12.320  15.634 -0.2507  0.1107  0.1437
19620W        W35514   7.043   1.689  13.485 -0.1949 -0.1779  0.1824
19621W        W35515  14.971  14.276  14.534 -0.1959 -0.1917 -0.0839
19622W        W35516   7.657  14.506   2.219  0.3070  0.2014  0.1558
19623W        W35517  10.266   3.208   2.464  0.0976  0.0458 -0.4703
19624W        W35518  13.363   1.856   0.483  0.0823  0.1806 -0.0185
19625W        W35519   1.967  17.329   0.833 -0.0012  0.2507  0.1888
19626W        W35520  11.578  15.490  16.545  0.1673 -0.1259  0.1617
19627W        W35521   4.949  16.869  14.267  0.4631  0.1447  0.0357
19628W        W35522   7.610   7.119  15.813  0.4281 -0.3129 -0.0481
19629W        W35523  12.234  15.218   2.455  0.1496 -0.3295  0.0836
19630W        W35524  14.915   3.904  15.453 -0.1586 -0.2044  0.1385
19631W        W35525   6.017   1.081   4.646  0.0078  0.0184 -0.1437
19632W        W35526  14.163   4.488   2.812 -0.1132 -0.0579  0.3081
19633W        W35527   7.045  11.306   6.132  0.0551 -0.0322 -0.0129
19634W        W35528  10.536   1.538   2.275  0.1268 -0.0564 -0.0093
19635W        W35529  15.856  15.032  12.465 -0.1778  0.1732  0.2704
19636W        W35530  13.417  17.838  11.554 -0.1097  0.1835 -0.0423
19637W        W35531  12.719   3.773   3.886 -0.2051 -0.1053 -0.2871
19638W        W35532   9.138  11.473   4.485  0.1178  0.1709  0.0610
19639W        W35533   8.385  10.783  11.665 -0.0767  0.2176 -0.1230
19640W        W35534  11.204   8.059   0.103  0.0013 -0.0062  0.1312
19641W        W35535  13.538  12.515   4.055 -0.0978  0.0832 -0.2565
19642W        W35536   6.460  10.573  14.503 -0.0284  0.0160 -0.3383
19643W        W35537   8.630  11.477   3.160  0.2460  0.0564  0.1722
19644W        W35538  12.101  13.290   0.093 -0.1126  0.2612 -0.1764
19645W        W35539   8.125   7.196   4.593 -0.1831 -0.0642 -0.1029
19646W        W35540   6.238   3.443   3.086 -0.3170  0.0566  0.0530
19647W        W35541  15.986  10.679  12.597  0.1598 -0.0051  0.1304
19648W        W35542  15.935   2.801   4.305  0.1385 -0.1238 -0.3626
19649W        W35543   7.321   5.564   4.427  0.0095  0.1232 -0.1177
19650W        W35544   4.484   3.860   2.484  0.1068  0.1543 -0.3154
19651W        W35545  14.815  12.354  15.720 -0.1126 -0.1035  0.1258
19652W        W35546   6.548   2.535   1.095  0.0453  0.0731  0.3745
19653W        W35547  15.259   7.358  15.709  0.0380 -0.3903  0.2790
19654W        W35548   1.333  13.088   3.615 -0.0649 -0.1498  0.0122
19655W        W35549   1.934  15.522  12.680 -0.1080 -0.0257  0.0926
19656W        W35550   3.059  14.875   0.129  0.0289  0.2321  0.0679
19657W        W35551   7.359  10.772  15.295  0.2910 -0.3024  0.1579
19658W        W35552   1.023   9.295   5.652 -0.0272  0.0611 -0.0930
19659W        W35553   2.317   3.651   1.434 -0.0243 -0.0207  0.2185
19660W        W35554   2.756   1.336   3.778 -0.1523  0.0138  0.0075
19661W        W35555   2.687  11.122   0.580  0.0475 -0.1505  0.1810
19662W        W35556  17.224  11.590  15.916  0.0110  0.2178 -0.0706
19663W        W35557   1.429  16.249   2.015  0.0054  0.1122  0.0774
19664W        W35558   8.411  11.906  16.630  0.0122  0.3112 -0.0312
19665W        W35559   1.916   1.085   0.827 -0.3147  0.0962 -0.1327
19666W        W35560   9.734  17.373   4.668 -0.2568  0.0886 -0.1469
19667W        W35561   2.757  12.245   2.446 -0.1346 -0.2110  0.1023
19668W        W35562   0.455  10.673  12.410 -0.0832  0.1856 -0.1353
19669W        W35563   9.149   7.864   4.343 -0.0159  0.1475 -0.0538
19670W        W35564  10.411   8.088  15.594 -0.2502 -0.0750  0.0100
19671W        W35565   8.164   2.407   0.816 -0.1390 -0.2294 -0.2943
19672W        W35566   3.812  10.947  15.876  0.0860 -0.1964  0.1053
19673W        W35567  17.020  16.374   4.202 -0.2377  0.1448  0.0945
19674W        W35568  14.333  17.033  16.389  0.1072 -0.1242  0.0636
19675W        W35569  17.597   7.239   3.589  0.0632  0.0916 -0.0986
19676W        W35570   2.595  10.349  15.933  0.0791  0.2160 -0.0198
19677W        W35571  13.990   6.502   5.491 -0.0161 -0.1208  0.0096
19678W        W35572  15.385   2.650  12.291  0.0265 -0.1457 -0.1396
19679W        W35573   6.331   7.521   3.601 -0.1013 -0.1421 -0.3715
19680W        W35574   5.950   5.739   2.505  0.2737  0.1510 -0.2076
19681W        W35575   5.624  10.730  15.484 -0.1626 -0.1167  0.1277
19682W        W35576  13.069   5.828   0.355  0.0817  0.1536  0.0891
19683W        W35577   9.323  11.840  11.835 -0.0577  0.1818 -0.0236
19684W        W35578   4.828   8.687   2.989 -0.0904  0.0871 -0.1255
19685W        W35579   5.502  14.106   4.059  0.0890 -0.0933  0.0287
19686W        W35580  12.994  14.229  14.856  0.6732 -0.1757  0.2135
19687W        W35581  13.514   1.742  14.710  0.1401  0.0302 -0.0952
19688W        W35582  16.792   7.590   5.044  0.3411  0.2071 -0.0676
19689W        W35583   9.583   0.444  16.897 -0.0090  0.0335  0.1348
19690W        W35584   5.107   7.756   4.649 -0.0078 -0.0735 -0.3480
19691W        W35585   2.190  12.114  12.166  0.1903  0.1044 -0.0509
19692W        W35586  16.611   6.323   3.014 -0.2436  0.2149 -0.1208
19693W        W35587   3.422   5.653  12.335  0.0000 -0.0152 -0.1007
19694W        W35588   3.393  12.971  16.544 -0.4358  0.5560 -0.2688
19695W        W35589  16.102  10.900  12.098  0.0373  0.0752 -0.2008
19696W        W35590   7.008   0.244  14.410  0.1375 -0.1218  0.0786
19697W        W35591  10.618   2.891  12.592 -0.0396  0.2586 -0.1730
19698W        W35592   1.681  12.695  14.935 -0.1429 -0.0428 -0.0578
19699W        W35593   0.221  10.279   5.681 -0.1355  0.2770  0.4182
19700W        W35594   3.063   1.195  16.030 -0.0032 -0.3256 -0.1029
19701W        W35595   7.265  15.388  15.287  0.1041  0.3672  0.2742
19702W        W35596   9.581  11.962  12.793 -0.1096  0.2232 -0.2321
19703W        W35597   8.131   5.876  14.046  0.2328  0.0285  0.0480
19704W        W35598   4.592  14.101   2.513  0.1160 -0.0007 -0.2319
19705W        W35599  12.605   5.986  12.850  0.0886 -0.0335 -0.0497
19706W        W35600  16.554   0.816   3.696  0.0671  0.2744 -0.0180
19707W        W35601  12.170  14.859   5.919  0.2259 -0.1991 -0.0139
19708W        W35602   0.679   2.498   4.109  0.1907  0.1406 -0.1173
19709W        W35603   7.885  17.689   2.809  0.1643  0.0318 -0.3550
19710W        W35604   5.519   3.729   3.874 -0.1516 -0.2063  0.0436
19711W        W35605   9.429  13.805   1.066  0.1793 -0.1241 -0.1773
19712W        W35606  15.134  14.284   4.575 -0.2597 -0.1666 -0.1254
19713W        W35607  17.288   8.081   5.863  0.0141 -0.1706 -0.1472
19714W        W35608   9.118  16.254   4.022 -0.0354  0.2963  0.1353
19715W        W35609   3.035  11.665  13.930  0.3015 -0.1621  0.1341
19716W        W35610  10.439   6.392  15.346  0.3579 -0.5829  0.0231
19717W        W35611  16.331  17.819   4.309 -0.3994 -0.0513  0.4606
19718W        W35612  11.187   4.937  15.939 -0.1847 -0.0461  0.0856
19719W        W35613   9.154   2.265  16.088  0.3371  0.0964 -0.0022
19720W        W35614   3.579   4.119  14.130  0.2281 -0.0046 -0.0590
19721W        W35615  16.010   4.197   3.664  0.0213 -0.1606  0.1083
19722W        W35616   1.030   6.378   0.435  0.1352  0.1188  0.2396
19723W        W35617  16.615  16.548   3.303  0.0501 -0.0093 -0.0797
19724W        W35618   7.506   7.792   3.976 -0.0341 -0.2547 -0.0798
19725W        W35619   2.280   2.889  13.731  0.0888 -0.2092 -0.0695
19726W        W35620   8.947   8.834  12.571  0.0317 -0.0017  0.1880
19727W        W35621   6.034  17.196  16.371  0.4226 -0.0592  0.0694
19728W        W35622  13.766   8.322  14.849 -0.1583 -0.0732  0.2295
19729W        W35623   1.810   2.545  15.040  0.2086  0.1354 -0.1409
19730W        W35624  11.972   3.908  13.574  0.2083 -0.1499 -0.1771
19731W        W35625   4.435  13.684  13.119  0.2050 -0.1773 -0.1616
19732W        W35626  13.508  12.373  15.244 -0.1873  0.1457 -0.2824
19733W        W35627  11.080   0.619  14.974  0.1040  0.3958  0.2002
19734W        W35628  10.572  11.434  14.236  0.3695 -0.3429  0.0894
19735W        W35629   2.854  10.534  13.775 -0.5305 -0.0895  0.3572
19736W        W35630  13.633   9.436  14.130 -0.0357  0.0620  0.1126
19737W        W35631   4.371  14.446   6.113  0.1975  0.1998 -0.0050
19738W        W35632   7.921   4.049  15.052 -0.0387 -0.2422  0.1883
19739W        W35633  16.623   3.735   2.705 -0.0564 -0.0250 -0.0936
19740W        W35634   6.383   5.870   3.762  0.0286  0.0876 -0.3793
19741W        W35635  10.814  11.053  15.128 -0.2230  0.2818  0.3289
19742W        W35636  10.904  12.877  15.671  0.0217 -0.1174  0.0868
19743W        W35637  10.548   3.636   5.555 -0.2052 -0.2550  0.2592
19744W        W35638   4.178   9.346  16.808  0.3300 -0.2492  0.2233
19745W        W35639  12.452   3.747   4.863 -0.1550  0.0405 -0.1873
19746W        W35640   6.799   0.059   5.198 -0.2038 -0.0236 -0.0250
19747W        W35641   5.988  10.752   1.177 -0.0226  0.1106  0.2514
19748W        W35642   3.042  10.526   1.265 -0.0799 -0.1996 -0.2111
19749W        W35643  13.480   2.219   4.738  0.0569 -0.0630 -0.0338
19750W        W35644   5.744  16.717  15.473 -0.0795 -0.0715  0.1285
19751W        W35645  13.753   5.526  11.260  0.0069  0.0125  0.0731
19752W        W35646  12.865  10.101  15.257 -0.1259 -0.0012  0.3784
19753W        W35647   9.583   6.954   1.598 -0.0792 -0.0367  0.1674
19754W        W35648   6.018   3.455   2.236  0.0513 -0.2074 -0.2498
19755W        W35649   9.232   4.614   5.228 -0.2790  0.0272 -0.0623
19756W        W35650   0.427   5.576  11.591 -0.0179 -0.1410  0.3243
19757W        W35651  16.215   0.456  12.991  0.0219  0.2089 -0.1661
19758W        W35652   9.140   0.355   1.660 -0.0182  0.2212 -0.3300
19759W        W35653   1.700   1.675  10.043  0.0407 -0.1179 -0.2045
19760W        W35654  10.503  16.026  14.823 -0.0401 -0.1217 -0.2387
19761W        W35655   7.826  16.308   5.284  0.0377 -0.0056  0.2479
19762W        W35656  11.561  12.855   4.120 -0.3600  0.1447  0.1396
19763W        W35657  11.418  16.241  15.148 -0.2237 -0.0292 -0.1301
19764W        W35658   1.749   8.156  14.362  0.0829  0.2079  0.0840
19765W        W35659  16.347  16.097  15.265 -0.0225  0.0087  0.4493
19766W        W35660   9.580   1.175   2.345 -0.2748 -0.1554 -0.1214
19767W        W35661  14.173   6.798  16.303  0.3348 -0.3944 -0.1919
19768W        W35662  17.650  12.800   5.772 -0.1075  0.0915 -0.3119
19769W        W35663   3.834  12.738   2.566  0.0423 -0.0586 -0.3592
19770W        W35664   4.391  13.289  15.695 -0.0242  0.3481 -0.2248
19771W        W35665   8.098  15.395   1.458  0.1852  0.2341  0.0107
19772W        W35666   8.382  12.934   0.700  0.1662  0.2056 -0.1636
19773W        W35667   7.450   2.249  14.667 -0.1238  0.2730  0.0506
19774W        W35668   6.446  11.944   3.314 -0.1986  0.0100  0.0734
19775W        W35669  16.512  15.766  11.065  0.3020  0.2714  0.0142
19776W        W35670   4.100   5.441  16.539 -0.2314  0.0356 -0.0467
19777W        W35671   4.729   5.816  15.812  0.1289 -0.2128  0.0294
19778W        W35672  10.810   7.513   0.492 -0.1986  0.0917  0.1257
19779W        W35673   4.700   2.829  14.793 -0.0674  0.1117 -0.3405
19780W        W35674   2.834  12.101   5.332  0.2376 -0.1905  0.1239
19781W        W35675  14.701  10.781   0.224 -0.0224  0.2971  0.0189
19782W        W35676   2.349   3.158  11.571 -0.1132  0.4093 -0.2334
19783W        W35677   5.068  16.880   2.934 -0.1643 -0.0242 -0.0356
19784W        W35678  16.142  13.672   6.008 -0.0139  0.1182 -0.3354
19785W        W35679  14.630  10.367  13.820  0.1478 -0.1770 -0.1506
19786W        W35680  13.363   5.940   6.320 -0.0122 -0.1453  0.2554
19787W        W35681   3.393   9.743  16.412  0.2298  0.2786 -0.2949
19788W        W35682  16.504   6.790   2.602 -0.2338  0.1255 -0.3680
19789W        W35683   0.532   0.801   5.328 -0.0341 -0.0121 -0.1574
19790W        W35684  17.198   1.458   3.407  0.1162 -0.0107 -0.0824
19791W        W35685  16.371  17.851   2.642  0.1002 -0.0489 -0.0100
19792W        W35686   8.468  11.315   1.473  0.3145  0.0131  0.2148
19793W        W35687  15.704  11.102   0.960  0.0125 -0.1534  0.0574
19794W        W35688  14.042   8.932   4.581 -0.1415 -0.2658  0.0319
19795W        W35689  15.477  11.992  12.657  0.1001  0.2584 -0.0825
19796W        W35690   2.824  11.289  13.152 -0.0945 -0.1578  0.1985
19797W        W35691   0.087  11.641   4.074 -0.0196 -0.2918  0.0032
19798W        W35692   3.157  13.062   1.361  0.4176 -0.1280 -0.2144
19799W        W35693   4.334   7.425   0.136 -0.1974 -0.1743  0.1557
19800W        W35694   3.709  16.252   3.095  0.0459  0.0998  0.1595
19801W        W35695  11.624   8.539   2.908  0.1018  0.0666 -0.2582
19802W        W35696   3.621  12.224   4.031  0.0127  0.1131 -0.2462
19803W        W35697   3.277   9.627  11.739 -0.3110  0.2532 -0.1645
19804W        W35698  17.694  13.530  12.313  0.3927  0.0982 -0.1509
19805W        W35699   1.714  12.055   2.524  0.1924  0.0776 -0.1004
19806W        W35700   3.192   8.279  15.637  0.1760 -0.0295 -0.1592
19807W        W35701  13.420  17.572   0.688 -0.0266 -0.0957  0.1627
19808W        W35702   9.843   6.317  12.112  0.2087  0.3554  0.1035
19809W        W35703  16.794   9.115   0.227  0.2430  0.2482  0.1759
19810W        W35704   0.856   2.006   0.485 -0.1268 -0.0188 -0.2824
19811W        W35705   3.897   9.486  13.665  0.1702  0.1343 -0.0810
19812W        W35706  16.450  10.801   5.120 -0.2185  0.3335 -0.0983
19813W        W35707  12.200   5.745   1.067  0.4092  0.0908 -0.1670
19814W        W35708  14.824  14.238   3.786 -0.0346  0.1507  0.2919
19815W        W35709   4.398   1.334   3.913 -0.1213 -0.2052  0.0385
19816W        W35710   4.242   6.252  16.360 -0.2051 -0.1389 -0.0464
19817W        W35711  10.771  16.583   4.939  0.0432 -0.1147  0.1057
19818W        W35712  16.861   4.973  11.845  0.2919 -0.1606 -0.0880
19819W        W35713   4.447   6.352   1.054 -0.0919 -0.0244 -0.0851
19820W        W35714   1.688   3.089  15.153  0.1837  0.0532 -0.1838
19821W        W35715   0.213   6.194  15.733  0.2534  0.0132  0.1345
19822W        W35716  10.711   9.956  15.852 -0.2855  0.1334 -0.0432
19823W        W35717   0.588   8.553   6.019  0.0173 -0.1596 -0.0588
19824W        W35718  16.165  14.813  14.157  0.0251  0.1239 -0.2700
19825W        W35719  17.045  10.683  12.357  0.3133  0.1144  0.1674
19826W        W35720   7.622  17.480  13.673  0.0920  0.0714  0.0913
19827W        W35721   6.022   2.063   2.461 -0.2222  0.1473  0.1776
19828W        W35722   1.228   6.546   5.627  0.1045  0.2251  0.0879
19829W        W35723   7.706  15.840   2.764 -0.2826  0.1354 -0.0125
19830W        W35724  11.685   2.823  16.400 -0.1923  0.0818 -0.1765
19831W        W35725  11.702   3.801   2.847 -0.1648 -0.2121 -0.1894
19832W        W35726  10.647  11.908  13.706 -0.4425  0.1565  0.2533
19833W        W35727   0.715   4.309  11.920  0.2345  0.2907 -0.0609
19834W        W35728  13.090  16.498   2.896  0.0625  0.2299  0.1419
19835W        W35729   8.490   8.828  16.882  0.2240  0.0734  0.0902
19836W        W35730   5.977   4.112   5.583 -0.1523  0.0741  0.0317
19837W        W35731  17.770   6.218   3.660 -0.1094  0.2137 -0.1026
19838W        W35732  12.213  14.987   3.652  0.0639 -0.0728 -0.0903
19839W        W35733  16.384  13.000   5.441  0.3509  0.2579 -0.1943
19840W        W35734   8.563   8.361  14.280 -0.0657  0.0684 -0.3510
19841W        W35735   5.798  17.001  15.941  0.1451 -0.1869  0.0486
19842W        W35736  15.499   5.436  13.015  0.1424  0.0427  0.0020
19843W        W35737   2.719  11.804   2.149 -0.1462  0.0096 -0.0888
19844W        W35738  13.172   9.223  15.851  0.3448  0.1428 -0.0187
19845W        W35739   6.410   2.624   3.399 -0.2918 -0.1577  0.1098
19846W        W35740   6.555  17.040   1.773 -0.2135 -0.0873 -0.1743
19847W        W35741  12.712   1.896   2.538  0.1493  0.1313  0.1466
19848W        W35742   0.267  12.508  13.609 -0.0801  0.0758  0.1488
19849W        W35743   2.384  11.424   5.978 -0.1799  0.1805  0.1818
19850W        W35744  17.708  11.261   3.719  0.0448 -0.3761  0.3628
19851W        W35745   8.311   1.490  13.637  0.0951  0.1710 -0.0730
19852W        W35746   1.486  14.430   5.459 -0.0914 -0.3436 -0.2364
19853W        W35747   0.146  17.529  11.439 -0.0092  0.2025  0.2924
19854W        W35748  11.305   4.360   3.256 -0.0880  0.1374 -0.0583
19855W        W35749  13.729  10.929   5.770 -0.3672 -0.0159  0.0508
19856W        W35750  11.627   8.170  15.627 -0.0874  0.3322  0.1671
19857W        W35751   3.432  13.343   5.129 -0.1684  0.1364  0.3535
19858W        W35752   9.725  10.624   1.523 -0.0650  0.2461  0.0722
19859W        W35753   8.636   3.996   1.986 -0.1453 -0.1538  0.1130
19860W        W35754  17.401   1.161   2.197  0.0126  0.0615 -0.0734
19861W        W35755   4.151   2.410   1.466  0.1300 -0.3209  0.2225
19862W        W35756   4.219  10.231  12.258  0.2262 -0.0004 -0.2329
19863W        W35757   6.923  11.733  14.731  0.2113 -0.1826 -0.0674
19864W        W35758  10.447   6.320   3.236 -0.2502 -0.0197 -0.3250
19865W        W35759   2.771  17.316  16.772 -0.1737  0.0638  0.3781
19866W        W35760   0.831   3.008   5.313  0.0950 -0.1229 -0.0044
19867W        W35761   6.692   4.793   3.183 -0.1926  0.1653 -0.3092
19868W        W35762  14.511   1.051  11.410  0.0378 -0.2285 -0.3370
19869W        W35763   7.753   0.024   1.258 -0.2529 -0.3041  0.2030
19870W        W35764  16.810  15.086   2.946 -0.0859  0.1357  0.1231
19871W        W35765  14.040  14.155   5.323 -0.2263 -0.2706  0.0005
19872W        W35766   9.620  10.614  16.395  0.2203  0.0498 -0.0419
19873W        W35767  10.783   9.237   2.016  0.0918  0.0945  0.2486
19874W        W35768   6.457   3.803  12.351 -0.2783 -0.2799 -0.1158
19875W        W35769   8.262   2.682   0.362  0.1791  0.3282  0.2501
19876W        W35770   5.070  16.083   3.436  0.0857  0.0987  0.3306
19877W        W35771   1.296   5.625  11.231 -0.1414 -0.3512  0.0231
19878W        W35772  13.127  11.097   4.669 -0.0400 -0.4733 -0.0466
19879W        W35773  14.933   1.735   0.950 -0.0041 -0.0249 -0.0461
19880W        W35774  14.725   0.365   1.471  0.0704  0.1004  0.2021
19881W        W35775   3.595  12.998   0.289 -0.1689 -0.2248 -0.0080
19882W        W35776   6.443   7.469   4.582 -0.2451  0.1110  0.1009
19883W        W35777  10.392   0.375  12.315  0.0640 -0.2418 -0.1016
19884W        W35778   6.024  16.203  14.398  0.2206  0.3769  0.3698
19885W        W35779   7.384   7.233  13.744  0.0883 -0.1449  0.1666
19886W        W35780  13.822  11.791  13.138  0.0204  0.0598 -0.0471
19887W        W35781   1.490   3.123  16.127 -0.2605  0.1441 -0.2855
19888W        W35782  14.752  11.587   2.911 -0.0663 -0.4024  0.1183
19889W        W35783  15.198   8.465   5.548 -0.1734  0.4127 -0.0279
19890W        W35784  17.791   7.416   3.053  0.0267  0.2431 -0.2226
19891W        W35785  15.254  11.243  15.486 -0.0312  0.0605  0.1104
19892W        W35786  16.613  10.472  16.276  0.2917 -0.1438 -0.1742
19893W        W35787  16.126  10.701   5.513 -0.3925  0.5929 -0.0150
19894W        W35788   1.373  16.399   3.336 -0.0149  0.0122  0.1648
19895W        W35789  12.520  16.917   1.930 -0.0703 -0.0024  0.0287
19896W        W35790   9.702  16.259  13.564  0.0514  0.0165 -0.1856
19897W        W35791   7.953   1.712   3.482 -0.0468  0.0332 -0.1126
19898W        W35792  10.335  11.800   3.769  0.1064 -0.0744 -0.1447
19899W        W35793  17.663   8.736  14.389  0.0447 -0.1234  0.0806
19900W        W35794   9.712   3.510   4.130  0.0512  0.3183 -0.0112
19901W        W35795   7.475   8.840  12.534 -0.0719 -0.0055  0.0543
19902W        W35796   1.145   9.031  15.925 -0.0441  0.0408  0.0924
19903W        W35797   4.651   7.306   1.000 -0.1785 -0.0975  0.1243
19904W        W35798  17.754   3.818   1.587  0.0609  0.0696  0.1785
19905W        W35799  14.434   1.936   1.240 -0.2227 -0.0458  0.3088
19906W        W35800  11.702  11.020   0.483  0.0974 -0.3993 -0.0980
19907W        W35801   5.655  16.342  15.177 -0.3048  0.3511 -0.0907
19908W        W35802   6.575   3.570  11.284 -0.2833 -0.1913 -0.0622
19909W        W35803   7.521   1.853  15.870  0.0770  0.1376 -0.0081
19910W        W35804  12.348   0.240   5.103 -0.2540  0.1686  0.3051
19911W        W35805   6.880   2.103   2.177 -0.2428  0.1353 -0.0286
19912W        W35806  12.780   9.039  16.521  0.0607 -0.1087  0.2468
19913W        W35807   0.424  15.839   3.266  0.0170  0.0764  0.1333
19914W        W35808   7.470   1.892  13.785  0.0311  0.3236 -0.1850
19915W        W35809  16.830   8.656   4.792  0.0525 -0.0042  0.1123
19916W        W35810   5.582   4.265  12.391  0.0309  0.2415 -0.0133
19917W        W35811  16.546  11.738  15.127  0.1778  0.1195  0.0984
19918W        W35812  14.949   7.764   2.923  0.0228  0.3120 -0.1041
19919W        W35813   9.303  13.814  13.634 -0.0173 -0.2002  0.2410
19920W        W35814  17.455  10.408  10.965  0.0062  0.0714  0.0452
19921W        W35815   6.077   4.376  15.559  0.2335 -0.0717  0.0236
19922W        W35816  10.673   9.990   5.548  0.2973 -0.1828  0.0976
19923W        W35817   1.905  14.240   5.700 -0.0252  0.0780  0.0358
19924W        W35818   4.752  14.233   3.555  0.1507 -0.1561  0.4756
19925W        W35819   5.132   4.530   0.854  0.2813 -0.3558 -0.0908
19926W        W35820   8.473  11.587   1.890  0.0130  0.0653  0.1114
19927W        W35821  10.341  14.913  15.592  0.0291  0.4101 -0.0152
19928W        W35822   1.893   4.129   4.929 -0.1366  0.0867 -0.0559
19929W        W35823  17.054   2.223  16.364  0.2619 -0.1672 -0.1049
19930W        W35824   5.437   9.816  16.629  0.1205  0.1423  0.0836
19931W        W35825  14.034   9.453   2.710  0.0594  0.0912 -0.2764
19932W        W35826   4.454   6.121  10.939 -0.0940 -0.1383 -0.0365
19933W        W35827   9.686   2.151   3.638 -0.1977 -0.0388 -0.1720
19934W        W35828   8.014  10.464  14.317 -0.1799  0.1648 -0.2939
19935W        W35829  17.077  13.471  12.926  0.0369 -0.1779  0.3990
19936W        W35830  17.153   2.934   0.286  0.2305  0.1160 -0.0332
19937W        W35831   2.403  15.998  16.101  0.1141 -0.1653  0.0387
19938W        W35832   3.729   6.613  16.809 -0.0609 -0.1263  0.1305
19939W        W35833   0.994   4.011   2.459  0.0110  0.1998  0.0258
19940W        W35834   8.430   0.983   3.193 -0.0793  0.1193 -0.0363
19941W        W35835   5.543   1.835  12.036  0.2006 -0.0774 -0.0516
19942W        W35836   4.463   3.418   1.560  0.1230 -0.0938  0.2443
19943W        W35837   5.903  10.374  13.274 -0.3683  0.1913 -0.0623
19944W        W35838   6.794   2.014  12.100  0.0756  0.1589  0.1121
19945W        W35839   2.106  17.779  13.032 -0.1106  0.1838 -0.0917
19946W        W35840   0.428  13.791  15.608 -0.2966 -0.3080  0.1288
19947W        W35841   5.218   7.326   0.530 -0.0915  0.0349 -0.2603
19948W        W35842  15.180   6.033   2.231  0.0986 -0.0406 -0.1347
19949W        W35843  17.849   3.695   0.545  0.0624  0.1049 -0.0210
19950W        W35844  14.302  15.359  12.909 -0.0977  0.1781 -0.0569
19951W        W35845   7.632   6.856   1.278 -0.0314  0.2101  0.2882
19952W        W35846  12.013   5.782   5.723  0.0681  0.1789  0.0570
19953W        W35847   8.062   9.702   3.524  0.1246  0.0169 -0.0547
19954W        W35848   1.431   8.954  15.525 -0.0663 -0.1141 -0.2934
19955W        W35849   8.397   5.720   6.065  0.0596 -0.4543  0.0640
19956W        W35850   7.376  11.366   5.708  0.1263 -0.3056  0.0011
19957W        W35851   7.654  13.679   2.818 -0.1259  0.0802  0.0460
19958W        W35852   7.383   8.607  15.434  0.0769  0.0211 -0.0459
19959W        W35853  16.019   8.724   0.617 -0.1510 -0.2543  0.2105
19960W        W35854   1.019  11.490   0.254 -0.2479 -0.1266 -0.1481
19961W        W35855   5.346  16.627   6.084  0.0940  0.1200 -0.1257
19962W        W35856  13.592   5.267   0.641 -0.2067  0.1053  0.1938
19963W        W35857   8.577  13.310  13.596  0.0906 -0.1870 -0.0083
19964W        W35858  15.117  12.974   1.157  0.4182 -0.0982  0.0738
19965W        W35859   0.064  13.048  16.909  0.3426  0.2564 -0.5108
19966W        W35860   4.351   2.829  16.666 -0.0704 -0.4058  0.1494
19967W        W35861  13.756   6.287  14.330  0.2930  0.3311  0.0287
19968W        W35862  16.210   0.829  15.043 -0.2124 -0.2995 -0.0924
19969W        W35863  13.853   0.876   2.154  0.0187  0.2061 -0.2816
19970W        W35864  10.334   4.480  16.081  0.4030 -0.0168 -0.0881
19971W        W35865   0.721   8.825  12.136 -0.3080  0.0181  0.2969
19972W        W35866  11.691   8.490  12.486  0.0530 -0.3315 -0.1796
19973W        W35867   6.608   4.066   2.437 -0.1711 -0.1325  0.3330
19974W        W35868   7.972  14.657   2.688 -0.0115 -0.2527  0.0506
19975W        W35869   4.130  13.630  12.751 -0.0998  0.0058  0.1940
19976W        W35870   5.681   1.434  14.827  0.1504  0.0812  0.0920
19977W        W35871   4.680  11.569  16.331  0.2331  0.4715  0.2516
19978W        W35872   5.113  14.649   4.918  0.1023  0.0496  0.2531
19979W        W35873  11.133  11.601  13.784 -0.1098  0.0685  0.1682
19980W        W35874   5.350   4.995  14.195 -0.1897  0.1564  0.1190
19981W        W35875  11.748   1.891  15.546 -0.2644 -0.1735  0.0865
19982W        W35876  13.062   3.581   2.511  0.0701 -0.0197 -0.0162
19983W        W35877   3.860   3.974  12.016 -0.0718  0.1374 -0.1942
19984W        W35878   6.885   9.292  16.861 -0.0260  0.3746  0.1414
19985W        W35879   5.865  13.917  12.271 -0.0484  0.1925 -0.1109
19986W        W35880  10.566  15.682  13.439 -0.0815  0.2387 -0.1568
19987W        W35881   3.861   4.797  15.182 -0.0461  0.2508 -0.1274
19988W        W35882   8.556   5.068   2.437 -0.0626  0.0517 -0.1695
19989W        W35883  13.479  10.765   2.053 -0.1689  0.1910  0.0515
19990W        W35884  13.351   8.813   3.835 -0.1570 -0.2176 -0.0454
19991W        W35885  11.643   8.111   5.308 -0.1221  0.0083  0.2076
19992W        W35886   5.594  17.673   0.292 -0.1719 -0.0700 -0.1137
19993W        W35887  13.317  15.992  14.066  0.0541 -0.0011  0.0117
19994W        W35888   6.807  10.021   4.754  0.0928 -0.1152  0.2566
19995W        W35889  16.952   2.491   0.449 -0.0040 -0.1169  0.1126
19996W        W35890   1.883   9.376   0.871  0.1379 -0.0253 -0.1715
19997W        W35891   5.663   0.412   5.261 -0.1701 -0.0472 -0.2573
19998W        W35892   5.701   8.866   1.523  0.0545 -0.1612 -0.3468
19999W        W35893   4.937   1.358   1.934 -0.0482  0.1863  0.1762
20000W        W35894   8.890   3.429  16.762 -0.4040  0.1489 -0.1598
20001W        W35895  12.525   1.057   3.459 -0.0606 -0.0135 -0.0322
20002W        W35896  13.592   2.881   4.559 -0.2487  0.0240 -0.1073
20003W        W35897   7.958  10.674  11.281  0.0021 -0.1564  0.0518
20004W        W35898   7.558  15.085  16.546 -0.2017  0.1568 -0.1863
20005W        W35899   3.870  15.053  13.250  0.0526  0.1104  0.4031
20006W        W35900   9.531  17.330  15.088  0.1715  0.4305  0.1116
20007W        W35901  10.011   5.376  12.477  0.1327 -0.0734 -0.0944
20008W        W35902  14.994  17.847   3.550  0.0396  0.0157 -0.1539
20009W        W35903   2.998  10.043  13.383 -0.2320  0.1076 -0.0806
20010W        W35904  16.014  10.215   1.062 -0.1876 -0.3792  0.0952
20011W        W35905  15.038   1.276   0.170 -0.0848  0.0003 -0.0742
20012W        W35906   3.010   1.432   0.106  0.1920 -0.1525  0.0613
20013W        W35907   3.735   7.403  14.737  0.2390  0.1654  0.0826
20014W        W35908  15.502   5.925  13.717 -0.0020  0.0018  0.1701
20015W        W35909   6.224   7.504  16.015 -0.0789  0.1708 -0.1613
20016W        W35910   0.508  14.351   0.606 -0.2918 -0.0401  0.1154
20017W        W35911   6.471  10.710   3.932 -0.1279 -0.1885 -0.0472
20018W        W35912  14.079   6.438  13.595  0.1450  0.0980 -0.0643
20019W        W35913  16.394   8.019  12.541 -0.0049 -0.2882  0.0598
20020W        W35914  17.772   1.334  14.004  0.0820  0.1112 -0.0449
20021W        W35915   8.996   6.887   0.228 -0.1521  0.0418  0.0816
20022W        W35916  13.721  16.959  11.741 -0.1642 -0.3246  0.2449
20023W        W35917   8.089  17.018  12.787  0.0700  0.2310  0.0412
20024W        W35918  17.460   2.773   2.795  0.1469 -0.0900  0.5580
20025W        W35919   3.665  10.668  13.154  0.3426  0.1545 -0.1637
20026W        W35920  13.465  16.999  14.239  0.0367 -0.2057  0.0640
20027W        W35921   9.719   9.830   5.126 -0.0863  0.0091 -0.0395
20028W        W35922   0.137   5.674  12.087 -0.2619 -0.3121 -0.0127
20029W        W35923   0.796   6.382  11.423  0.2620 -0.1261  0.0571
20030W        W35924  17.388   7.846   4.378 -0.1906  0.0513 -0.0154
20031W        W35925   4.861   2.829   4.971 -0.0833 -0.0520 -0.0374
20032W        W35926  10.140   5.168  13.357  0.0827 -0.2632  0.1221
20033W        W35927   8.882  17.659  13.950  0.2191  0.1825  0.1116
20034W        W35928   1.590  17.520   1.744 -0.1753 -0.2393  0.2017
20035W        W35929   5.232  14.112  15.835 -0.0731  0.0347 -0.1123
20036W        W35930  12.773  13.244  13.745 -0.1294  0.0269 -0.1729
20037W        W35931   4.071   3.097   4.503  0.1240 -0.0119  0.2577
20038W        W35932  12.834   9.825   6.175 -0.0751  0.1610  0.2725
20039W        W35933  14.756   2.154   5.574  0.2529 -0.0040  0.0148
20040W        W35934   7.337   9.561   0.055 -0.2177 -0.2243  0.1530
20041W        W35935  16.720   2.826  10.063  0.2475  0.1348 -0.0002
20042W        W35936   7.174   2.368   4.126  0.1925  0.1768 -0.0939
20043W        W35937  15.278   8.001   5.742  0.0722 -0.2520 -0.3320
20044W        W35938   5.721   9.932   5.446 -0.1430  0.0606  0.3009
20045W        W35939  16.558   6.870  11.769 -0.2704  0.0226 -0.0597
20046W        W35940   7.352   0.052  16.723 -0.1494  0.0869  0.0702
20047W        W35941  14.892  11.469   0.959 -0.0872  0.3375 -0.0196
20048W        W35942   4.482  17.642   3.901  0.2633 -0.3391 -0.0668
20049W        W35943   1.620  15.043   3.177  0.0595 -0.1108  0.1696
20050W        W35944   1.483   9.466  15.936  0.3180  0.1663  0.0067
20051W        W35945   0.838  12.941  15.367 -0.0318 -0.2518 -0.1452
20052W        W35946   7.439  11.063  12.016 -0.0007 -0.0741 -0.0929
20053W        W35947  12.046  12.179   0.161  0.0793  0.1914  0.1217
20054W        W35948  17.461   0.530   2.011 -0.2337  0.0964 -0.4229
20055W        W35949   2.454  13.108   2.792 -0.1576 -0.1244 -0.1070
20056W        W35950  16.900   5.366  16.115 -0.1164  0.1875  0.0188
20057W        W35951   1.713  11.739   3.433  0.0698 -0.0271 -0.2254
20058W        W35952  10.254  12.417   2.083  0.0192  0.2787  0.0295
20059W        W35953  17.112   3.027  13.179  0.2086 -0.0309  0.2312
20060W        W35954   5.285   0.022   4.248 -0.0575 -0.1633  0.0166
20061W        W35955   8.465   9.157   2.673  0.1447 -0.2334  0.1250
20062W        W35956   5.792  15.807   0.920 -0.1086 -0.1847 -0.0854
20063W        W35957   3.299  13.538   2.580 -0.2354 -0.1533  0.0335
20064W        W35958  16.684  16.361   5.663  0.3110  0.1115  0.2006
20065W        W35959   7.454   4.495  15.644 -0.1211 -0.0308  0.2235
20066W        W35960  17.800   2.172   0.510  0.0233  0.3540  0.0225
20067W        W35961  13.373   3.401   1.233  0.1920  0.3319  0.1758
20068W        W35962  12.600  11.972   1.353  0.3347  0.1759  0.0573
20069W        W35963   2.352  16.630  15.264  0.1388 -0.1624  0.3597
20070W        W35964  16.303   0.392  11.767  0.2266 -0.0414  0.0709
20071W        W35965  12.233  11.437   4.428  0.1899 -0.1866 -0.1814
20072W        W35966  11.044   6.766   2.597  0.3943 -0.3626  0.0542
20073W        W35967   9.933  13.636  16.211 -0.0346 -0.3325 -0.1131
20074W        W35968   7.225  17.732  12.993 -0.0775 -0.2603  0.0205
20075W        W35969  12.397   4.844   4.552  0.1803  0.0636  0.3005
20076W        W35970  12.306   8.766   1.055 -0.0767  0.1828 -0.0337
20077W        W35971   1.391   9.605  13.791 -0.0739  0.1369 -0.0987
20078W        W35972   2.420   0.483   4.151  0.1509  0.1831  0.1287
20079W        W35973  14.924  15.009   2.186  0.0308 -0.2397  0.0107
20080W        W35974   5.302  13.552  11.793  0.2399  0.0174  0.0578
20081W        W35975   1.140   6.112  11.930 -0.2299 -0.1048  0.1256
20082W        W35976  16.604  10.918   6.391 -0.0983 -0.1523 -0.2727
20083W        W35977  15.996  14.511  13.350 -0.3270  0.1654 -0.2558
20084W        W35978  15.810   4.811  11.950  0.1087 -0.3286 -0.1227
20085W        W35979   9.074  13.428   1.186  0.0730 -0.1574 -0.1139
20086W        W35980   5.340   7.825   2.738 -0.1697 -0.0881  0.2100
20087W        W35981  11.280   5.551   4.328  0.3035 -0.1797  0.1962
20088W        W35982   6.912   7.316  16.663 -0.1003  0.1952 -0.0682
20089W        W35983   7.611   5.866   2.940  0.1405 -0.2932  0.1945
20090W        W35984   9.151  12.932   0.951 -0.0823  0.2372  0.0233
20091W        W35985  13.672  12.244  13.421  0.0470 -0.0083 -0.2530
20092W        W35986   0.775  13.964  13.676  0.0356 -0.1034  0.1537
20093W        W35987   9.478   6.027   2.977 -0.0888  0.4760 -0.0831
20094W        W35988   8.259   2.533   4.751  0.1656 -0.0932 -0.2805
20095W        W35989   9.742   5.210   1.336  0.2683 -0.1087 -0.1782
20096W        W35990  11.410   5.939  15.898 -0.0818  0.1154 -0.1461
20097W        W35991  14.720   2.016  16.686 -0.0181  0.0874 -0.1249
20098W        W35992   5.659  11.806  14.357 -0.1057 -0.1824  0.0855
20099W        W35993   9.622   7.840   5.117  0.1287  0.2789 -0.0615
20100W        W35994   1.716   9.614   3.111  0.0732  0.5550  0.1811
20101W        W35995   7.274   5.940  14.256  0.1818 -0.2664 -0.3096
20102W        W35996  10.058  11.412   2.378 -0.2537 -0.3703 -0.2095
20103W        W35997   2.446  13.591   5.879  0.0644  0.1189  0.1882
20104W        W35998   8.714   5.281   6.269 -0.0461 -0.1534 -0.1715
20105W        W35999  13.763  12.759  11.908  0.3193 -0.0503  0.1067
20106W        W36000  12.341   6.832  15.621  0.0936 -0.1970  0.1408
20107W        W36001  11.369  12.279   1.351  0.0717 -0.1156  0.4059
20108W        W36002   7.168  14.660  14.136 -0.1369  0.1335 -0.1248
20109W        W36003   1.000   9.200   3.668  0.0044 -0.0488 -0.1239
20110W        W36004   2.413   6.521  11.699  0.1870 -0.0982 -0.1550
20111W        W36005  13.228   8.862  16.692 -0.1761 -0.0445 -0.1521
20112W        W36006   5.216  16.193  14.976  0.1958  0.0546 -0.1182
20113W        W36007   0.302  11.274   0.466 -0.0734 -0.3258 -0.2721
20114W        W36008  13.983   3.070  14.119 -0.2113  0.0119 -0.2028
20115W        W36009   3.601   7.631   5.334 -0.0378  0.1367  0.2587
20116W        W36010   4.706  16.486  13.789 -0.0799 -0.1778 -0.0697
20117W        W36011   5.195   0.446   3.682  0.0595  0.0507 -0.4374
20118W        W36012  17.699  15.483   1.801 -0.1274 -0.1135  0.1419
20119W        W36013  15.666   2.151  16.742 -0.1592  0.0764 -0.2422
20120W        W36014   3.131   8.946   3.139  0.2534  0.1739 -0.2977
20121W        W36015   2.723   7.234  13.447 -0.1289  0.1229  0.0081
20122W        W36016  17.723   0.309  12.509 -0.1083  0.1352  0.1564
20123W        W36017  14.900   9.482   3.236 -0.1175  0.0272  0.2347
20124W        W36018  10.228  10.914   1.462  0.1402  0.1162 -0.2155
20125W        W36019   9.778  14.485   3.805 -0.2987  0.0272 -0.0751
20126W        W36020   1.934   3.195  12.355 -0.1764 -0.2565 -0.0844
20127W        W36021  14.755   2.755   2.260 -0.1982 -0.2296 -0.0769
20128W        W36022  13.785   8.594   2.824  0.0875 -0.1161 -0.2046
20129W        W36023  11.033   6.120  16.214  0.2308  0.0211 -0.0479
20130W        W36024  11.147   9.357   1.181 -0.0677 -0.2924  0.1212
20131W        W36025  17.608  13.571   2.084 -0.0017  0.0718  0.1709
20132W        W36026   9.829   8.522   5.657  0.2978 -0.3964  0.2310
20133W        W36027   5.954   5.322   2.779 -0.1482  0.0107  0.1540
20134W        W36028   6.666   8.717   2.336  0.4243 -0.3620  0.1161
20135W        W36029   0.383  14.630  12.650  0.2668 -0.2899 -0.1309
20136W        W36030  13.661   4.234   5.426 -0.1036 -0.4684 -0.0755
20137W        W36031  11.598  14.758  11.744  0.0857  0.0575 -0.2494
20138W        W36032  17.387  13.182  15.790  0.0339 -0.0407  0.1682
20139W        W36033   0.996   8.475  14.659 -0.1162  0.0570 -0.0127
20140W        W36034   6.379  15.652  12.447  0.1090 -0.0617 -0.0253
20141W        W36035   1.686  13.762   2.537  0.0680  0.1114 -0.0159
20142W        W36036   6.136  13.159  14.003 -0.0488  0.0200 -0.3323
20143W        W36037   8.565   2.288  14.108 -0.1838  0.0850  0.1181
20144W        W36038   5.576   9.660   1.855 -0.2175  0.1565 -0.0753
20145W        W36039   8.263   7.160  11.003 -0.1227  0.3765 -0.1091
20146W        W36040   6.015   7.426  16.789  0.0418  0.0497 -0.0556
20147W        W36041   4.695   2.788  15.753 -0.0833 -0.2249 -0.0957
20148W        W36042   7.324   0.102   0.994  0.3358  0.0112  0.3197
20149W        W36043   7.648   4.047  14.560 -0.1259  0.2593 -0.2749
20150W        W36044  10.401   9.319   5.472 -0.3104 -0.2061 -0.1015
20151W        W36045   3.153   3.860  14.108 -0.1988 -0.1230  0.1170
20152W        W36046  11.980   4.958  14.845  0.4048  0.1627  0.4983
20153W        W36047  16.275   3.508  15.922  0.2242 -0.3403  0.0340
20154W        W36048   0.844  13.371   2.216 -0.0481 -0.0501  0.0560
20155W        W36049   0.413  13.744   1.358 -0.0087 -0.0114  0.0949
20156W        W36050   2.176  17.319   3.025 -0.1650 -0.1518  0.5035
20157W        W36051   4.402  14.214  13.204  0.0051  0.1485  0.1065
20158W        W36052   9.418   3.885   2.403 -0.1511  0.1265  0.2101
20159W        W36053   2.018  12.924  14.460  0.1550  0.1864  0.3343
20160W        W36054  11.749  10.629   2.169 -0.1964 -0.1395 -0.3196
20161W        W36055   0.647  12.836  14.777 -0.2875 -0.0230  0.0225
20162W        W36056   8.429   8.680  12.028  0.2252  0.1354  0.0911
20163W        W36057   4.211   4.328   1.378  0.0310  0.1940  0.2043
20164W        W36058   2.737   6.753  16.553  0.0132  0.0063  0.1469
20165W        W36059  11.537  12.873   0.237  0.1689  0.1477 -0.2241
20166W        W36060   4.657   0.552   1.413 -0.1904  0.3872  0.0001
20167W        W36061  15.409   8.144  12.622 -0.1171 -0.1597  0.1041
20168W        W36062  12.550  14.251   5.462 -0.1039 -0.1221  0.1088
20169W        W36063   4.754  10.972  14.743  0.1774 -0.3997 -0.0423
20170W        W36064   1.176   7.088  12.456  0.0525 -0.1562 -0.0155
20171W        W36065   9.132   0.337  14.804  0.1305 -0.3160 -0.1126
20172W        W36066   9.908   0.647   5.531  0.1306  0.0509  0.1463
20173W        W36067   6.115  11.285   2.943 -0.0880  0.3271  0.0258
20174W        W36068   8.216  13.446  15.150  0.3365  0.1808 -0.0586
20175W        W36069  12.700  17.407   1.688 -0.0759  0.1958 -0.4666
20176W        W36070   5.241  10.279  16.616  0.0557 -0.2923  0.4123
20177W        W36071   3.183   6.074   0.610 -0.1467 -0.0663  0.0044
20178W        W36072   0.245   6.306  11.969  0.3012 -0.2398 -0.0289
20179W        W36073  16.221  11.346  12.364 -0.4023  0.1783  0.3296
20180W        W36074   9.725   8.690  15.112  0.0217 -0.2109 -0.0292
20181W        W36075   4.400   9.248  13.690 -0.3054 -0.3994  0.0758
20182W        W36076  13.459   6.043  16.123 -0.1217 -0.1411  0.2366
20183W        W36077  11.044  11.304  12.556 -0.2030 -0.0637 -0.2774
20184W        W36078   2.020   8.912   4.998  0.0835  0.0319 -0.1141
20185W        W36079   6.662  13.292   1.243 -0.2173 -0.2661 -0.1105
20186W        W36080   4.766  17.046   0.092  0.0399  0.3038  0.1545
20187W        W36081   0.303   3.665  12.392  0.0138  0.4742  0.0574
20188W        W36082   5.994   6.408  13.939  0.3310 -0.0297  0.0124
20189W        W36083  11.475   0.673  16.270  0.0385  0.1550  0.1048
20190W        W36084   7.438   2.805  15.698  0.0309 -0.1674 -0.2695
20191W        W36085   0.852  14.603   2.702 -0.0060 -0.1174 -0.2079
20192W        W36086   7.284   3.672   1.886  0.1683  0.0309  0.0069
20193W        W36087   9.801   5.427   0.570 -0.0104 -0.0122  0.0676
20194W        W36088   6.853  16.694  12.736  0.1301  0.2279 -0.0423
20195W        W36089   9.547  14.552  16.647 -0.0042  0.1218  0.2032
20196W        W36090  13.138  13.216   0.385 -0.1327 -0.0785  0.0203
20197W        W36091  13.162   1.590   2.246  0.1651  0.0035  0.4807
20198W        W36092   5.284   8.596  12.109  0.3164 -0.0257  0.0289
20199W        W36093  15.818   7.786   2.678 -0.3604  0.2303  0.3442
20200W        W36094  12.737  12.110   5.226 -0.0602  0.1047 -0.1400
20201W        W36095   2.757   7.153   5.635  0.0400  0.0624  0.3149
20202W        W36096   8.605   3.121   4.123 -0.2531 -0.1576  0.2320
20203W        W36097   1.281   5.167  11.470 -0.1931 -0.1324 -0.1953
20204W        W36098   3.832  12.397  11.956  0.2134  0.1278  0.1995
20205W        W36099   7.861  12.117   0.505  0.0187  0.0995 -0.0585
20206W        W36100  15.539   3.727  14.623  0.2722  0.0900 -0.2638
20207W        W36101  12.126   5.330   5.918 -0.1000 -0.2987 -0.1434
20208W        W36102  12.439  16.574  11.690  0.1620  0.0303 -0.0268
20209W        W36103   4.514   4.871   3.819 -0.0889  0.3186 -0.0555
20210W        W36104  14.432  12.539  12.995  0.0809  0.0059 -0.0120
20211W        W36105   6.874  11.907  11.708 -0.3839 -0.1679 -0.2307
20212W        W36106   0.651   6.030  11.705  0.1725  0.1484  0.4336
20213W        W36107  11.810   2.473  16.769  0.3442 -0.0387  0.2895
20214W        W36108  10.779  10.682  11.127  0.0816 -0.2814 -0.1119
20215W        W36109   7.408  11.891   0.379  0.0397  0.0541 -0.3318
20216W        W36110   8.095  16.291   1.159  0.3877 -0.0432 -0.3359
20217W        W36111   1.743  16.053  14.312  0.1213 -0.0029 -0.0010
20218W        W36112   7.706   2.427   4.103 -0.0667  0.0046 -0.1371
20219W        W36113   3.494   9.572  14.177 -0.0219 -0.0277 -0.2977
20220W        W36114   0.752   7.996  13.112 -0.0627  0.1632 -0.0426
20221W        W36115   5.478   6.993  12.770  0.2496  0.0959 -0.2238
20222W        W36116   3.666  14.397   5.365 -0.1937  0.2122  0.0045
20223W        W36117  11.679  10.490  14.530 -0.0279  0.0308 -0.1014
20224W        W36118   8.384   6.556   5.238  0.1088  0.0874  0.0033
20225W        W36119  11.862   2.116  12.833  0.3125  0.1654  0.0528
20226W        W36120   6.572  16.647   0.951  0.0372 -0.2857  0.1165
20227W        W36121   0.428  15.061  15.509 -0.0167 -0.1442 -0.1657
20228W        W36122  16.033   8.042  16.063 -0.1225  0.1186  0.0999
20229W        W36123   2.823  10.160   3.354 -0.0084 -0.1567  0.1765
20230W        W36124  17.322   2.213  14.394 -0.0486  0.0647  0.0245
20231W        W36125   5.004   9.543  13.238  0.0537 -0.1232  0.0795
20232W        W36126   2.125  16.029   4.002  0.0256  0.0985  0.1480
20233W        W36127  11.784  17.167   0.485 -0.0766 -0.3189  0.3120
20234W        W36128  17.757  15.693  16.922 -0.4524 -0.0722 -0.1692
20235W        W36129  14.600  13.725   3.076  0.1714  0.2444 -0.5025
20236W        W36130  10.044  13.044   5.925 -0.3588 -0.1715 -0.1802
20237W        W36131  10.224  11.380  13.275  0.1194 -0.1959  0.0293
20238W        W36132   4.608  15.402   0.387 -0.0949  0.1024 -0.0526
20239W        W36133  12.688   8.071   2.299  0.1356  0.4809 -0.1067
20240W        W36134   6.564  13.551   5.380 -0.0511  0.0037  0.0655
20241W        W36135   9.938  12.394  16.488 -0.0873 -0.1533  0.0908
20242W        W36136  15.289   0.447  12.924 -0.0892  0.0405  0.0304
20243W        W36137  12.246   9.541   5.549 -0.0582  0.1361 -0.1477
20244W        W36138  15.576   6.728  14.336  0.0005 -0.0822 -0.3943
20245W        W36139  12.473   0.661  16.500  0.0876  0.1457  0.0264
20246W        W36140   1.080   7.917  14.579  0.0503  0.0093 -0.0603
20247W        W36141   2.383  11.745   3.039 -0.1431 -0.0723 -0.0715
20248W        W36142   8.021   1.895   1.272 -0.0117  0.0664  0.0537
20249W        W36143   7.937   7.687   0.915  0.4285 -0.1949 -0.2496
20250W        W36144   0.906  15.354  13.508 -0.0179 -0.1753 -0.0866
20251W        W36145  13.754   4.548   4.393  0.0648  0.1042 -0.0964
20252W        W36146   6.770  14.300  15.966 -0.1420 -0.1706 -0.4463
20253W        W36147   0.172   1.227   1.516  0.0954 -0.2362  0.2538
20254W        W36148  11.864   2.732  15.909 -0.1225 -0.3162  0.0461
20255W        W36149  13.397   3.081   2.368  0.0707  0.2653  0.1323
20256W        W36150  14.866  17.017   4.455  0.1145 -0.3378 -0.1972
20257W        W36151  17.288  14.919  15.135  0.1552 -0.3603 -0.1793
20258W        W36152   4.086  15.146  13.692  0.0854 -0.3272  0.1572
20259W        W36153   3.256   4.170  15.442 -0.1445 -0.0233  0.2437
20260W        W36154  16.666   3.171  13.596 -0.1973 -0.1221  0.0018
20261W        W36155   8.205  15.580   2.783 -0.2934 -0.1366  0.0490
20262W        W36156   3.520  13.918   6.454  0.3226  0.1670 -0.0161
20263W        W36157   4.111   6.719   5.022  0.0754  0.0145  0.0581
20264W        W36158   9.966   6.255   3.124  0.3056 -0.2598 -0.1313
20265W        W36159   1.349  17.804  14.925 -0.0579  0.2576 -0.1942
20266W        W36160  14.380   5.116  14.304  0.0603  0.0691 -0.0486
20267W        W36161   6.413   3.527   2.490  0.1563 -0.0715  0.0977
20268W        W36162   4.101  10.807  12.900  0.3745 -0.5301 -0.0911
20269W        W36163   9.485   1.920  13.222  0.0389 -0.1016 -0.1678
20270W        W36164   3.188   0.134   0.282  0.1600 -0.1407  0.3930
20271W        W36165   7.810   9.563   0.322  0.0333 -0.2688  0.2278
20272W        W36166   0.368   8.704  11.641 -0.1148 -0.5246 -0.5082
20273W        W36167   4.309  16.537   2.496 -0.1390 -0.0963 -0.2921
20274W        W36168   8.662   8.667   2.825  0.1234 -0.4312  0.0836
20275W        W36169   7.619  13.336   0.832  0.1527  0.0012 -0.3215
20276W        W36170  12.076   4.700   4.927  0.1497 -0.3592  0.0118
20277W        W36171  12.706   0.255  15.241  0.0549  0.0489 -0.2410
20278W        W36172  11.967   1.564  15.283  0.1096 -0.2576  0.0871
20279W        W36173   6.208  16.775  13.066 -0.1059 -0.1098 -0.1913
20280W        W36174   6.627   6.455  12.327 -0.1106  0.0074 -0.1829
20281W        W36175  17.761   6.734   3.779 -0.0217 -0.1874  0.2229
20282W        W36176  14.235  11.429   4.448 -0.3203 -0.2516 -0.2901
20283W        W36177   0.672   9.021  13.877  0.0142 -0.2146 -0.3307
20284W        W36178   4.889  16.713   0.497  0.2802  0.1146 -0.2141
20285W        W36179  16.331  13.356   6.429 -0.1780 -0.2545  0.0881
20286W        W36180  16.348   6.684   1.319  0.4236 -0.1170  0.2301
20287W        W36181   1.571   0.503  13.905 -0.1268  0.1391  0.1076
20288W        W36182   1.386  10.324  16.160  0.0795  0.0846  0.2631
20289W        W36183   7.404  13.719   4.435 -0.2225 -0.0185  0.1285
20290W        W36184   4.268  16.741   1.753 -0.0837 -0.1850 -0.0060
20291W        W36185   3.098   7.068  16.712 -0.0593  0.0535  0.0817
20292W        W36186   7.728  14.731   5.558 -0.4435 -0.1581 -0.0700
20293W        W36187   8.263   3.382  16.342  0.2000  0.2509 -0.2455
20294W        W36188   8.866  10.095   2.849  0.0484 -0.1931  0.0000
20295W        W36189  16.043   6.176   2.085 -0.1424  0.2171 -0.2508
20296W        W36190   4.151   4.413   2.749 -0.3368 -0.0692  0.1975
20297W        W36191   6.221   8.013   2.379 -0.1880  0.0601 -0.0285
20298W        W36192   1.538   0.481  15.752 -0.1080  0.2189  0.1549
20299W        W36193   2.616   1.766  16.067 -0.2173  0.0411 -0.0725
20300W        W36194  15.115  17.449   1.890  0.1129  0.1067 -0.3573
20301W        W36195   2.928  14.675   6.518 -0.1601 -0.0487  0.1094
20302W        W36196  10.526   2.802   6.191 -0.0574 -0.0576  0.0006
20303W        W36197  15.737   4.753   3.077  0.2993  0.1436  0.0184
20304W        W36198  17.403  10.960   5.032  0.0840  0.0329 -0.3466
20305W        W36199   0.319  17.022   1.883  0.2181  0.0941  0.2548
20306W        W36200   3.515   9.521   0.514  0.2953 -0.0709 -0.0458
20307W        W36201   0.203  17.450   0.710  0.2105  0.4405 -0.0544
20308W        W36202   8.600  17.493   2.129  0.0116  0.1182 -0.0773
20309W        W36203  12.361   4.022   4.142 -0.0864 -0.0482 -0.1268
20310W        W36204   3.260  16.917   2.257  0.1041  0.2349  0.1503
20311W        W36205  13.338   4.997  14.458 -0.2256  0.0220  0.3337
20312W        W36206   5.127  14.374  12.437  0.0820 -0.2235 -0.2453
20313W        W36207   9.680  10.006   4.198  0.0565 -0.2008 -0.0684
20314W        W36208   4.143  16.690  15.617  0.1677 -0.0187  0.1377
20315W        W36209  15.021  17.436  12.487 -0.2787  0.1849 -0.1626
20316W        W36210   0.265  13.695  11.804  0.0191  0.3746 -0.0412
20317W        W36211   5.831   5.971  16.599  0.1394  0.0603  0.0377
20318W        W36212   9.189   4.399   0.593  0.3297 -0.0868 -0.0310
20319W        W36213   6.580   5.566  12.831  0.0667  0.0189  0.0616
20320W        W36214  13.897   0.476   1.327  0.3069  0.0421 -0.0893
20321W        W36215  16.672  10.647   5.508 -0.1355  0.0125 -0.1650
20322W        W36216   6.775   8.545  16.284 -0.2783 -0.2021 -0.1807
20323W        W36217  17.035  10.980   5.461  0.2102 -0.0668 -0.4280
20324W        W36218  15.871   1.419  12.561 -0.1204 -0.0106  0.0444
20325W        W36219  12.947   5.171   5.051  0.0142 -0.1407  0.1119
20326W        W36220  16.135   5.398   5.292  0.0508  0.0426 -0.3040
20327W        W36221   7.593   7.617  15.074  0.2977 -0.0028  0.1057
20328W        W36222  17.712   3.965   4.272 -0.0085  0.2910  0.4730
20329W        W36223   0.499  11.593  15.023  0.2009  0.0177 -0.3621
20330W        W36224  15.978   1.318  14.265 -0.2106  0.0659  0.1825
20331W        W36225  17.000  14.397  12.589 -0.1913  0.4458 -0.0181
20332W        W36226   5.297   5.859   5.695 -0.1665  0.0729  0.0947
20333W        W36227  12.508   2.742   0.877  0.0144  0.2758 -0.0932
20334W        W36228   3.522  14.153   6.018  0.1113  0.4559 -0.1961
20335W        W36229   7.197  10.177  13.503  0.0283 -0.0038  0.0665
20336W        W36230   4.191  17.658  14.308 -0.2917 -0.0857 -0.0289
20337W        W36231  13.397   6.344   0.530 -0.0322 -0.0526  0.0686
20338W        W36232   5.368   7.936  11.762  0.2946 -0.4580 -0.0564
20339W        W36233  16.055   6.823  11.561 -0.0861  0.0209  0.1164
20340W        W36234   5.339   4.486   3.707  0.1114  0.0677  0.0545
20341W        W36235  16.472   6.933  16.224  0.1688 -0.2173  0.0540
20342W        W36236   6.314   5.872  13.155  0.0813  0.3487 -0.4427
20343W        W36237   5.845  15.026   0.686 -0.0392 -0.3509 -0.2233
20344W        W36238  11.118   8.579  15.076  0.0339  0.0965 -0.2504
20345W        W36239  11.691  16.722   4.083  0.0247  0.0647  0.1552
20346W        W36240   9.657   7.327   2.426  0.1206 -0.1989  0.3615
20347W        W36241  13.011   2.937   5.125  0.4048 -0.1541  0.2070
20348W        W36242  16.222   8.963  13.220 -0.0437 -0.1561 -0.2465
20349W        W36243  17.753  17.819  16.556 -0.0780  0.1644  0.2165
20350W        W36244  13.001  12.758   0.295  0.1894 -0.0490  0.0143
20351W        W36245   6.673   1.198   1.024  0.1221  0.1192  0.4388
20352W        W36246  12.146  10.384  16.789 -0.0924 -0.2396 -0.1683
20353W        W36247   1.308   1.855   6.103 -0.1287  0.0343 -0.3518
20354W        W36248  13.834   0.976  13.148 -0.0572  0.1873  0.1715
20355W        W36249   2.072  13.085   1.165  0.1184  0.2575  0.0790
20356W        W36250  12.988  15.110   0.230 -0.2895  0.1322  0.1890
20357W        W36251   3.549  17.195   3.998 -0.2589 -0.2557  0.1429
20358W        W36252   5.106  17.013  12.628  0.0745  0.1117  0.2017
20359W        W36253  15.883  14.082  14.267 -0.0154  0.2981  0.0651
20360W        W36254  12.922   1.248   1.946  0.0235  0.2588 -0.0806
20361W        W36255   3.266  15.354   4.466  0.1503  0.1443  0.0419
20362W        W36256   3.576  16.278   5.292 -0.1554  0.1381  0.1228
20363W        W36257  10.510  16.181   4.119 -0.0274  0.0358  0.1714
20364W        W36258   4.897   9.961  16.699 -0.0532 -0.0275 -0.3002
20365W        W36259  17.579  10.796   1.861  0.1130  0.0589 -0.3391
20366W        W36260  10.088   7.386   0.757  0.2093 -0.2920  0.0211
20367W        W36261   0.262   1.279   0.159  0.1282  0.1734 -0.0273
20368W        W36262  14.592   4.362   3.012 -0.1120 -0.1109 -0.2029
20369W        W36263  10.283   3.329   1.458 -0.1917  0.0350 -0.0276
20370W        W36264   3.574  13.786   2.925  0.0128 -0.1779 -0.1334
20371W        W36265  13.422  16.768   1.360 -0.1221 -0.1258  0.1700
20372W        W36266   9.235  13.257  12.491 -0.0465  0.1422  0.1627
20373W        W36267  14.247  16.142   1.807  0.1885 -0.2157 -0.3387
20374W        W36268   4.403   5.696   2.393  0.0730  0.3324 -0.2118
20375W        W36269  16.503  15.054   4.574  0.2681 -0.1319 -0.2111
20376W        W36270   1.984  14.540   1.985  0.0327 -0.1679 -0.2199
20377W        W36271   2.916   3.248   2.606 -0.0462 -0.1999  0.1099
20378W        W36272  15.909  11.180  16.827  0.1310  0.0334 -0.2856
20379W        W36273   7.684   1.440  14.407  0.2970  0.0806 -0.0190
20380W        W36274   9.190   3.107   2.972 -0.1637  0.1492  0.1930
20381W        W36275   3.371  16.969  11.934 -0.3424 -0.1126 -0.0902
20382W        W36276   6.242  13.351  16.479  0.1859 -0.0985 -0.0968
20383W        W36277  12.673  10.546   6.021 -0.0111 -0.0655  0.0353
20384W        W36278  14.340  13.837   0.696  0.0990 -0.0822 -0.0392
20385W        W36279   4.420  17.515  16.225 -0.4080  0.2397 -0.0573
20386W        W36280   9.871  17.031  13.141  0.2267 -0.2128  0.0385
20387W        W36281  16.852  11.304  14.992  0.0314  0.3629  0.1332
20388W        W36282  17.214  13.504  16.182 -0.0145  0.0744  0.0560
20389W        W36283  11.028   6.280   3.346 -0.2110 -0.0122  0.0263
20390W        W36284  11.647   3.076  11.805 -0.3084 -0.1328 -0.0573
20391W        W36285   3.064  15.944   5.247  0.3273  0.0591 -0.1740
20392W        W36286   1.373   3.754  14.685  0.2993  0.1511  0.2993
20393W        W36287   7.673  13.229   3.037 -0.4217 -0.2403 -0.0144
20394W        W36288  17.163   7.944  13.371  0.1666  0.0734 -0.0126
20395W        W36289   4.789   3.221  12.899 -0.1216 -0.1975 -0.2109
20396W        W36290   3.441  10.529  12.620 -0.0642  0.2373 -0.3994
20397W        W36291  13.697  17.252   2.886 -0.1135  0.0957  0.2279
20398W        W36292  11.216  13.232  13.481 -0.1628 -0.2799  0.1869
20399W        W36293   2.620   7.630  15.433 -0.1500 -0.1390  0.0320
20400W        W36294  13.176   4.539   0.885  0.1027  0.2508  0.1715
20401W        W36295   4.698   1.154  12.001  0.2070 -0.1150  0.0488
20402W        W36296   3.777   0.605   3.969 -0.0801  0.3054 -0.1524
20403W        W36297  17.242  13.782  15.719  0.0015 -0.0693  0.1765
20404W        W36298  11.360  17.543  14.545 -0.2967 -0.1176 -0.2372
20405W        W36299   3.064  15.406  12.525 -0.0528  0.2159  0.0318
20406W        W36300   3.558  12.440  11.521 -0.0807 -0.2301 -0.0498
20407W        W36301   0.611  11.661   1.979  0.0554 -0.1589 -0.0404
20408W        W36302   3.800   0.192  13.170  0.1670  0.0635  0.2380
20409W        W36303   1.956   8.583  14.598  0.1448 -0.1977 -0.2153
20410W        W36304  14.159   4.684  12.725 -0.0647 -0.0304  0.1655
20411W        W36305  12.615   5.422  13.962 -0.2277  0.1599 -0.2822
20412W        W36306  16.196   3.955   3.238 -0.2406 -0.1524 -0.0250
20413W        W36307   4.669   1.485  15.079  0.1187 -0.2618 -0.0262
20414W        W36308   1.251  14.150  13.630 -0.0092 -0.2562  0.1616
20415W        W36309   0.488   6.971   2.221  0.0792 -0.1169 -0.2902
20416W        W36310  12.253   4.331   4.536 -0.0267 -0.0284 -0.1249
20417W        W36311   8.174   1.185  12.862  0.4654  0.3606  0.0938
20418W        W36312   3.739   5.650  15.093 -0.1881 -0.1940 -0.2450
20419W        W36313  16.039   2.770   2.709  0.2277  0.1079 -0.3251
20420W        W36314   0.566   0.675  12.417 -0.3623  0.2127 -0.1192
20421W        W36315  15.752  15.550  12.406 -0.0728 -0.0796 -0.0847
20422W        W36316   7.415   3.989  15.702 -0.1326 -0.0569 -0.0803
20423W        W36317  13.580  16.442   3.122  0.0579  0.1732 -0.1530
20424W        W36318  16.332  15.548   1.128 -0.0685 -0.0487  0.0430
20425W        W36319   2.373   2.285   2.321  0.0324  0.3094 -0.0395
20426W        W36320   0.792   7.317  16.267 -0.0540  0.2470  0.3174
20427W        W36321  13.838  11.308   4.098 -0.0775 -0.3007  0.0269
20428W        W36322   3.890  17.827  11.701  0.0000  0.2747 -0.0240
20429W        W36323  16.319  14.853  13.643 -0.0098  0.1329  0.1200
20430W        W36324   2.766  15.072  16.678 -0.1002  0.0306 -0.1426
20431W        W36325   0.711  12.372   2.568 -0.1296  0.0238 -0.0950
20432W        W36326   0.626   6.338   0.166 -0.1421  0.0106 -0.0693
20433W        W36327   4.738  16.020  11.860  0.1242  0.0626  0.0231
20434W        W36328   1.898   9.872   4.407 -0.1844  0.2032  0.3406
20435W        W36329  15.169  13.157   4.844 -0.0757 -0.3362 -0.2756
20436W        W36330   6.011  14.322   5.331  0.0240 -0.1387 -0.0068
20437W        W36331   4.537  16.888  12.970  0.1717  0.2764  0.3148
20438W        W36332   2.898   8.191   3.398  0.0924 -0.0559  0.0205
20439W        W36333   3.827  15.844  16.410 -0.0384  0.2341 -0.1126
20440W        W36334  10.633   9.071   1.499  0.2525 -0.0847  0.0490
20441W        W36335   5.905  14.150   4.835  0.0604 -0.0823  0.0459
20442W        W36336  16.214  17.352   1.830 -0.3413  0.3191  0.1207
20443W        W36337   5.026   2.119   3.588  0.2471  0.2992 -0.1553
20444W        W36338  10.279   4.645   0.697 -0.4360  0.3369  0.1039
20445W        W36339   6.174   2.147   3.601 -0.1002 -0.0070  0.0164
20446W        W36340  10.784   3.034  15.275 -0.1302  0.2809 -0.1907
20447W        W36341   8.173   4.468   0.395 -0.2590  0.2713  0.1059
20448W        W36342   6.267  12.274  13.815 -0.0745 -0.0567  0.4606
20449W        W36343   3.921  11.342   2.158  0.2876 -0.1333 -0.1873
20450W        W36344   5.956  14.194  16.750  0.2090 -0.0555 -0.1206
20451W        W36345  16.224  12.067   5.222 -0.3309  0.1442  0.0272
20452W        W36346  15.359   7.121  16.174 -0.0618 -0.0940  0.1813
20453W        W36347  11.128   9.469  15.728  0.0168  0.2416  0.2157
20454W        W36348   3.637   2.545  12.689  0.2772 -0.2069  0.2538
20455W        W36349   4.830  11.258  12.837 -0.0667  0.1732  0.3549
20456W        W36350  14.977  13.731  12.651  0.0131  0.0054  0.0131
20457W        W36351  12.963   2.315  11.373  0.1765 -0.0019 -0.0362
20458W        W36352   6.571   3.152   0.331 -0.4059  0.0394 -0.0263
20459W        W36353   1.218  14.855   4.597  0.2446 -0.1200 -0.1018
20460W        W36354  16.132   1.563  15.680 -0.1742  0.2705 -0.1333
20461W        W36355   3.302   9.445   3.244 -0.0713 -0.1065 -0.1940
20462W        W36356   9.267  14.122   2.976  0.2112  0.1627 -0.5734
20463W        W36357   9.322  11.556   0.170 -0.3644 -0.3043  0.2315
20464W        W36358  15.077  13.854   1.348 -0.2818  0.1480  0.1874
20465W        W36359  17.738   1.858  14.558 -0.0401  0.2888 -0.0573
20466W        W36360  16.787  10.356  15.053  0.1246 -0.1124  0.0189
20467W        W36361  13.723  16.761   0.020 -0.2564 -0.1832  0.0960
20468W        W36362   7.185  12.635   2.913 -0.1088  0.3027 -0.0027
20469W        W36363  11.827   4.966   3.680 -0.0798 -0.3361  0.0963
20470W        W36364   2.392  16.443   1.841  0.2975 -0.2325 -0.2527
20471W        W36365   7.181   2.814  13.936 -0.0304 -0.0066 -0.1107
20472W        W36366  11.560   6.743   2.582  0.1907  0.0131  0.1271
20473W        W36367  14.786   2.772  15.203 -0.2012  0.0620 -0.1493
20474W        W36368  16.794   7.816  14.691 -0.1568  0.1837 -0.1746
20475W        W36369  12.248   5.344   4.390  0.1800  0.2494 -0.0599
20476W        W36370   5.065  14.126  13.502  0.2787  0.0123 -0.1962
20477W        W36371  17.746   5.958   0.138 -0.0161 -0.0631 -0.2054
20478W        W36372   3.124  16.407  11.687 -0.1228  0.1926  0.1343
20479W        W36373   7.286   9.174   5.174  0.0293  0.1012  0.1159
20480W        W36374  16.881  14.831   2.016 -0.1923  0.0261 -0.1752
20481W        W36375   0.462   5.034   0.806 -0.1238 -0.1951 -0.0416
20482W        W36376  12.262  13.360   5.843  0.0502 -0.1948 -0.1519
20483W        W36377   2.504   6.783  12.512  0.2391  0.0682 -0.1824
20484W        W36378   8.630   8.776   2.320 -0.0541  0.3121  0.2736
20485W        W36379   7.883  14.421  16.055  0.2030 -0.1823  0.1217
20486W        W36380   7.301  11.620  11.504  0.2070 -0.1776  0.0724
20487W        W36381   6.193  14.326  15.697  0.0283  0.1554 -0.0298
20488W        W36382   5.743  16.159  16.127  0.1355 -0.2905  0.0466
20489W        W36383   6.037   1.493   3.798 -0.1924  0.1791 -0.0320
20490W        W36384   2.356  15.289   3.456  0.2830  0.1840 -0.0822
20491W        W36385   5.309  17.197  16.035 -0.1451  0.0077  0.3474
20492W        W36386   0.615  11.072   5.363 -0.3400  0.0001  0.1214
20493W        W36387  14.895   9.358   2.684  0.0887  0.1236 -0.0353
20494W        W36388   1.885   0.360   5.427 -0.1937 -0.1613 -0.1788
20495W        W36389   6.346   8.954   4.640 -0.2631 -0.3074 -0.2605
20496W        W36390   2.941  11.561   0.346  0.1722 -0.0529 -0.0616
20497W        W36391  12.127  15.473   3.002  0.3161 -0.3052 -0.4207
20498W        W36392   7.375   5.520  11.875  0.0034 -0.1148  0.0754
20499W        W36393   9.263  13.438   5.430 -0.1083 -0.2593 -0.1643
20500W        W36394   1.693  14.314  13.420 -0.3337  0.2105  0.2780
20501W        W36395  15.428  14.809  16.793 -0.0180 -0.1163 -0.0920
20502W        W36396   1.921   2.853  14.054 -0.1301 -0.3121 -0.0823
20503W        W36397   8.283  10.782  12.239  0.0207  0.0289  0.0194
20504W        W36398  14.760  14.334  16.271 -0.0485  0.1598  0.3630
20505W        W36399   2.774  12.960  15.251  0.0315  0.2672  0.0184
20506W        W36400   0.637  16.574   2.693  0.0453  0.1444  0.2095
20507W        W36401   0.863   7.005  12.823 -0.1105 -0.1985  0.0249
20508W        W36402   9.799  14.082  14.041  0.2345  0.1199 -0.1262
20509W        W36403  13.405   5.653  11.573 -0.3355  0.1894 -0.3200
20510W        W36404   6.932  14.682   4.708  0.2665  0.0833  0.0715
20511W        W36405  14.153   3.885  15.867  0.1548 -0.2189  0.0213
20512W        W36406   6.494  16.551  15.718  0.2479  0.2936  0.0371
20513W        W36407  12.889   7.048  12.724 -0.0304 -0.0405 -0.4193
20514W        W36408   6.739   4.247  14.664  0.1160  0.1233 -0.0533
20515W        W36409   3.761   4.782  12.465  0.0166  0.0598 -0.2192
20516W        W36410   3.574   8.842   3.921 -0.3559  0.1693 -0.0741
20517W        W36411  14.124   8.944   0.727  0.0522 -0.0094  0.0586
20518W        W36412   7.256   0.247   5.072  0.1917  0.1877  0.0766
20519W        W36413   4.501  13.345   2.188  0.0397  0.1555  0.1813
20520W        W36414   3.464   7.723   2.454 -0.2056 -0.0507 -0.1874
20521W        W36415  17.820  13.479   3.591  0.3837 -0.0298  0.2715
20522W        W36416  10.240   8.862   5.469  0.1829  0.0049  0.4959
20523W        W36417  12.938   2.167   3.987  0.1163 -0.0098 -0.1477
20524W        W36418   7.515  14.113   0.647 -0.0409  0.1606  0.0811
20525W        W36419   6.403  14.207   3.576 -0.3356  0.0025 -0.2829
20526W        W36420  14.657  10.095   4.472  0.1317 -0.3500  0.1597
20527W        W36421  14.599  13.765   4.096 -0.2407  0.1103 -0.3080
20528W        W36422   0.297  11.073  15.723  0.0201  0.1401 -0.2017
20529W        W36423  16.833   7.889   5.883 -0.0167 -0.0415  0.0758
20530W        W36424   3.820  10.931   0.577  0.1874 -0.1433  0.0833
20531W        W36425  10.804   1.157  16.344 -0.1042  0.0051 -0.0787
20532W        W36426   4.765  11.655   4.261  0.1483  0.1045 -0.1760
20533W        W36427   3.599   2.110  12.891  0.1992  0.2883  0.0067
20534W        W36428  12.228   3.071  11.677  0.0361  0.1878 -0.1053
20535W        W36429   0.288   5.843   3.230  0.0318  0.0374  0.0604
20536W        W36430  15.473  11.296  16.487 -0.0342  0.1536  0.0620
20537W        W36431   7.791  10.675  14.752 -0.1444  0.2626  0.0703
20538W        W36432  14.620  16.923  15.066 -0.0318  0.0777 -0.0796
20539W        W36433   4.605  17.505  14.051  0.1769 -0.3512 -0.1391
20540W        W36434   5.808   8.029  14.729  0.1562 -0.1047  0.0906
20541W        W36435  11.139  11.805  16.252 -0.0304 -0.3106 -0.0353
20542W        W36436   8.668  14.387  14.261 -0.0474 -0.0767  0.1475
20543W        W36437   1.643  12.687  13.805  0.1822  0.3309  0.0831
20544W        W36438  15.916  17.062   2.813 -0.0603 -0.0532  0.2235
20545W        W36439  17.669   3.998  11.313  0.1062 -0.1752 -0.2794
20546W        W36440   1.960  16.260  12.376  0.3277 -0.1477 -0.0844
20547W        W36441  17.778  16.840  15.683  0.0171 -0.0379  0.1537
20548W        W36442  10.350   3.268  12.768  0.0485 -0.1744 -0.1023
20549W        W36443  14.450   7.978  14.338  0.2024  0.0233 -0.0213
20550W        W36444   7.078   4.357   3.099  0.0654  0.0436  0.0389
20551W        W36445  13.657   2.100  15.075  0.1084 -0.3249  0.3057
20552W        W36446  14.176   9.228   2.264 -0.1173 -0.1397 -0.0546
20553W        W36447  16.581  15.994   1.013  0.0624  0.0746  0.0214
20554W        W36448   4.312  17.339   2.630 -0.0144 -0.1379 -0.1039
20555W        W36449   3.023  14.443  15.805 -0.1894 -0.0433  0.0745
20556W        W36450  16.976   1.845   4.967 -0.1363  0.1526 -0.0343
20557W        W36451  17.105   0.210   2.723 -0.2210  0.0818 -0.0266
20558W        W36452   6.644  15.392  16.759 -0.0349 -0.0102 -0.0076
20559W        W36453   8.476   0.899   4.816  0.2604 -0.0038 -0.1630
20560W        W36454  11.442   4.929   5.834 -0.0168  0.2705 -0.4483
20561W        W36455   8.055   3.187   4.465  0.0496 -0.0457  0.0018
20562W        W36456   2.446   4.167   3.295  0.0518 -0.1679  0.1437
20563W        W36457  14.778  13.746   0.311  0.0644 -0.0117 -0.0297
20564W        W36458  16.576   5.317  14.240  0.0172  0.2250  0.2840
20565W        W36459  10.861   8.031   0.498  0.2370 -0.0566  0.2199
20566W        W36460   4.919  14.592  14.639 -0.1120 -0.1235 -0.0733
20567W        W36461  17.054   3.612   5.798 -0.1512 -0.1991 -0.2919
20568W        W36462  12.754  13.912  15.697  0.0693 -0.0367  0.1716
20569W        W36463  10.961   3.828   4.722 -0.0657 -0.0433 -0.0808
20570W        W36464   8.692  10.864  16.507  0.1435  0.0339  0.0057
20571W        W36465   2.973   9.564  12.659 -0.1601 -0.1758 -0.1485
20572W        W36466   8.865   3.305   5.462 -0.3485  0.2645  0.0788
20573W        W36467  12.917   8.513  15.085 -0.2274  0.0530  0.2165
20574W        W36468  15.407  17.714   4.321  0.0760  0.0396  0.1044
20575W        W36469   2.013  13.203  15.671  0.1013 -0.0220  0.2138
20576W        W36470   1.168  15.996   0.591  0.1065  0.1295  0.1203
20577W        W36471  12.978  15.639   5.052 -0.0437 -0.0360 -0.0005
20578W        W36472  12.621  15.692   2.142 -0.1506 -0.1581  0.1942
20579W        W36473   4.116  12.253   4.509 -0.0194 -0.0724  0.0338
20580W        W36474   2.325   2.077  14.285 -0.0904  0.0089 -0.2082
20581W        W36475  16.280   1.336  13.793 -0.2599 -0.1164 -0.2582
20582W        W36476  17.107  17.370   6.272 -0.2554 -0.1929  0.1833
20583W        W36477  11.127   6.098   0.317 -0.1604  0.2705 -0.1471
20584W        W36478  11.132   0.383  12.892 -0.2492  0.0942 -0.2274
20585W        W36479   7.410  12.118  11.444  0.0110  0.3806 -0.2487
20586W        W36480   8.470   9.679  16.603  0.2081  0.2022  0.3118
20587W        W36481   3.418  17.056  14.154  0.2265 -0.2868 -0.2883
20588W        W36482   6.545  10.229   0.306 -0.3114 -0.0229  0.3394
20589W        W36483  14.790   8.035   3.634 -0.1342  0.1096  0.1547
20590W        W36484  16.716   3.674   0.807 -0.0118  0.3529  0.1538
20591W        W36485  10.077  15.776  15.097  0.1093 -0.0224 -0.0747
20592W        W36486   4.643   7.460  16.689 -0.0217 -0.0558  0.0117
20593W        W36487   6.655  11.493   5.056  0.0146  0.0649  0.1805
20594W        W36488  15.099   7.933  13.103 -0.1734  0.2627 -0.3173
20595W        W36489  10.343  11.432   3.353  0.0265 -0.1474  0.0537
20596W        W36490  15.529   8.204  13.169  0.2441  0.0194 -0.1386
20597W        W36491   5.831   1.315   2.054 -0.3043 -0.0004  0.2029
20598W        W36492  12.702   5.983  13.326 -0.2801  0.1618 -0.0401
20599W        W36493   8.705  10.152  16.682  0.3137 -0.2346 -0.3943
20600W        W36494   7.301   8.120   3.154 -0.2785 -0.0761  0.0879
20601W        W36495   1.573   6.998   0.965  0.0918 -0.2483 -0.0217
20602W        W36496   3.062   7.764  15.631  0.0278  0.2687 -0.0652
20603W        W36497   9.019  11.277   0.658  0.1396 -0.1162 -0.2577
20604W        W36498  10.881  15.504   2.322 -0.1075 -0.0107 -0.1251
20605W        W36499   5.597  16.384  11.610 -0.2521 -0.0565  0.2245
20606W        W36500   2.549   1.925  13.848  0.0578  0.0076  0.0927
20607W        W36501   1.132   8.852  12.446  0.0430  0.0936  0.1550
20608W        W36502   5.546   7.935  12.885 -0.2028 -0.2485  0.0855
20609W        W36503  13.452  14.796  16.481  0.1725  0.0214  0.0443
20610W        W36504  10.103   0.805   0.082 -0.2075  0.1249 -0.3223
20611W        W36505  14.265  16.642  16.909  0.1027  0.1791 -0.0476
20612W        W36506  14.881  13.163  12.915  0.1367  0.1545 -0.3391
20613W        W36507   2.039   5.809   3.066 -0.2780  0.0617  0.2298
20614W        W36508   3.767  10.452   3.840 -0.1086  0.0464 -0.0640
20615W        W36509  13.327  13.193  14.197 -0.0710  0.3095 -0.0351
20616W        W36510   4.876  17.541  16.892 -0.0357 -0.0131  0.1249
20617W        W36511   0.890   4.735  16.181 -0.1288 -0.1128 -0.4131
20618W        W36512  14.633   1.938  10.418 -0.2155  0.0770  0.0510
20619W        W36513   7.946  14.017   0.278  0.1393 -0.1120  0.3107
20620W        W36514   0.910  10.564  12.127 -0.2017 -0.2756 -0.0572
20621W        W36515  12.973  12.905   2.450 -0.0314  0.0080 -0.1311
20622W        W36516  10.662   9.669  12.803  0.0928  0.0425  0.0974
20623W        W36517   8.479  14.633   5.302  0.2223 -0.0313  0.0652
20624W        W36518  13.385  14.939   0.924 -0.1415  0.3272  0.1139
20625W        W36519  14.127   0.243   4.340  0.2846 -0.2297 -0.0373
20626W        W36520   1.362   0.190  13.499 -0.2663 -0.0638  0.1342
20627W        W36521  13.957   3.591  13.724  0.0762  0.1323 -0.2247
20628W        W36522   6.991  11.930  13.186 -0.0559 -0.2191  0.2134
20629W        W36523  11.446   9.500   3.288 -0.0054 -0.2157 -0.0920
20630W        W36524   0.330  11.230  14.732  0.0612 -0.1030 -0.1009
20631W        W36525   9.865   4.211  11.892 -0.0165 -0.1895 -0.1067
20632W        W36526   6.156   3.218  16.327 -0.1258 -0.1681  0.2084
20633W        W36527   3.796   5.227  13.307 -0.2184  0.1565 -0.0821
20634W        W36528  11.628  10.154   4.704 -0.1866 -0.0219  0.1048
20635W        W36529  13.791  10.586  14.565 -0.1636 -0.0830 -0.0125
20636W        W36530  15.998  13.227   6.924 -0.1809 -0.0041  0.1842
20637W        W36531   2.749  16.660  12.505  0.1195  0.0292  0.3357
20638W        W36532   9.331   6.099   0.809  0.2023  0.0747 -0.0372
20639W        W36533   3.530   6.116  13.816  0.1667  0.0838  0.0100
20640W        W36534   9.821  17.077  15.388  0.0215 -0.5697  0.1139
20641W        W36535   5.607  10.296   0.022 -0.0965 -0.1729  0.2555
20642W        W36536   2.114  11.293   3.073 -0.2186 -0.4205  0.2031
20643W        W36537  11.776  14.754   3.578 -0.1220  0.1621  0.0710
20644W        W36538   3.015   7.028  12.594  0.0334  0.0065 -0.1188
20645W        W36539   6.874  15.837  14.899 -0.1753 -0.3519 -0.0684
20646W        W36540   0.295  13.193   2.885  0.0294  0.0024  0.0045
20647W        W36541   5.553  11.448   4.102 -0.0423 -0.1343 -0.1001
20648W        W36542  13.008   3.821  13.943  0.4308 -0.0249  0.0412
20649W        W36543   0.791   4.966  15.057 -0.0395 -0.0076 -0.0419
20650W        W36544  11.455   7.452   4.854 -0.2175  0.0835 -0.0015
20651W        W36545   7.001   2.134   2.662 -0.2632 -0.1352  0.0762
20652W        W36546   6.808  17.762   1.093  0.2791  0.2955  0.0922
20653W        W36547   7.778   9.674   1.733 -0.0494 -0.1715  0.0285
20654W        W36548   1.989  16.546  15.584 -0.1106 -0.1874 -0.0346
20655W        W36549  10.397   8.914   0.531  0.3056  0.0773 -0.2412
20656W        W36550  12.919   9.441  16.190  0.2062 -0.1345 -0.1262
20657W        W36551  14.996  15.270  13.659 -0.2394  0.0756  0.2406
20658W        W36552  10.134   9.730   3.349 -0.2565 -0.0203 -0.2905
20659W        W36553  13.826   2.522   5.381  0.1601 -0.0524  0.4749
20660W        W36554   0.946  15.261   1.197 -0.0305  0.1916  0.0642
20661W        W36555   1.802  10.488   2.653  0.0595  0.3157  0.3671
20662W        W36556  12.571  15.630   0.747  0.0489  0.2443  0.0814
20663W        W36557   9.547  16.821  14.427 -0.2242 -0.1111  0.1098
20664W        W36558  10.955   8.760   3.318  0.2721  0.3416 -0.0407
20665W        W36559   2.942   1.570   3.336 -0.2274  0.0636  0.0379
20666W        W36560   7.686   5.719  15.685  0.1069  0.1422 -0.0207
20667W        W36561  10.917   0.854   3.305  0.0711  0.2705  0.3022
20668W        W36562   1.843  10.279  16.624  0.1702  0.3492  0.0335
20669W        W36563  15.179  17.403   0.329  0.2120  0.2912  0.5127
20670W        W36564  13.830   2.943  15.418 -0.1692 -0.2026 -0.2613
20671W        W36565  12.577  16.643   4.377 -0.2010  0.1827  0.2088
20672W        W36566   2.856   0.115  13.606  0.1698 -0.0615  0.0523
20673W        W36567   7.794   5.989  16.322 -0.1669  0.0402  0.1895
20674W        W36568   1.069   7.669  14.092 -0.3943  0.2420  0.2448
20675W        W36569  16.741   2.781  13.326  0.1265  0.2392 -0.1008
20676W        W36570   8.242   0.168  13.839  0.3143 -0.0631 -0.0493
20677W        W36571  14.357  11.548  13.388  0.0752 -0.1608  0.0486
20678W        W36572   4.976  12.257   0.121 -0.1114 -0.0923 -0.1071
20679W        W36573  16.229   5.294   4.573  0.0249  0.0340 -0.1183
20680W        W36574  13.956  16.728  16.392 -0.0693 -0.2431 -0.0158
20681W        W36575  10.758  13.043  12.007  0.2441  0.1080  0.0436
20682W        W36576   4.581  10.051   4.260 -0.0421  0.2931 -0.0563
20683W        W36577  14.018   7.153   5.638  0.2421 -0.1649  0.1532
20684W        W36578  16.355   8.201   5.219 -0.1254  0.1804 -0.3804
20685W        W36579   0.261  10.760   1.688 -0.0842 -0.2767  0.0652
20686W        W36580   5.208   8.217   5.978 -0.0263 -0.0503  0.0451
20687W        W36581  16.313  15.582  15.443 -0.2075 -0.0069 -0.0365
20688W        W36582   3.491   2.281   4.497 -0.0960  0.4106  0.1966
20689W        W36583  12.454   3.390  16.027 -0.1578 -0.1223 -0.2228
20690W        W36584   6.267   6.663   6.222 -0.1588 -0.0540  0.1432
20691W        W36585  10.169   2.585   4.371 -0.0873 -0.2144  0.2264
20692W        W36586  11.641  13.491   5.243  0.0836  0.1855 -0.0212
20693W        W36587  12.178   0.402   1.914  0.4432  0.3674  0.1395
20694W        W36588   2.066  16.489   0.481  0.0359 -0.3974  0.2240
20695W        W36589   0.265   5.548   3.638 -0.3064 -0.0713 -0.2127
20696W        W36590  10.403  17.730  14.147  0.1708  0.0126 -0.0106
20697W        W36591   7.441   9.717  13.657 -0.0333 -0.2215  0.1646
20698W        W36592  12.093  10.030   4.791  0.2380  0.0503  0.0683
20699W        W36593   9.397   8.415  11.974 -0.1132 -0.0491  0.0886
20700W        W36594   7.378   6.410   5.095  0.2129 -0.0826  0.0737
20701W        W36595  14.457  12.311  16.278 -0.1076 -0.0666  0.0144
20702W        W36596  11.160  11.848   3.381 -0.0777 -0.2708  0.0594
20703W        W36597  10.768   2.452   3.424  0.0626 -0.0537 -0.0154
20704W        W36598  15.779   8.350   4.592 -0.0014 -0.3661 -0.0253
20705W        W36599  13.946   9.077  14.199 -0.2848  0.0873 -0.2158
20706W        W36600   3.990   6.995  13.589 -0.2351 -0.0253 -0.0238
20707W        W36601  16.121  12.002   3.322 -0.0936 -0.1886 -0.0329
20708W        W36602   6.857   4.127  12.064 -0.1745  0.1421 -0.1501
20709W        W36603   7.838  16.067   4.135 -0.2368 -0.1977  0.1180
20710W        W36604   3.746   5.038   2.391  0.0929  0.0722 -0.3236
20711W        W36605  14.658  15.463  11.512 -0.2744 -0.3386 -0.1263
20712W        W36606   2.771   8.243   2.429  0.1516  0.1797 -0.3458
20713W        W36607  10.941   6.196  14.574 -0.0320  0.1300  0.0821
20714W        W36608  12.767   8.805   0.046  0.2694  0.1243  0.0007
20715W        W36609   5.966   5.992   4.014 -0.0760  0.0534 -0.1451
20716W        W36610  13.225  14.395  16.357  0.0322 -0.1244  0.2480
20717W        W36611  10.726  14.197  11.997  0.4402 -0.0558 -0.1844
20718W        W36612  15.343  11.731   5.163  0.2012 -0.1694  0.4189
20719W        W36613   0.488   1.195   3.209  0.0159 -0.0253  0.3234
20720W        W36614   6.254  13.094   0.683 -0.3201  0.2224  0.1125
20721W        W36615  11.523   4.975  15.504 -0.0303 -0.0745  0.0285
20722W        W36616   8.111   6.815  16.713  0.1894 -0.0529 -0.0704
20723W        W36617   3.691  14.067  15.381 -0.1279  0.3073  0.0878
20724W        W36618   7.070   3.241   5.109  0.0960 -0.2236  0.0591
20725W        W36619  17.140   3.330   4.935 -0.0528 -0.1954  0.2923
20726W        W36620  15.968  13.923   4.103  0.1781  0.4359 -0.2845
20727W        W36621  11.135   4.845   4.195  0.1074 -0.0164  0.0957
20728W        W36622   7.325  14.396  12.001  0.2694  0.1661  0.2454
20729W        W36623  10.236  13.481  15.167 -0.0280  0.2886 -0.2432
20730W        W36624  12.842   0.595  14.282 -0.0407  0.2425  0.0054
20731W        W36625  15.226   9.119  12.584  0.6347  0.1412 -0.1466
20732W        W36626  15.627   7.017  15.741  0.2064  0.1141  0.0435
20733W        W36627  16.704  16.013  11.506  0.0448 -0.3220 -0.1909
20734W        W36628   8.969   8.908   0.000 -0.2943  0.0332  0.2810
20735W        W36629   0.014   8.977   5.542  0.0357 -0.1996 -0.2672
20736W        W36630   4.604   3.438  13.658 -0.2046 -0.1744 -0.1056
20737W        W36631   6.483   2.984   2.728  0.2704 -0.0583 -0.1249
20738W        W36632   5.765  14.045   2.056  0.3088 -0.0479 -0.0388
20739W        W36633  16.059   3.230  12.738  0.1597 -0.1302 -0.1950
20740W        W36634   9.203  11.075   1.256 -0.1991  0.2928 -0.1357
20741W        W36635   6.507   3.814  14.449 -0.0865  0.0483  0.2516
20742W        W36636  13.580   5.776   2.013  0.3604 -0.0749  0.0588
20743W        W36637   5.669  12.072   3.375  0.1580 -0.2037 -0.2050
20744W        W36638   1.849   2.263   2.207 -0.0686  0.2286 -0.0920
20745W        W36639   6.031   0.849  11.610  0.1389  0.2806 -0.4405
20746W        W36640  11.853   8.707   2.057 -0.1070 -0.3918  0.0968
20747W        W36641   8.994   6.625  11.805 -0.0342  0.0924 -0.0882
20748W        W36642   0.137   4.732   1.580  0.1035 -0.0951 -0.0246
20749W        W36643  10.131  12.900  15.169 -0.0564  0.0697  0.0458
20750W        W36644  14.467  15.556  15.935 -0.3751 -0.1036 -0.1791
20751W        W36645  17.731  15.295  16.193  0.0692 -0.0122 -0.3878
20752W        W36646   2.671   4.699   5.637  0.0315  0.0163 -0.2511
20753W        W36647   7.611  10.159   1.809  0.0728 -0.2447  0.3857
20754W        W36648  14.820   5.699   1.730  0.3011  0.1138  0.0577
20755W        W36649   1.723  16.638  15.187  0.3658 -0.2012  0.0713
20756W        W36650  16.988   3.377   2.540  0.1909 -0.1249 -0.1245
20757W        W36651   0.022  17.516   3.329  0.1441  0.2369  0.0193
20758W        W36652  11.042   0.057   4.325 -0.1057 -0.0656  0.0639
20759W        W36653  17.302  14.628   1.197 -0.0184  0.1651  0.3938
20760W        W36654  16.760  10.101   5.642 -0.0182  0.1798 -0.0492
20761W        W36655  10.477   4.019  16.022 -0.1663  0.1302  0.0635
20762W        W36656  17.125   5.275   1.515  0.0454  0.1926 -0.2002
20763W        W36657   7.616   6.445   4.560  0.0320 -0.3563 -0.1488
20764W        W36658  15.256   5.554  11.603  0.1544 -0.2292  0.4553
20765W        W36659   6.467   5.967  12.084  0.1463  0.1528  0.4020
20766W        W36660   2.099   2.698  13.023  0.0302 -0.0367 -0.3087
20767W        W36661   8.858   3.528   0.704 -0.1891  0.1537  0.0085
20768W        W36662  16.233  15.430  16.767 -0.1128  0.0138  0.2348
20769W        W36663   5.487   5.976   2.613  0.5543  0.1613  0.3824
20770W        W36664  14.198  11.687  15.228  0.0823 -0.1280 -0.1467
20771W        W36665   2.644  12.463   5.049 -0.3434 -0.2506  0.1366
20772W        W36666  16.277   6.870  13.202  0.0794  0.0076 -0.1293
20773W        W36667   8.679  12.344  14.391  0.2045 -0.1778  0.0802
20774W        W36668  15.752   6.850  16.435 -0.1219  0.0760 -0.2938
20775W        W36669  16.023  14.016   3.095 -0.0045 -0.0742  0.1827
20776W        W36670   0.401   7.163  12.670  0.0690  0.3112  0.1733
20777W        W36671   0.688  15.997  12.719  0.3155 -0.0237 -0.1131
20778W        W36672   1.572   3.153  11.039 -0.1442 -0.0021 -0.0299
20779W        W36673   1.777   3.980  14.717  0.2913 -0.0690 -0.1058
20780W        W36674   3.834  14.075  14.259  0.2095 -0.0944 -0.2221
20781W        W36675   0.751   4.874  12.984 -0.2447 -0.3414  0.2419
20782W        W36676   6.747   4.633  12.751 -0.2340 -0.0607  0.2641
20783W        W36677  13.924   7.346  11.864 -0.0935  0.0814 -0.1666
20784W        W36678  12.194   8.676  16.097 -0.2065  0.0173  0.1529
20785W        W36679   3.400  10.017   1.089 -0.0149  0.1866 -0.0817
20786W        W36680   2.104  17.343  13.886  0.0995 -0.3012 -0.2922
20787W        W36681   0.624  14.983   3.520  0.0512  0.4009  0.1711
20788W        W36682   4.614   3.080   0.095 -0.2136 -0.1697 -0.1128
20789W        W36683   4.913   6.936   5.287 -0.1211 -0.0585 -0.0470
20790W        W36684  17.435  11.652  15.444 -0.1498  0.0849  0.0173
20791W        W36685  11.827   7.867   0.633  0.1485 -0.0760  0.0901
20792W        W36686  13.645  17.207   2.362  0.1104  0.0234  0.1811
20793W        W36687   8.486  17.477  14.615 -0.2556 -0.2209  0.2064
20794W        W36688   4.340  16.289  14.598 -0.2881 -0.0329 -0.0632
20795W        W36689   6.004   1.617  12.013  0.1947 -0.1991  0.0581
20796W        W36690   8.125  12.872  16.138 -0.0998 -0.3808  0.0949
20797W        W36691   2.796   4.454   5.167  0.2320  0.3125 -0.0190
20798W        W36692  10.173   0.692   2.532  0.0761  0.0069  0.1712
20799W        W36693  13.099   5.883   2.857 -0.2073  0.0622  0.0259
20800W        W36694  15.362   5.638   3.116  0.1064  0.2629  0.0927
20801W        W36695  13.222  16.678  11.625 -0.2399  0.1845 -0.2979
20802W        W36696  16.453  15.693  16.278  0.1076 -0.1277 -0.0630
20803W        W36697  10.641   7.209   4.156 -0.1026 -0.0366 -0.0156
20804W        W36698  17.850  14.249   1.252  0.1615 -0.1329 -0.0941
20805W        W36699   1.740  11.124   3.354  0.3686 -0.2434 -0.2530
20806W        W36700   4.329  17.507   4.368 -0.0426  0.0366 -0.0220
20807W        W36701  12.653   1.007  11.766  0.0041  0.1144 -0.0885
20808W        W36702   0.784   5.154  11.637 -0.0561  0.1474  0.2504
20809W        W36703   9.704   2.378  13.126 -0.3706 -0.3480 -0.0716
20810W        W36704  16.845   8.711  12.154 -0.0520  0.0854 -0.3197
20811W        W36705  17.240  10.416   1.548  0.0099  0.1192  0.2663
20812W        W36706  16.661   7.060   3.445 -0.1868  0.2531 -0.1490
20813W        W36707  16.797  10.823  14.712  0.0522  0.0033 -0.2310
20814W        W36708  14.343  15.010  14.671  0.2911 -0.1130 -0.0470
20815W        W36709  15.382  15.377  16.101 -0.0301 -0.1468  0.1196
20816W        W36710  17.689   8.769   1.543 -0.2085  0.2038  0.0353
20817W        W36711   3.275   3.742  11.355  0.1738 -0.0501  0.2971
20818W        W36712  17.190  12.533   1.628 -0.1039 -0.1807  0.2313
20819W        W36713   2.984  15.203   0.498  0.1396 -0.0079  0.2104
20820W        W36714   1.531  13.957  14.088 -0.2083 -0.2166 -0.0347
20821W        W36715  12.346   0.160  15.564 -0.0835  0.1777  0.0143
20822W        W36716   7.133  12.376  16.070  0.0415 -0.3529  0.0258
20823W        W36717   7.257   8.529  14.402  0.1110  0.0632  0.0661
20824W        W36718   5.662   2.553  13.960  0.1562  0.0859  0.0657
20825W        W36719   2.783  12.071   2.918 -0.1263 -0.1072  0.0163
20826W        W36720   4.180  14.830   2.349  0.0425  0.1564  0.1855
20827W        W36721   9.789  17.681  14.646 -0.2307  0.0054 -0.2306
20828W        W36722  12.830  16.389   3.366 -0.1934 -0.1089  0.0975
20829W        W36723   9.980   1.196   5.659 -0.1085 -0.0431  0.1674
20830W        W36724   1.188   7.188  14.195  0.0894 -0.1518 -0.0773
20831W        W36725   7.649   9.645  11.929 -0.0954 -0.3167  0.1477
20832W        W36726   9.775  16.556   4.458  0.2403  0.0349 -0.0731
20833W        W36727  16.149   8.587   5.457 -0.0698 -0.0649 -0.2788
20834W        W36728   4.526   1.937  13.352  0.0820 -0.0809  0.1525
20835W        W36729   0.801   2.076  10.086 -0.2615 -0.0091 -0.0827
20836W        W36730   6.111  12.452  11.861 -0.0622 -0.0883 -0.3234
20837W        W36731   9.692  15.290   4.614 -0.0600  0.0486 -0.1641
20838W        W36732   3.327  17.008  16.917  0.1242  0.1735  0.2016
20839W        W36733   8.207   2.348  15.311  0.1047  0.1057  0.0817
20840W        W36734   6.828  15.825  12.480 -0.3143 -0.3145 -0.4450
20841W        W36735  15.538  14.274   0.525 -0.2008  0.1583 -0.1724
20842W        W36736  16.832   0.091  16.695 -0.0168 -0.0855 -0.1105
20843W        W36737  13.919  14.834  16.175  0.1710 -0.1117  0.1802
20844W        W36738  14.880  17.586   0.748  0.0210 -0.2087  0.3253
20845W        W36739  10.585  12.631   1.035 -0.1110 -0.1619 -0.2215
20846W        W36740   2.386   4.538  11.667 -0.2665 -0.0746 -0.3877
20847W        W36741  11.677   4.551  16.333  0.1022  0.0565  0.0221
20848W        W36742  12.683   1.657   2.088  0.0332  0.0406 -0.1596
20849W        W36743   4.226   8.492  11.953 -0.1080  0.2560  0.1155
20850W        W36744   1.513   6.041   2.731  0.1601  0.0203 -0.0869
20851W        W36745   1.359  16.938   3.309 -0.2173 -0.2346  0.1972
20852W        W36746  15.985  11.380  15.530  0.2175 -0.0273 -0.2781
20853W        W36747   4.103  16.751   1.249 -0.2211 -0.0590  0.1073
20854W        W36748  11.757   4.077  16.832  0.0602  0.3841 -0.0723
20855W        W36749   4.494  17.141   3.990  0.2693 -0.1583  0.0745
20856W        W36750   9.627  11.216   2.236 -0.0328  0.2151 -0.1688
20857W        W36751  15.635   5.231  11.715  0.2814  0.3438 -0.0304
20858W        W36752   5.985   7.721  12.322  0.0927 -0.1141  0.0855
20859W        W36753  15.436  16.664   1.518  0.3172 -0.1660 -0.0696
20860W        W36754  16.079  17.775  12.788 -0.2622 -0.1966 -0.3036
20861W        W36755   6.400  17.447   4.555 -0.3391 -0.2791 -0.0896
20862W        W36756  11.785   3.133  11.340 -0.0813  0.0797  0.0651
20863W        W36757  17.293  13.080   1.016  0.1220  0.2567  0.2659
20864W        W36758   6.586   7.917   4.942 -0.0121 -0.0012  0.3383
20865W        W36759   4.838  14.936  13.798  0.0377  0.1219 -0.0590
20866W        W36760   3.261   3.695   1.968  0.0958  0.0465  0.3283
20867W        W36761  12.928  10.301   2.469 -0.0101  0.2638 -0.0456
20868W        W36762   4.365   5.762  13.869  0.0081 -0.1175  0.1606
20869W        W36763  14.819   0.396  12.004 -0.0221 -0.0173 -0.0632
20870W        W36764  11.685   0.949  11.873  0.3712 -0.2587  0.1756
20871W        W36765  10.933   9.743  14.460  0.0757  0.0287  0.0685
20872W        W36766  17.505  12.262   2.229  0.1824  0.1583 -0.0845
20873W        W36767   8.040  14.516  13.157 -0.1663  0.0937 -0.2107
20874W        W36768  11.076   4.725   4.736  0.3360  0.0104  0.0928
20875W        W36769   7.433   9.987  15.236 -0.4491 -0.1185 -0.0317
20876W        W36770   0.304  15.252   5.294  0.1312  0.1905  0.1421
20877W        W36771  10.843  14.122  15.340 -0.3642  0.1556  0.0925
20878W        W36772  15.870  15.454   2.914  0.0557  0.4683 -0.0935
20879W        W36773   7.973   8.758   0.200  0.2039 -0.3450  0.1038
20880W        W36774  10.486  12.844   2.186 -0.1483 -0.1182 -0.0286
20881W        W36775  13.628  13.915   5.519 -0.0168 -0.1529 -0.4000
20882W        W36776   7.022   4.871   1.491 -0.1064  0.2783 -0.0606
20883W        W36777   5.842  17.686   5.413  0.1106  0.3380  0.2219
20884W        W36778  15.840   2.024  11.708 -0.2413 -0.3995  0.2697
20885W        W36779   1.417   6.179  12.969 -0.2221  0.1827 -0.0163
20886W        W36780   0.114  14.743  16.424  0.1393  0.1792  0.0425
20887W        W36781   8.894  12.144   4.447 -0.0542 -0.0532  0.0165
20888W        W36782  17.812  17.399   4.615  0.1675  0.0419 -0.1030
20889W        W36783  14.173   5.034   2.682 -0.2179  0.2109 -0.1716
20890W        W36784   5.272  13.739   4.815 -0.2784 -0.0683  0.0207
20891W        W36785  10.445   7.099  12.640  0.1783  0.0302  0.1799
20892W        W36786  12.651  15.196   1.287 -0.1503  0.1282  0.2007
20893W        W36787   2.617   1.374  13.961  0.1507 -0.1487 -0.1763
20894W        W36788   4.925  16.667  15.190  0.1913 -0.0352  0.0279
20895W        W36789   2.703  14.590   4.207  0.2354  0.0994  0.0879
20896W        W36790  14.773   3.713   1.811 -0.0732  0.1388  0.1383
20897W        W36791  11.127   0.026   0.673 -0.0761  0.0908  0.0829
20898W        W36792   2.109  12.845  12.625 -0.3046  0.0189 -0.0482
20899W        W36793   2.383   2.300   4.162 -0.2526  0.0275  0.2827
20900W        W36794   7.780  11.999   3.255 -0.0122  0.1856 -0.0626
20901W        W36795   2.883  16.042  15.922  0.4900  0.0739  0.1530
20902W        W36796   3.901   4.523   3.156  0.0765 -0.0684 -0.1357
20903W        W36797   6.968   8.559   2.907  0.3855 -0.2382  0.0765
20904W        W36798  13.522  10.176  16.658  0.0777  0.1631  0.1050
20905W        W36799  16.768   8.607   4.287  0.0150  0.1352 -0.0313
20906W        W36800   8.344   9.697   0.499 -0.0977  0.0982 -0.1076
20907W        W36801  14.788   6.824   5.264 -0.0354 -0.1297 -0.2719
20908W        W36802   9.427   4.357   2.669 -0.1948 -0.3078  0.1764
20909W        W36803   3.206  10.556  13.402 -0.0822  0.2845  0.0187
20910W        W36804  15.539   2.842  11.821  0.2776  0.2119 -0.0773
20911W        W36805  13.216   7.486   3.637  0.0547  0.0878  0.1733
20912W        W36806  12.470   5.922   5.423 -0.0642 -0.0818  0.0082
20913W        W36807   1.544  17.748  13.146 -0.3638  0.0620 -0.1556
20914W        W36808  13.721   2.809  14.622 -0.1570 -0.2711  0.1885
20915W        W36809   6.195   9.064   2.681  0.1682  0.2749  0.0872
20916W        W36810  16.340   3.944  12.082 -0.1104  0.1821 -0.0819
20917W        W36811  11.872  17.828   1.951  0.2157  0.3840  0.1458
20918W        W36812  12.539   2.992   0.416  0.2067  0.2252  0.0451
20919W        W36813  10.462   9.977   4.482 -0.0162 -0.1280  0.1408
20920W        W36814   8.390  10.091   4.998 -0.3059 -0.2135 -0.0516
20921W        W36815   5.551  15.946   3.612 -0.1257  0.2316  0.2574
20922W        W36816  14.590   5.914  16.527  0.1402  0.0991 -0.1816
20923W        W36817  17.138   2.084  11.534  0.1572 -0.1587 -0.0284
20924W        W36818   9.112   3.408  12.297  0.1503 -0.0003  0.2598
20925W        W36819  10.084  12.245  10.777  0.2355  0.1235  0.1294
20926W        W36820   7.415   6.749   4.147 -0.0772  0.0822  0.1442
20927W        W36821   0.614   9.138  12.973 -0.3363 -0.0206  0.0958
20928W        W36822  15.432   7.690   1.094  0.2104 -0.0539 -0.0702
20929W        W36823   9.058  16.509   2.867 -0.0450 -0.0287 -0.1815
20930W        W36824   0.039   2.442  15.545  0.2197 -0.2214  0.2413
20931W        W36825  14.969   4.924   4.397  0.1795  0.2284 -0.0099
20932W        W36826   7.867  11.110   2.483 -0.3101 -0.0258  0.1231
20933W        W36827  13.144  10.638   4.949 -0.2893  0.1274 -0.0015
20934W        W36828  11.308   8.873   1.190 -0.1810 -0.0690  0.1822
20935W        W36829  10.652   7.762   2.673  0.0515 -0.1135  0.0411
20936W        W36830  11.333   4.345   4.213 -0.0455 -0.0167  0.2975
20937W        W36831  16.094  12.002   1.805  0.2496  0.1965  0.2972
20938W        W36832  11.921   2.033   4.958 -0.0655  0.0109  0.0284
20939W        W36833   6.801  14.116  13.416  0.1445 -0.1813 -0.3904
20940W        W36834  13.409   9.218   5.776  0.1337  0.1972  0.1342
20941W        W36835   0.042   9.227  14.576 -0.1506  0.0862  0.0490
20942W        W36836  10.495  12.496  13.110 -0.2218 -0.0955  0.0461
20943W        W36837  12.581  10.763   5.135  0.3842  0.1349  0.1570
20944W        W36838  10.885  13.390   0.560  0.2638 -0.1407  0.0181
20945W        W36839   7.700   3.757   1.062  0.1757 -0.0393 -0.0476
20946W        W36840   7.521   5.096   0.069 -0.0300 -0.2394  0.1698
20947W        W36841  13.794  14.341  15.867  0.1161  0.0385 -0.1551
20948W        W36842   5.693   5.054   5.244 -0.0075 -0.0208 -0.1392
20949W        W36843   5.445   8.144  16.373  0.0519 -0.2201  0.0964
20950W        W36844   6.386   1.169   3.330 -0.3329 -0.1769 -0.2564
20951W        W36845   1.150   7.681  12.256  0.2106 -0.1958  0.2145
20952W        W36846  13.198  14.879  12.855 -0.2477 -0.1784 -0.1638
20953W        W36847  12.109  14.522   3.296  0.3478 -0.2503 -0.0616
20954W        W36848   8.343   7.457  12.137  0.0130 -0.3147 -0.0724
20955W        W36849   1.180   8.868   4.500  0.0600 -0.0171  0.2147
20956W        W36850   2.095  15.199  14.080 -0.1953 -0.2567  0.2179
20957W        W36851   7.507  10.195  15.694 -0.0106 -0.0026  0.2947
20958W        W36852   5.783  13.054   4.032 -0.0341  0.2681  0.1242
20959W        W36853   5.269   9.829   0.678 -0.1103 -0.2182 -0.3015
20960W        W36854   5.038  12.569  15.972  0.0681  0.0900 -0.0739
20961W        W36855  16.012  13.547  16.885 -0.1979  0.1065  0.1708
20962W        W36856  15.384   6.933  15.309 -0.0721 -0.0060 -0.0878
20963W        W36857   1.267   7.701  15.488 -0.0612 -0.1905  0.0820
20964W        W36858  17.300   1.153  14.117  0.0045  0.0950  0.0084
20965W        W36859  15.500   2.678   1.325  0.2849 -0.0895  0.0980
20966W        W36860   9.371  10.276   2.971 -0.1186  0.2382 -0.1129
20967W        W36861  10.037   5.045  14.935 -0.3028  0.0723  0.1217
20968W        W36862   7.662  10.341  16.618  0.5380 -0.2369  0.2287
20969W        W36863  11.347   3.214   5.787  0.2350 -0.0122 -0.1192
20970W        W36864   2.819   6.555  16.044 -0.0010  0.0059  0.2438
20971W        W36865   8.741   7.190   0.577 -0.1339  0.0125  0.0524
20972W        W36866  12.123   6.665  16.349  0.1293  0.2032  0.0278
20973W        W36867   0.546   8.228  13.551 -0.1755  0.2561 -0.0174
20974W        W36868   4.835   8.972   0.851  0.0183  0.4423  0.1874
20975W        W36869  14.396   9.231   5.552 -0.1235 -0.0228 -0.0235
20976W        W36870   7.128   9.960   1.458  0.0918 -0.0979  0.3539
20977W        W36871  16.545   7.922   4.176  0.0966  0.1198  0.3666
20978W        W36872  13.825  13.180   4.620 -0.0245  0.0555 -0.1807
20979W        W36873  16.864  17.466   2.521  0.1260 -0.0620 -0.0829
20980W        W36874   0.665   6.461  13.329  0.0626  0.0059 -0.0492
20981W        W36875   2.693  15.621   3.337 -0.1786  0.0438  0.1152
20982W        W36876   7.635   3.171   4.205  0.0270  0.1260 -0.2095
20983W        W36877  12.238   8.633   0.140  0.1879 -0.0268 -0.0765
20984W        W36878   7.809  15.255  13.474  0.1639 -0.1901  0.0633
20985W        W36879  10.940   1.320  12.357 -0.0480 -0.2387  0.1031
20986W        W36880  11.626  16.300  11.844 -0.2125 -0.2037  0.1574
20987W        W36881   0.947  15.474  12.186  0.0724 -0.1090  0.1138
20988W        W36882   5.719  17.719  15.475 -0.2085 -0.0738  0.2218
20989W        W36883   0.354   7.745  13.320  0.2041  0.2505 -0.0322
20990W        W36884   8.836   6.996  14.646  0.2978 -0.3100  0.0506
20991W        W36885   9.303  17.368   4.458  0.0052  0.3107 -0.2760
20992W        W36886  10.973   5.584  15.068  0.3830  0.0950 -0.1337
20993W        W36887   2.050  11.932   0.433 -0.2904 -0.0456  0.0246
20994W        W36888  14.048  15.106  13.740 -0.2894  0.2444 -0.2191
20995W        W36889  10.074   1.325   1.421  0.0288  0.2547 -0.0993
20996W        W36890   8.199   6.740   2.791 -0.0856 -0.0094 -0.1063
20997W        W36891  15.622  12.045  15.329  0.0812  0.1324 -0.2614
20998W        W36892  14.638   9.195   6.431 -0.1130  0.1341  0.0261
20999W        W36893   6.437   2.383  14.433 -0.1272  0.3171  0.1519
21000W        W36894  15.326  17.607   4.840  0.0490 -0.2351  0.0974
21001W        W36895   4.759  10.339   3.817  0.0508 -0.1655 -0.1589
21002W        W36896   7.233   2.217   3.622  0.1467  0.1753 -0.1220
21003W        W36897  11.825   1.560  12.210  0.2660 -0.3538 -0.1958
21004W        W36898   7.107  17.605   0.697 -0.2178 -0.1612 -0.1524
21005W        W36899  10.442   2.335  12.031  0.2107 -0.1874  0.0771
21006W        W36900  12.129  17.452  10.849 -0.0381 -0.4494  0.0991
21007W        W36901   1.497   0.938  13.396 -0.2497  0.0419  0.1318
21008W        W36902  12.312  11.407  15.114 -0.1187  0.4364 -0.1572
21009W        W36903  16.217   5.330  14.854 -0.2036  0.2664  0.0202
21010W        W36904  11.362   8.609   3.854 -0.1531 -0.2029  0.0095
21011W        W36905   0.034  16.461   1.019 -0.2109 -0.1426 -0.2466
21012W        W36906  17.457  15.623   5.736  0.0497 -0.0037  0.1498
21013W        W36907  17.231   0.894   3.222  0.0487  0.0445  0.0137
21014W        W36908   7.047   6.736   2.814  0.1641 -0.3035  0.1555
21015W        W36909  16.398  16.834  16.846  0.1259  0.0192  0.1014
21016W        W36910  17.425  14.106   4.380  0.1580 -0.0627 -0.1179
21017W        W36911   9.971   5.886  12.197 -0.2631 -0.0355 -0.2992
21018W        W36912   6.705  10.748   1.716 -0.1969  0.2688 -0.1064
21019W        W36913  11.523  10.840   1.760  0.2777 -0.0343  0.2754
21020W        W36914   4.856  17.526  11.555  0.1766 -0.2071 -0.0607
21021W        W36915   4.713   7.502  11.139 -0.0919 -0.0218 -0.1998
21022W        W36916   6.178   3.324  12.285 -0.1122 -0.0191  0.0004
21023W        W36917   6.914   9.589   2.786 -0.0125  0.0795 -0.0260
21024W        W36918   7.269   5.513   3.098  0.2715 -0.1036  0.1570
21025W        W36919   2.377  12.362  13.870  0.3492 -0.2765  0.0536
21026W        W36920   6.863  14.391   3.769  0.4358 -0.0796 -0.1018
21027W        W36921  10.167   0.173   3.023 -0.1629  0.0241  0.2950
21028W        W36922   9.030   4.473  15.987  0.1650  0.0060 -0.1585
21029W        W36923   8.469   5.899  14.953  0.2232 -0.1631  0.1157
21030W        W36924   0.445   9.450   3.646 -0.1910  0.1096  0.0463
21031W        W36925   8.086  11.594  12.286 -0.1467  0.0038 -0.2401
21032W        W36926   8.724   0.487   5.320  0.1585 -0.0098  0.1227
21033W        W36927   1.814   1.999  14.346 -0.2719 -0.0139  0.1385
21034W        W36928  11.363  17.206   0.816 -0.2404  0.1058  0.0240
21035W        W36929   6.820   6.524   3.408  0.1778 -0.0991  0.2420
21036W        W36930   4.180   2.256   3.620 -0.0720  0.1293 -0.0620
21037W        W36931   5.785  11.220  12.025  0.1770 -0.1686  0.2089
21038W        W36932   1.548   6.970   2.143 -0.0865  0.2035 -0.3869
21039W        W36933  10.589   0.603  16.924 -0.0300  0.0474  0.0820
21040W        W36934  13.742  10.291  14.965  0.0624 -0.2663 -0.1251
21041W        W36935   0.607   2.425  13.656  0.2274 -0.0403 -0.3555
21042W        W36936  16.239  13.414  15.529 -0.1539 -0.2429  0.0127
21043W        W36937  17.244   8.625   3.930  0.0108 -0.1339 -0.2348
21044W        W36938   6.903   1.505  13.008  0.2120  0.0479  0.3797
21045W        W36939  14.058   1.332   2.474  0.0539 -0.1643 -0.0801
21046W        W36940   1.038   6.303   4.780  0.0699  0.0437 -0.0053
21047W        W36941  12.215  11.725   0.307 -0.0822 -0.1105  0.3352
21048W        W36942   9.583  12.529   3.104 -0.0199 -0.1421  0.0911
21049W        W36943  17.566  10.771  12.309 -0.1970  0.2909  0.0799
21050W        W36944   3.447   4.848   5.157  0.1015  0.0326 -0.0859
21051W        W36945   4.956  13.157   5.181 -0.0966  0.0430  0.1881
21052W        W36946   1.080  17.311   4.217  0.0105  0.0086 -0.2679
21053W        W36947   8.253   6.459   0.576 -0.0519  0.1834 -0.1444
21054W        W36948  14.320   5.552  16.819  0.3092 -0.1401  0.2425
21055W        W36949  11.802   6.464   1.571 -0.2585 -0.3198 -0.1698
21056W        W36950   1.615  13.225  12.700  0.1946  0.2644 -0.2323
21057W        W36951  13.449   6.435   3.672 -0.1407 -0.0366 -0.0859
21058W        W36952   6.872  12.376   1.618 -0.0998  0.1150 -0.2025
21059W        W36953   0.949   6.035  13.274  0.0306 -0.0503  0.2143
21060W        W36954  12.726  14.661  12.765 -0.1244 -0.1794 -0.0256
21061W        W36955  14.144   5.018  14.794 -0.2324  0.1283  0.1816
21062W        W36956   2.147  10.027  14.029  0.2005  0.0334 -0.0032
21063W        W36957   8.378  13.434  14.014  0.0140 -0.0480 -0.2264
21064W        W36958  12.500  15.585  13.363 -0.1525  0.1666 -0.1368
21065W        W36959  12.762   3.029   3.245 -0.0774  0.0515 -0.0846
21066W        W36960   8.599   4.561   2.393  0.0091  0.0233 -0.0020
21067W        W36961   2.254   2.146   0.807 -0.0935  0.0068  0.2271
21068W        W36962  14.876  13.540   2.547 -0.2691  0.3001 -0.0717
21069W        W36963   0.349   0.210   5.047  0.1676  0.2601  0.3664
21070W        W36964  15.509  17.556   5.643 -0.2083 -0.0698 -0.2184
21071W        W36965   6.768  11.284  12.942  0.0456  0.0347 -0.0048
21072W        W36966   2.673   2.296   1.638 -0.3424 -0.0510 -0.0704
21073W        W36967  15.066  13.758   1.813 -0.0930 -0.0176  0.0095
21074W        W36968   7.308  15.895   4.679 -0.1318  0.1034 -0.2452
21075W        W36969  11.176   3.768   1.637 -0.1914 -0.1386  0.1775
21076W        W36970   2.736   6.912  14.112 -0.2808 -0.1492  0.1363
21077W        W36971   7.453   2.950   5.451 -0.1811 -0.0015 -0.0579
21078W        W36972   5.519   9.530  11.852  0.5194  0.4952  0.1607
21079W        W36973  12.477  16.739  12.200 -0.0819  0.1776  0.0220
21080W        W36974  12.240  14.115   4.064  0.2539  0.1361 -0.2720
21081W        W36975  14.616   2.078  13.151  0.2731 -0.0127  0.1047
21082W        W36976   7.421   7.053   2.700  0.0980  0.3161 -0.1713
21083W        W36977   3.035   4.882   3.220  0.4417 -0.0943  0.2148
21084W        W36978  16.383  17.006  14.991  0.0127  0.1712 -0.0352
21085W        W36979   2.409  16.925   2.053 -0.0131  0.0038 -0.0235
21086W        W36980   1.578   2.836  12.109  0.0640 -0.0347 -0.0695
21087W        W36981   8.744   0.895   1.369 -0.1312 -0.0464  0.0379
21088W        W36982  10.803   4.256  15.337 -0.2883 -0.2954 -0.2831
21089W        W36983  10.721  10.205  14.505 -0.3180 -0.0531  0.0448
21090W        W36984   0.814   7.993   2.121 -0.0257  0.1765 -0.0459
21091W        W36985   0.923   3.013  16.446 -0.1713  0.2331  0.0465
21092W        W36986  13.573   8.919   4.769 -0.1404  0.0223  0.0210
21093W        W36987  17.269  13.727   1.610  0.0742 -0.2060  0.4719
21094W        W36988   8.902  12.695  11.988 -0.3033  0.0505 -0.3167
21095W        W36989   3.192  15.906  16.261 -0.0659  0.0376  0.1924
21096W        W36990  15.487  15.523   1.405 -0.1822  0.0559  0.1382
21097W        W36991   2.601  10.056   4.758 -0.0197  0.0496  0.0934
21098W        W36992   8.615   8.158   6.033 -0.0506 -0.3148  0.4880
21099W        W36993   3.607  11.479  15.461  0.4293  0.0645  0.2245
21100W        W36994   1.923   5.190   2.746  0.1739  0.1993 -0.0292
21101W        W36995   4.399   6.075  13.389  0.1057  0.0737  0.0998
21102W        W36996  13.049   1.513   0.132  0.0909 -0.1440  0.2706
21103W        W36997   3.551   1.307  16.031  0.2997 -0.1976 -0.0016
21104W        W36998  11.150   4.837  11.953 -0.0686 -0.0213  0.0265
21105W        W36999   7.806  16.458  14.523  0.1961  0.0133 -0.0530
21106W        W37000   6.858   4.351  11.587 -0.1166  0.0722  0.2046
21107W        W37001  14.596   5.379   3.224 -0.0048 -0.1512  0.0011
21108W        W37002   3.633  11.973   6.596  0.0653  0.2995  0.2647
21109W        W37003   9.381   3.581  16.549  0.0776 -0.1010 -0.1366
21110W        W37004  15.110  15.870  13.911  0.1864 -0.0703 -0.0967
21111W        W37005  12.245   1.430  15.751  0.1556 -0.2070  0.2635
21112W        W37006   9.204  15.507   3.021  0.1460  0.1239  0.2479
21113W        W37007  15.150   6.804  14.092 -0.1779 -0.2140  0.0695
21114W        W37008  10.091   6.848   2.364 -0.1292  0.1475 -0.3181
21115W        W37009   7.255   1.584   5.766  0.1280 -0.0927 -0.1107
21116W        W37010   2.515   7.879  11.592  0.1070 -0.0777  0.3731
21117W        W37011   7.713  16.806   5.259  0.1258  0.0778  0.1898
21118W        W37012  11.603   2.459   2.487 -0.0607 -0.0436  0.1373
21119W        W37013  10.899   5.643  16.567  0.0030  0.2612 -0.0774
21120W        W37014   2.866   6.301  16.452  0.0897  0.2552  0.3178
21121W        W37015   8.187  17.248   5.110 -0.0505 -0.0772 -0.4323
21122W        W37016   1.624   9.034  11.425  0.1193 -0.3007  0.0151
21123W        W37017   4.787   6.140   1.511 -0.0618  0.2818  0.3949
21124W        W37018   5.968  10.023  11.371 -0.3395  0.1005  0.0737
21125W        W37019   7.624  17.457  14.194 -0.1700 -0.0092 -0.2660
21126W        W37020   0.824   3.044   5.913 -0.1933  0.0015  0.0824
21127W        W37021  16.011  16.999   1.325 -0.0060 -0.2059 -0.4341
21128W        W37022   4.375  15.605   4.061  0.1278  0.0422  0.0193
21129W        W37023   0.086   3.783  11.665 -0.0337  0.0223  0.1820
21130W        W37024   4.294   6.248  14.682  0.0386  0.2605 -0.4992
21131W        W37025  15.982  11.022   3.726  0.1585 -0.4582 -0.0007
21132W        W37026  16.409  15.748  13.682  0.0100 -0.1118  0.1749
21133W        W37027  12.571  11.121   3.794 -0.3511 -0.1928 -0.1657
21134W        W37028  13.256  17.308   1.709  0.2000  0.1610  0.0174
21135W        W37029   8.041   9.184   3.513  0.3974  0.1885  0.2147
21136W        W37030   6.936  16.845  14.677  0.0920  0.1451  0.1287
21137W        W37031  11.541  12.507  12.112 -0.5307  0.1648 -0.1078
21138W        W37032   5.461   4.805   4.106 -0.0609  0.0961  0.0184
21139W        W37033   6.333   1.109   4.300  0.0365 -0.0504  0.2869
21140W        W37034  10.072   8.850   3.629  0.1592 -0.1844  0.1289
21141W        W37035   9.941  13.668   6.458  0.3463  0.1585 -0.1345
21142W        W37036   7.963  17.812  13.516  0.3734 -0.2635  0.1465
21143W        W37037   3.312   9.485   4.775 -0.2154  0.2108 -0.0344
21144W        W37038  13.818  10.739   4.003  0.3152 -0.3327 -0.2351
21145W        W37039  12.152  15.667  12.400 -0.3674  0.4396 -0.1320
21146W        W37040  16.344   4.029   4.095 -0.0069  0.0736 -0.1185
21147W        W37041  16.085  16.389   4.627 -0.0921  0.2896 -0.0163
21148W        W37042   7.027   5.680  12.781 -0.0745  0.1383 -0.1431
21149W        W37043   9.844   2.947   2.394 -0.0582  0.0267 -0.2613
21150W        W37044  10.523   4.440   5.860 -0.0370 -0.1884  0.1335
21151W        W37045  11.792  17.783  12.254  0.0316  0.1820 -0.0755
21152W        W37046  12.884   0.837   4.763 -0.4089  0.2311 -0.1962
21153W        W37047   9.912  15.570   1.108 -0.0731 -0.4452  0.1644
21154W        W37048  14.955  12.339  16.236 -0.0429  0.3075 -0.1200
21155W        W37049   7.178   7.521  12.456 -0.0201  0.1437  0.2161
21156W        W37050  10.011  15.374  14.755  0.0918 -0.0064  0.0470
21157W        W37051  10.012   3.575   4.559  0.0114 -0.0832  0.1902
21158W        W37052   6.439   9.035   0.096 -0.0294 -0.1473  0.0356
21159W        W37053  10.962   6.080  14.092  0.1601  0.4211  0.0274
21160W        W37054   2.863   3.470  11.441 -0.0828 -0.0474  0.1624
21161W        W37055  11.929   0.835   0.585  0.0995  0.1342  0.0778
21162W        W37056   6.489   2.688  10.525 -0.0892  0.3250  0.0807
21163W        W37057   6.864  15.087   1.355 -0.2020 -0.1353 -0.0165
21164W        W37058   4.218  14.119  16.804 -0.2905 -0.0721  0.1347
21165W        W37059  11.004   9.077   5.269 -0.1747 -0.0430 -0.0029
21166W        W37060   3.243   8.892   1.014 -0.1029 -0.1382 -0.0131
21167W        W37061   3.250  15.859   1.956 -0.2035 -0.2676  0.2239
21168W        W37062   6.387   7.082   1.858  0.1984 -0.0523 -0.1611
21169W        W37063   7.385   6.293  13.620  0.2396 -0.0767  0.0316
21170W        W37064   0.310  12.617  15.633 -0.0321 -0.1032 -0.0682
21171W        W37065   0.002   0.801   3.876 -0.2235 -0.0041  0.3461
21172W        W37066   3.471   0.854  11.950  0.1087  0.2674  0.3314
21173W        W37067  15.343   9.809   1.972 -0.0366  0.2791  0.3180
21174W        W37068  17.413   3.961  12.982  0.0636  0.1774 -0.0591
21175W        W37069   0.205   9.121  11.378 -0.1860  0.0994  0.0076
21176W        W37070  11.067  16.587   2.979  0.2947 -0.1412 -0.2609
21177W        W37071   6.379   5.544  14.139  0.0741  0.1713  0.2943
21178W        W37072   2.271   7.309  15.571  0.1256 -0.2330  0.0129
21179W        W37073  12.916  14.493   4.611  0.0967  0.2293  0.1367
21180W        W37074  17.498   4.959   2.647  0.2397  0.2140  0.0356
21181W        W37075   9.847   8.891   1.849  0.5406 -0.4414  0.0460
21182W        W37076  12.781   8.070  14.724  0.0725 -0.2494 -0.0434
21183W        W37077  13.529   4.039  12.661 -0.2611  0.1732  0.0339
21184W        W37078   9.206  15.821  12.109  0.2575 -0.0478  0.3293
21185W        W37079  16.657   0.569   0.371  0.0860  0.1083 -0.1481
21186W        W37080  17.692  10.294  12.683 -0.4230  0.0883  0.1414
21187W        W37081   7.476  16.506   2.006  0.2069 -0.0468 -0.0692
21188W        W37082  15.935  15.711  16.372  0.1351 -0.2023 -0.0573
21189W        W37083  16.080   6.940   5.354 -0.1415  0.0407 -0.0671
21190W        W37084  13.844   0.313  11.181  0.0666 -0.1458  0.0244
21191W        W37085   2.459  17.015   4.237  0.0629  0.1275 -0.1809
21192W        W37086  15.921   3.989  12.394 -0.0577  0.2829  0.2560
21193W        W37087  15.998   3.076   1.063  0.1031  0.0571 -0.1881
21194W        W37088   6.090   0.230   3.176  0.1103  0.1225  0.0213
21195W        W37089   1.672  11.454  15.861  0.3190 -0.3135 -0.0671
21196W        W37090  14.642   2.635   0.681 -0.2240 -0.2377  0.1487
21197W        W37091   4.183   2.595  15.776  0.1005  0.1133 -0.2232
21198W        W37092  10.687  14.807   4.489 -0.1927 -0.2504  0.2057
21199W        W37093   9.766   7.350  15.526 -0.0729  0.1742 -0.0839
21200W        W37094   8.824  11.888  13.920 -0.0792  0.1440  0.2448
21201W        W37095   7.414  17.587   4.759  0.1870  0.0527  0.2609
21202W        W37096  11.625   9.994  11.749  0.0373 -0.0170  0.2102
21203W        W37097   7.034  17.322   5.891 -0.1139 -0.1523 -0.1731
21204W        W37098   7.368  15.968   4.134 -0.0945  0.2672  0.2811
21205W        W37099   8.619  16.893   2.963  0.0144  0.0064 -0.1702
21206W        W37100   1.166  13.582  13.444  0.0596  0.1092  0.3693
21207W        W37101  15.675   6.176   0.194  0.0534 -0.0342 -0.0181
21208W        W37102   0.092   9.929  15.434  0.1593  0.0338  0.0572
21209W        W37103   7.569   8.453   2.185  0.0235  0.2154  0.0396
21210W        W37104  17.318  12.855  14.582 -0.2839 -0.0013  0.3760
21211W        W37105   5.654   2.408   2.570 -0.0437  0.0300 -0.2248
21212W        W37106  16.901   2.633  14.654 -0.2820 -0.0346 -0.0754
21213W        W37107   6.197   4.034   2.177  0.0811 -0.1388 -0.4361
21214W        W37108   5.182  11.149  14.616 -0.2070 -0.0006 -0.3434
21215W        W37109   5.202  11.826   4.147 -0.0064 -0.3722 -0.0550
21216W        W37110  11.233  15.427   4.058  0.0123  0.0368  0.1724
21217W        W37111  12.416  13.533  15.683  0.0323 -0.1237  0.2491
21218W        W37112   6.098  16.983   0.425  0.1722  0.1444  0.2915
21219W        W37113  16.145  15.568   0.676  0.2063 -0.2762 -0.2890
21220W        W37114  10.756   2.552  12.287 -0.3305  0.1945 -0.2000
21221W        W37115  15.208  10.718   4.434  0.1061 -0.0094 -0.2533
21222W        W37116  10.450  17.027   4.609 -0.0803 -0.1007 -0.1302
21223W        W37117   1.301  10.098  13.795 -0.1776 -0.0242  0.0109
21224W        W37118  11.772   2.190   3.567  0.0140  0.1935 -0.0108
21225W        W37119  17.118   7.550  16.110  0.0070  0.0575  0.0118
21226W        W37120   4.863  16.112  13.378  0.4751 -0.2819 -0.2920
21227W        W37121   8.595  10.584   3.625 -0.0733  0.0632 -0.0974
21228W        W37122  13.877  14.828  14.368 -0.0788  0.1790 -0.0047
21229W        W37123   9.276   2.986  13.452  0.1809  0.0229  0.2376
21230W        W37124   1.554   0.095  11.726 -0.1711  0.0504  0.2379
21231W        W37125   0.641   0.013   0.440  0.1894 -0.0118 -0.0905
21232W        W37126   7.844   7.659   5.872 -0.1058  0.4209  0.0056
21233W        W37127   3.443   7.945   4.873 -0.1447 -0.0893 -0.0368
21234W        W37128   4.209   8.953   1.742  0.1552  0.1783 -0.1728
21235W        W37129  17.574   5.197   1.778 -0.0052  0.0680 -0.0950
21236W        W37130   4.694   8.350   5.266 -0.1509  0.0963  0.1569
21237W        W37131   6.745   9.812   0.716 -0.1358  0.1292  0.1723
21238W        W37132   8.737   2.624   3.993 -0.1059  0.0431  0.2132
21239W        W37133  12.575  12.516   3.909 -0.2192  0.2845 -0.2818
21240W        W37134  15.719  17.536   0.928 -0.3390  0.1247  0.1757
21241W        W37135   5.111   6.130  16.008 -0.0100  0.2424  0.0910
21242W        W37136   2.788  15.816  15.409 -0.0156 -0.1542  0.0865
21243W        W37137   6.690   1.955   1.314  0.0598 -0.2024 -0.1004
21244W        W37138   1.309   6.686  16.486  0.1308 -0.0542 -0.0076
21245W        W37139   5.978  16.360  13.546 -0.0099  0.0892 -0.0181
21246W        W37140   0.366   4.701   2.093  0.2142 -0.0843 -0.0224
21247W        W37141   8.693  11.840   6.196 -0.1058 -0.3234 -0.3620
21248W        W37142   4.280   7.529   0.648  0.1988  0.0399 -0.0782
21249W        W37143  11.322  11.685  12.335  0.1793 -0.0817 -0.1905
21250W        W37144  10.997  16.663   2.171  0.1375 -0.0378  0.3051
21251W        W37145   9.245   0.379   2.189 -0.0559  0.2542  0.4822
21252W        W37146   8.741   7.246   1.456  0.1023 -0.2409 -0.0099
21253W        W37147  14.828   5.037   3.617  0.0332  0.1257 -0.0907
21254W        W37148   8.677   7.396  13.006  0.2443  0.0950 -0.2015
21255W        W37149   3.030   2.789  16.394 -0.0992 -0.1152 -0.3653
21256W        W37150  16.493   4.136   4.698 -0.2000 -0.4432  0.1237
21257W        W37151  15.507   3.860  13.144 -0.3117  0.0220  0.0931
21258W        W37152   2.930   0.495  12.494 -0.3265 -0.0618 -0.2065
21259W        W37153   4.019   4.767   1.195  0.0639 -0.2667  0.0468
21260W        W37154  17.564  14.217   0.100 -0.3517 -0.0991  0.1061
21261W        W37155   2.265   7.838   2.588  0.3409 -0.0249  0.3088
21262W        W37156   6.128   4.813   5.307  0.1245  0.0145  0.0132
21263W        W37157   5.511  15.083   4.221 -0.1203 -0.0836  0.2515
21264W        W37158   8.478   8.286  15.848 -0.3179  0.1127 -0.0376
21265W        W37159   6.494  17.433   5.962  0.1095 -0.2480  0.0136
21266W        W37160   3.368   1.479  14.579 -0.2619  0.2518  0.2572
21267W        W37161   7.253   4.701   0.376 -0.0730 -0.0466 -0.0352
21268W        W37162  17.616   2.063  13.437 -0.2471 -0.0704  0.2545
21269W        W37163  13.681  17.402  11.430  0.4953 -0.0650 -0.1291
21270W        W37164  11.068   9.729  16.747  0.0614 -0.0735 -0.2190
21271W        W37165   0.606   5.437  15.161  0.0281 -0.2037  0.0630
21272W        W37166  14.849   3.916   2.943 -0.1872  0.3898  0.1437
21273W        W37167   7.316  14.131   2.902  0.2238  0.0870  0.1161
21274W        W37168   8.203  17.041  13.909  0.6444 -0.0319 -0.2397
21275W        W37169   5.584   8.606   6.198  0.3133  0.0485  0.1411
21276W        W37170  12.483   3.724  13.678 -0.0332 -0.0905 -0.0720
21277W        W37171  10.804  12.287   0.012  0.1181  0.0881  0.0694
21278W        W37172   3.021  14.912   0.968  0.0842 -0.0054  0.2678
21279W        W37173  11.320   2.916   4.157  0.1587 -0.2646 -0.0528
21280W        W37174   3.668  12.703  15.194  0.1461  0.1534  0.1689
21281W        W37175   7.905  10.547   2.703 -0.0209 -0.1899  0.2822
21282W        W37176  10.535  12.795   3.179  0.1313 -0.1089  0.0944
21283W        W37177   5.421   4.845   1.047  0.0752 -0.0355  0.0846
21284W        W37178  16.980  17.616  12.303 -0.1391  0.3920 -0.1225
21285W        W37179  14.149  10.757   6.050 -0.0177 -0.0209  0.0647
21286W        W37180  13.979  14.274  15.387  0.1458  0.2229 -0.0779
21287W        W37181  12.820   6.112   2.161 -0.0285 -0.3638  0.1897
21288W        W37182  17.007   6.611  14.824 -0.0518  0.2268 -0.2661
21289W        W37183  12.576   9.516  13.249 -0.3276  0.1767 -0.2150
21290W        W37184  11.692  11.134   4.732  0.2608  0.0190 -0.1395
21291W        W37185  11.403   2.242   5.820 -0.2025 -0.2471  0.2190
21292W        W37186  15.851  14.992   2.662 -0.0909 -0.3235  0.0125
21293W        W37187   6.098  12.274   0.633  0.1369  0.0249  0.0335
21294W        W37188  13.552  11.820  12.714 -0.1407 -0.1208  0.1705
21295W        W37189  17.274   7.385   4.413  0.1555  0.1588 -0.0504
21296W        W37190  15.664  16.433   4.336  0.4541 -0.0317  0.1463
21297W        W37191  12.016  15.874  13.651  0.1243  0.2709 -0.1508
21298W        W37192   4.355  10.116  16.664 -0.0264  0.1590  0.0548
21299W        W37193   9.910   2.145  12.747 -0.1388  0.1365  0.1719
21300W        W37194  11.032  16.217   5.279  0.2815  0.1989  0.0436
21301W        W37195   9.383  17.578  11.520 -0.0819  0.0441  0.1274
21302W        W37196  12.782   1.255  14.905 -0.3122  0.2176 -0.2430
21303W        W37197  13.500   7.275  15.940  0.0550 -0.0887 -0.1492
21304W        W37198  12.225  14.013   3.190  0.1025 -0.0611 -0.1249
21305W        W37199  11.271   3.576   2.080 -0.0895  0.0260 -0.0496
21306W        W37200   3.588  16.326   4.024 -0.1633 -0.0358  0.0195
21307W        W37201  12.553   2.721  11.934  0.1080 -0.0068 -0.0493
21308W        W37202   0.548  17.049   2.580 -0.1891 -0.0138 -0.0045
21309W        W37203   1.108   3.071   3.988 -0.1104  0.1237 -0.0714
21310W        W37204  11.726   8.089   2.851 -0.1412  0.0229  0.1528
21311W        W37205  13.863   9.300   0.435 -0.1574 -0.0674  0.0030
21312W        W37206  16.427   6.834   3.103 -0.1240  0.3740  0.0350
21313W        W37207   6.009   4.727   4.412  0.0162 -0.0099  0.4887
21314W        W37208  15.020  13.215  13.390  0.0431 -0.0744  0.0757
21315W        W37209  11.292   6.316  11.212  0.0862  0.1007  0.3177
21316W        W37210  10.266   6.464   2.761  0.1676  0.2429  0.2751
21317W        W37211  14.146   1.696   1.603 -0.0778  0.2107  0.3065
21318W        W37212   2.960  16.979  15.945  0.3361 -0.1767 -0.0610
21319W        W37213   0.943  16.827   4.248 -0.4024  0.3052  0.4332
21320W        W37214  14.238  10.517  13.531  0.2626  0.0245  0.0675
21321W        W37215   1.517  13.528   6.011 -0.2610  0.1374  0.1788
21322W        W37216   9.011   6.614   2.583 -0.1116 -0.0354 -0.1977
21323W        W37217  10.627  14.733  14.545 -0.1539 -0.0386  0.1942
21324W        W37218   5.136  12.443  16.567 -0.1555  0.1182  0.0487
21325W        W37219  12.888   9.373  12.821 -0.0018 -0.4907  0.0137
21326W        W37220  14.637   3.690  15.075 -0.1214  0.2399  0.0384
21327W        W37221  14.802   9.234   5.963  0.1032  0.2025  0.0282
21328W        W37222   4.978   6.473   3.277 -0.1062  0.1513 -0.2552
21329W        W37223   8.523   1.778   2.275 -0.0203  0.1774 -0.0474
21330W        W37224   2.754  17.841   5.267  0.0242  0.1385 -0.4456
21331W        W37225  11.323  16.240  15.910  0.0949  0.1043 -0.2816
21332W        W37226  12.736   1.498  11.726 -0.1286  0.0043 -0.0565
21333W        W37227  13.534  12.990   5.108  0.1148 -0.2680 -0.0624
21334W        W37228  13.834   6.768   3.667 -0.1295  0.0839 -0.2077
21335W        W37229   4.748   0.517  12.285  0.0540 -0.0941  0.0529
21336W        W37230   5.689  17.155   4.119 -0.0332 -0.3066  0.2528
21337W        W37231  14.249   8.262  13.119  0.0654  0.0925 -0.0870
21338W        W37232   3.560  15.740  16.825 -0.0938  0.1553  0.0281
21339W        W37233   2.917   2.784  16.844 -0.1676  0.1377 -0.2850
21340W        W37234   2.154   3.516  16.747 -0.0457  0.1648 -0.0402
21341W        W37235  15.415   6.537  13.119 -0.0459 -0.1719 -0.0517
21342W        W37236  11.755   7.900  14.771  0.2002 -0.2901  0.0500
21343W        W37237   3.093   5.835  15.807  0.0342  0.1683  0.0958
21344W        W37238  17.748  10.237   1.062 -0.2751 -0.0126  0.0911
21345W        W37239  17.740   6.030   0.866 -0.0598  0.3678 -0.2226
21346W        W37240  12.752  14.019  13.993  0.0215 -0.4869 -0.1172
21347W        W37241   5.143  12.795   1.021 -0.0726 -0.1043 -0.0247
21348W        W37242   4.883   8.702  13.262  0.0463 -0.0042  0.1383
21349W        W37243  13.259   0.801   0.505 -0.1530 -0.2210 -0.0405
21350W        W37244   9.680  17.447   1.449  0.1791 -0.1956  0.2833
21351W        W37245   0.610  15.170   0.343  0.1672  0.1281 -0.0091
21352W        W37246  12.862  10.440   1.258 -0.2027  0.0916  0.4489
21353W        W37247   5.499  16.116  13.530 -0.0884  0.0029  0.4684
21354W        W37248  16.341   6.078  15.383  0.1949 -0.1596  0.1376
21355W        W37249   8.676   7.345  16.007  0.1304  0.3948 -0.1078
21356W        W37250   1.897  15.097  14.508 -0.0419  0.0514  0.3147
21357W        W37251   2.047   6.118  15.516  0.1000 -0.1154 -0.1325
21358W        W37252  16.143   4.683  15.658  0.1277 -0.0428  0.2293
21359W        W37253  11.386   1.917  15.997 -0.4414  0.3906 -0.0135
21360W        W37254  10.925   0.929   2.744 -0.3335  0.5256 -0.0102
21361W        W37255  15.783  12.024   4.975 -0.1891 -0.0051  0.0121
21362W        W37256  16.946   6.834   3.008 -0.1805 -0.1801 -0.0818
21363W        W37257   3.743   3.046  15.567  0.1646 -0.1903  0.0615
21364W        W37258   9.707   2.001  14.903  0.1073 -0.4577 -0.0646
21365W        W37259  16.262   0.161  15.113  0.1769  0.1342  0.0926
21366W        W37260  17.469   8.085  15.423  0.2362 -0.2234 -0.2203
21367W        W37261  13.632   4.997  14.013  0.0991  0.0255 -0.4200
21368W        W37262   0.050   1.461   5.154 -0.1580  0.2974  0.0117
21369W        W37263   0.662   4.417  10.144 -0.1178  0.3124  0.0353
21370W        W37264   9.152   2.093  14.815 -0.1624 -0.2956 -0.0722
21371W        W37265  10.615   7.703   4.367  0.1382 -0.0737  0.0621
21372W        W37266   2.525   9.366  12.752 -0.0235 -0.0897 -0.0732
21373W        W37267   6.413  12.819   1.461 -0.1109  0.1565  0.0287
21374W        W37268   0.114   4.443  12.693  0.2689 -0.2190  0.0386
21375W        W37269   3.257   0.570   3.848 -0.2831 -0.0662  0.1791
21376W        W37270   6.868   7.628   2.390 -0.1048  0.2181 -0.0314
21377W        W37271   1.995   1.392   0.382  0.2733  0.2958  0.1332
21378W        W37272   9.874  16.495   1.957  0.1449 -0.0019 -0.1427
21379W        W37273   0.691   4.266  16.073 -0.0817  0.0126  0.1563
21380W        W37274   9.229  11.667  12.971  0.1100  0.1362 -0.0094
21381W        W37275  14.864  11.856   1.311 -0.0379  0.4264 -0.1254
21382W        W37276   2.928   8.705  15.740  0.0631  0.1258  0.0046
21383W        W37277   5.788  11.890   3.808  0.0945  0.2882 -0.1781
21384W        W37278  17.003  10.281   2.563  0.3493  0.1744  0.1069
21385W        W37279   9.237  17.773  11.962 -0.0953 -0.1749 -0.1020
21386W        W37280  16.188   6.229  12.281  0.3596  0.0263  0.1823
21387W        W37281  14.393   3.513   0.633  0.1110  0.0309  0.0501
21388W        W37282   4.115   7.315   5.981  0.3373  0.0133 -0.0857
21389W        W37283   1.867   5.602  15.272  0.1185  0.1738 -0.1094
21390W        W37284   0.821  17.628  12.529 -0.0817 -0.2529 -0.0240
21391W        W37285   3.422  11.788   0.913  0.2559 -0.1182 -0.1895
21392W        W37286  14.357   3.675  16.755 -0.0257  0.0432 -0.0527
21393W        W37287   7.314  11.567  13.336  0.2730 -0.2983 -0.2516
21394W        W37288   3.756   6.260   5.129  0.2890  0.2600 -0.0374
21395W        W37289   4.725  12.103  11.983  0.0873  0.2013  0.1157
21396W        W37290   6.914   8.622  13.089 -0.0633  0.0464 -0.0815
21397W        W37291  11.595   2.732  12.896  0.1778 -0.1462 -0.4118
21398W        W37292   5.369  15.919  15.351  0.7048 -0.1601  0.2130
21399W        W37293   9.901   4.634  14.027  0.1683  0.0007  0.3420
21400W        W37294   2.921   5.396  13.500  0.0907  0.1653 -0.2759
21401W        W37295  17.709  16.657   1.509  0.2493 -0.3274  0.0195
21402W        W37296  16.681  12.584   1.706  0.0178  0.2717  0.2020
21403W        W37297  15.878  13.808   5.643 -0.2965  0.2881 -0.0719
21404W        W37298   0.745  11.378  15.956 -0.2422 -0.0895 -0.0884
21405W        W37299   7.687  13.315  14.637 -0.1228  0.1372 -0.0384
21406W        W37300  16.441   3.503   3.223 -0.1245 -0.1271 -0.1176
21407W        W37301  16.132  17.314   4.575 -0.1755  0.2438  0.1526
21408W        W37302   7.966   8.304   3.874 -0.3320 -0.0944  0.1721
21409W        W37303   7.078  11.692   2.686  0.0419  0.1451 -0.2451
21410W        W37304  13.671  17.166   4.264 -0.0969  0.0886 -0.6471
21411W        W37305   1.602   9.952  14.311 -0.3416  0.0946  0.0718
21412W        W37306   7.549   7.583   2.889  0.0058  0.3231 -0.1694
21413W        W37307  13.819  13.322  15.577  0.1108  0.1975  0.1424
21414W        W37308   0.954   5.624  11.649 -0.1160  0.1016  0.4694
21415W        W37309   9.598  15.257  15.076 -0.2372 -0.1368 -0.1295
21416W        W37310  14.826  14.293  15.413 -0.3970  0.2807  0.2548
21417W        W37311  17.184  16.724   5.470 -0.2272 -0.2691  0.0155
21418W        W37312   5.324   1.374  12.174 -0.5292  0.1425 -0.0132
21419W        W37313   0.535   2.532  11.785 -0.0907  0.1147 -0.0601
21420W        W37314   1.153   2.800   5.560  0.2252  0.1155  0.1247
21421W        W37315  15.085   0.563   4.630 -0.0464  0.1978 -0.0530
21422W        W37316   6.425   0.137  11.726 -0.2609 -0.1617 -0.0320
21423W        W37317  15.317   9.386   2.359  0.4444 -0.0354  0.0677
21424W        W37318   0.168  10.439   2.016 -0.1009  0.0841 -0.0562
21425W        W37319   2.501   1.437   0.315 -0.2439  0.0955  0.2120
21426W        W37320   0.514   9.863   0.681 -0.0233  0.2230 -0.1499
21427W        W37321   4.881   5.679  14.005 -0.2196  0.1794 -0.1311
21428W        W37322   0.202   9.002  15.019  0.0246 -0.1833 -0.1207
21429W        W37323   3.561   2.987   1.527  0.2729 -0.1968 -0.0162
21430W        W37324   5.542   6.027   0.141  0.1687 -0.1356 -0.2873
21431W        W37325   4.227  14.135  13.832  0.1021  0.3019 -0.0841
21432W        W37326   0.251   1.839  12.482  0.2496  0.0237 -0.0407
21433W        W37327   9.004  10.620  15.569  0.2717  0.3567 -0.0893
21434W        W37328   5.285   4.264  12.798  0.3419 -0.1072  0.2027
21435W        W37329  17.778   8.460   0.317  0.4946 -0.0451 -0.0110
21436W        W37330   4.754   8.788  15.058 -0.0702 -0.0447  0.2494
21437W        W37331  14.606  10.756  15.652  0.1550 -0.2471 -0.0005
21438W        W37332   0.768  10.789  13.994  0.1950  0.0919 -0.0441
21439W        W37333  10.967  17.131  15.750 -0.1041  0.0624 -0.0486
21440W        W37334   8.542  12.929  14.410 -0.0724 -0.0095 -0.0332
21441W        W37335  11.698   7.211   5.612 -0.2827  0.0557  0.3576
21442W        W37336   4.102   7.439   2.430  0.0182 -0.2351  0.2442
21443W        W37337  12.088   3.612   1.611 -0.2421 -0.0445  0.0478
21444W        W37338  15.019  13.928   5.569  0.0282 -0.1822 -0.0520
21445W        W37339  11.712   2.616   4.192  0.2239  0.0624 -0.1848
21446W        W37340   2.647  10.983  12.698 -0.2269  0.0850  0.1758
21447W        W37341   2.862   2.446   4.329 -0.0803 -0.1856 -0.3839
21448W        W37342   6.934   6.187  14.557 -0.0486  0.2539 -0.0806
21449W        W37343   6.744   9.501  12.705 -0.0851 -0.2423 -0.0681
21450W        W37344   7.399  10.987  16.040  0.0746  0.0978 -0.2087
21451W        W37345   1.978   2.159   4.488  0.0554 -0.0175 -0.0961
21452W        W37346  14.819   0.970   4.571 -0.1141  0.1678 -0.2034
21453W        W37347  10.933   5.167   5.924  0.1425 -0.2406  0.1357
21454W        W37348  11.544  16.505   1.605  0.2204  0.0045  0.1140
21455W        W37349   3.606   2.182   1.168 -0.0578  0.0861  0.0972
21456W        W37350  14.100  17.436  11.846 -0.0656  0.1060 -0.2406
21457W        W37351   4.539   8.676   2.180 -0.2465 -0.2991  0.1077
21458W        W37352  14.467   1.643  16.017  0.2032  0.2252 -0.0353
21459W        W37353  12.415  14.440   3.738 -0.3042  0.1964  0.2224
21460W        W37354  12.737   6.642   2.025 -0.4131  0.0867  0.1664
21461W        W37355  12.412   1.899  11.527 -0.1101  0.0909  0.1886
21462W        W37356   2.890   1.021   2.358 -0.2485 -0.2119  0.1392
21463W        W37357  15.641   7.092   5.664  0.2230  0.0103  0.0256
21464W        W37358  15.099   9.697  13.302 -0.1588  0.1811 -0.0071
21465W        W37359   1.722   0.993  15.738  0.1686  0.0319  0.2952
21466W        W37360  15.818   2.899  12.387  0.2160  0.2705 -0.1008
21467W        W37361  14.175   6.131  15.515  0.1782  0.1894  0.1168
21468W        W37362  13.654  10.577  15.336  0.0376 -0.1684 -0.0595
21469W        W37363  12.104  15.357  13.642  0.0852  0.0730  0.0145
21470W        W37364   7.610  13.963   2.439 -0.1975  0.1443  0.0408
21471W        W37365  13.019   6.249  16.561  0.0602 -0.0080  0.0590
21472W        W37366   0.694   1.598  13.426 -0.3086  0.1212  0.0472
21473W        W37367   6.422   3.993   3.752 -0.2644 -0.2674  0.1410
21474W        W37368  16.239   5.652  14.479  0.0803  0.2474  0.3030
21475W        W37369   4.431   9.189   2.143  0.2340 -0.0493  0.3809
21476W        W37370  11.226   9.936   2.076  0.2901 -0.2418 -0.1703
21477W        W37371  12.854  13.616   0.657 -0.0970 -0.0126  0.1940
21478W        W37372  17.326   3.637   5.327 -0.2083  0.1999 -0.0790
21479W        W37373  12.942  12.557  13.101  0.1749 -0.0679  0.1042
21480W        W37374  14.369   3.165  14.493  0.0146  0.2319  0.0962
21481W        W37375  10.435   3.023  14.341  0.0473  0.1110  0.0888
21482W        W37376   1.951  12.830   3.982 -0.0333  0.1604  0.1946
21483W        W37377   7.015   0.605   4.751  0.1964  0.1338 -0.1815
21484W        W37378   4.344   3.443  15.914 -0.4794  0.2076  0.0646
21485W        W37379   0.155   9.550  12.257 -0.2305 -0.0663 -0.3891
21486W        W37380  14.100  13.132   5.058  0.2947  0.0246 -0.0197
21487W        W37381   3.666   0.716  14.782  0.2759  0.0462  0.1418
21488W        W37382   3.993  16.528  16.345 -0.0434  0.2087  0.2018
21489W        W37383   9.916   4.752  16.204 -0.2027  0.0102 -0.2106
21490W        W37384  11.259   4.071   5.174  0.0989  0.3229  0.1964
21491W        W37385  11.444  11.848  14.161 -0.0341 -0.0375  0.2665
21492W        W37386   2.926   6.056   1.922  0.0565 -0.3565 -0.0659
21493W        W37387   0.634  12.657  13.203  0.2094 -0.0216 -0.1812
21494W        W37388  17.040  15.312  13.128  0.1432  0.2371 -0.1144
21495W        W37389   5.908  17.551   4.454 -0.0726  0.2122  0.0076
21496W        W37390   9.070   1.085  13.305 -0.2960  0.1370 -0.0470
21497W        W37391  17.179   0.159   3.693 -0.1553 -0.1053  0.0482
21498W        W37392   4.389   5.685  11.921  0.1345  0.1791  0.1882
21499W        W37393  13.710   0.571   0.381 -0.2354 -0.1880 -0.0736
21500W        W37394  17.413   3.828   3.315 -0.0485  0.0367 -0.0150
21501W        W37395   3.777   7.557   3.669 -0.0812  0.0960  0.0801
21502W        W37396   4.628   5.658   4.362 -0.2497 -0.0498 -0.1286
21503W        W37397  16.272  16.215   3.234 -0.0603 -0.3266 -0.1150
21504W        W37398  10.995   3.381  16.799 -0.0531  0.0255 -0.0788
21505W        W37399  15.397   9.602   3.284 -0.2842  0.0408 -0.1565
21506W        W37400  15.224  17.492   1.079 -0.2540 -0.1128  0.1340
21507W        W37401  11.616  13.895   2.887 -0.4671 -0.0099  0.3723
21508W        W37402  16.711  15.516  15.174 -0.4306 -0.3394 -0.2056
21509W        W37403  15.563  16.575   1.991 -0.1649  0.1737 -0.0936
21510W        W37404   3.948   0.995  16.876 -0.3676 -0.1761 -0.1777
21511W        W37405  14.503   0.394  14.631 -0.1889 -0.1209  0.0031
21512W        W37406  15.090   2.577   5.595 -0.2712 -0.1586 -0.1124
21513W        W37407  17.137   9.038   5.497  0.2099  0.0369 -0.2013
21514W        W37408   9.477   5.689  16.908  0.0888  0.2692 -0.0040
21515W        W37409  13.310  13.982  16.646 -0.0458  0.0836  0.0866
21516W        W37410   5.268  11.109  16.456 -0.2214  0.2700 -0.0552
21517W        W37411   0.363   6.203   1.070 -0.0162  0.0833 -0.2273
21518W        W37412   5.856  16.297  13.064 -0.1787 -0.0237 -0.0483
21519W        W37413  16.577   7.485  15.290 -0.0686 -0.2553  0.0862
21520W        W37414   9.239   6.024   1.353 -0.2300  0.0254 -0.0730
21521W        W37415   4.143  15.915   4.518 -0.1918  0.0177 -0.0242
21522W        W37416   2.333  12.579   2.531 -0.1341 -0.0413 -0.0573
21523W        W37417  16.724   6.735   0.943  0.0088 -0.0164  0.1823
21524W        W37418   4.600   0.057   5.817 -0.1161 -0.0628 -0.0660
21525W        W37419   1.340  14.670  13.659 -0.2146 -0.1576  0.0356
21526W        W37420  14.006   0.685  14.869 -0.2239 -0.2479  0.0112
21527W        W37421   8.580   3.818   3.484  0.1198  0.0108  0.0289
21528W        W37422   8.194  13.358   0.750 -0.0554  0.1273 -0.0091
21529W        W37423  16.194  15.775  10.564  0.0406  0.2233 -0.3115
21530W        W37424  12.234  11.961   2.278 -0.1688  0.2770 -0.0945
21531W        W37425   8.369  15.614   2.232  0.3929 -0.1044  0.0240
21532W        W37426   4.835  14.804   6.144  0.0906  0.3580 -0.0978
21533W        W37427   0.762  14.246  14.902  0.1467  0.3525  0.0720
21534W        W37428  14.736  12.713  15.387 -0.0523 -0.1103  0.0700
21535W        W37429   2.254   1.201   3.732 -0.0798 -0.0073  0.4932
21536W        W37430   6.277  10.465   1.684  0.0017 -0.1813  0.0045
21537W        W37431   0.371   9.599  15.632 -0.2928  0.2946 -0.2643
21538W        W37432   5.088  12.529   4.726 -0.0774 -0.2748  0.0547
21539W        W37433   1.300  13.436  12.990 -0.1198  0.0386  0.0533
21540W        W37434   4.022  11.394   0.570 -0.1062 -0.0598 -0.3738
21541W        W37435  14.925  11.195  13.311  0.0366 -0.0089 -0.1459
21542W        W37436   8.472   4.174  13.837  0.1873  0.0263  0.1912
21543W        W37437  16.276   8.433   4.311 -0.1183 -0.0264  0.2356
21544W        W37438  12.990   4.824  14.798  0.1556  0.2243  0.1117
21545W        W37439   6.697  16.934  13.182  0.3561 -0.2699 -0.0306
21546W        W37440  16.258   7.697  11.136 -0.1429 -0.1710  0.1060
21547W        W37441  14.976  12.949  12.375 -0.1040  0.1300 -0.1528
21548W        W37442  10.505  12.419   0.420  0.0077  0.1737  0.3518
21549W        W37443  17.705  15.527  15.694  0.1149  0.0793 -0.0296
21550W        W37444   5.583   7.805  13.847 -0.0618  0.1701  0.0590
21551W        W37445   0.198   7.970  16.414 -0.0371 -0.1127  0.2254
21552W        W37446  15.156  16.329  13.146 -0.0605 -0.0194  0.1534
21553W        W37447  11.746  15.584  12.149  0.1672  0.0163 -0.2562
21554W        W37448   3.818  11.264  14.396 -0.0388 -0.1468 -0.5006
21555W        W37449  16.335  12.517  14.690  0.2165  0.1337  0.0745
21556W        W37450  10.482   0.408  13.333  0.0488  0.1827  0.0323
21557W        W37451  16.697  10.578   1.774 -0.0647 -0.2011 -0.1494
21558W        W37452   6.721  16.267   0.183  0.1409 -0.0425  0.0138
21559W        W37453  10.430   5.810  14.951  0.0262  0.0660  0.0237
21560W        W37454   0.548   4.609   0.138 -0.2422 -0.0896 -0.1199
21561W        W37455  10.069  12.355   5.936  0.0946  0.0434  0.1368
21562W        W37456  12.644  14.494   0.171  0.3110  0.0212  0.3360
21563W        W37457  11.156   5.950   1.609  0.0415  0.1081  0.0375
21564W        W37458   4.245  12.593   1.450  0.2726 -0.1401  0.2279
21565W        W37459   6.813   3.162  13.002 -0.1700  0.1794  0.0352
21566W        W37460   9.613   3.032  12.715  0.3595  0.1562  0.0486
21567W        W37461  11.361   4.727  14.245 -0.0297  0.3468 -0.2050
21568W        W37462  10.450  13.293   2.902  0.3222 -0.0300  0.0037
21569W        W37463   3.373   9.332  16.727 -0.1024  0.2052  0.1074
21570W        W37464  15.094  14.433   3.051 -0.1269  0.0591 -0.0546
21571W        W37465   3.670  11.232   4.565  0.0000  0.2114 -0.0232
21572W        W37466   2.700   1.575   1.111 -0.2524  0.2099  0.0538
21573W        W37467   9.397  16.074   1.570 -0.4928 -0.2738 -0.1950
21574W        W37468  12.981  14.971   2.685 -0.0444 -0.0048 -0.2169
21575W        W37469   3.696  13.900   4.501  0.1405 -0.0695 -0.0795
21576W        W37470   8.480   3.717  14.323  0.1280 -0.2055  0.0337
21577W        W37471   3.128   4.896  14.647 -0.1612  0.1463 -0.1169
21578W        W37472  13.904  14.895   5.702 -0.0156  0.0557 -0.2085
21579W        W37473   0.722  15.288  13.067 -0.0216  0.0224  0.1671
21580W        W37474  11.858   1.063   5.250 -0.1794  0.0863  0.0575
21581W        W37475  17.052   0.882  13.556  0.0058 -0.1194 -0.0176
21582W        W37476   9.801   7.900   1.397  0.1460  0.0659  0.1221
21583W        W37477   7.487  12.132   5.842  0.1023 -0.1011 -0.2743
21584W        W37478  12.583  15.557  14.889  0.0753  0.1733 -0.2017
21585W        W37479  10.561   4.324   0.453  0.0182  0.1062  0.0020
21586W        W37480   2.000   5.266   5.740 -0.0199  0.1010  0.2432
21587W        W37481   5.562   3.906   5.001  0.2431 -0.0279 -0.0059
21588W        W37482   4.715   1.135   5.798  0.1541 -0.1606  0.1759
21589W        W37483   1.928   3.657   2.698  0.2040 -0.0513 -0.0450
21590W        W37484  17.162  11.711  14.182  0.2028 -0.0294  0.0506
21591W        W37485  12.792   4.516  16.154 -0.1650  0.0376  0.2022
21592W        W37486  12.946   8.457   1.499  0.0621  0.1589 -0.1380
21593W        W37487  16.997   2.768   3.311  0.1729  0.0974 -0.2315
21594W        W37488   3.104   2.973   2.139 -0.0099  0.3774 -0.0168
21595W        W37489   3.650  15.934   6.144 -0.0174  0.1443  0.0095
21596W        W37490   0.247  16.521  14.117  0.1045  0.0162  0.0332
21597W        W37491   2.052   2.587   2.576 -0.0195 -0.1382  0.3255
21598W        W37492   2.799   5.104   3.573 -0.1355  0.0461 -0.1200
21599W        W37493  10.277   1.079   0.905 -0.1819 -0.0574  0.1591
21600W        W37494   2.278   1.287   5.606 -0.0606  0.2856 -0.0093
21601W        W37495   1.796   8.361  13.049  0.2071  0.1330 -0.0583
21602W        W37496  12.083  13.245  15.247 -0.1262 -0.1864  0.1119
21603W        W37497   8.628   3.162   0.347 -0.0915  0.0209  0.1294
21604W        W37498   2.613   0.178   1.208  0.3891  0.1117  0.1024
21605W        W37499  16.283  12.369   2.082  0.1817 -0.2642 -0.0969
21606W        W37500   6.162   2.117  14.771  0.1632  0.1400 -0.1493
21607W        W37501   0.017  11.854   2.191 -0.2896  0.0615 -0.0960
21608W        W37502   7.440  15.141  14.896  0.1079 -0.2168  0.1105
21609W        W37503   7.183   4.813   3.321 -0.1585 -0.0187  0.3796
21610W        W37504  15.589   5.190   3.308 -0.0618  0.0118  0.1370
21611W        W37505  12.506  13.963   1.350  0.2261  0.1115 -0.1378
21612W        W37506   1.883   9.091   1.352  0.1058  0.0267 -0.1305
21613W        W37507  16.397  12.213   6.025 -0.0685  0.1026 -0.1105
21614W        W37508   9.054   6.504  13.070  0.1209 -0.0169  0.1230
21615W        W37509   0.094   8.589  14.853 -0.0133 -0.0696 -0.0610
21616W        W37510   6.693   1.373  12.386 -0.0596 -0.1446 -0.0369
21617W        W37511   8.961  12.729   5.313  0.2421  0.0645 -0.2546
21618W        W37512  12.021   8.409  14.288  0.0051  0.3972 -0.1896
21619W        W37513   6.143   9.455   4.788 -0.2404  0.0188 -0.0577
21620W        W37514  15.832   3.684   0.297  0.0581  0.2174  0.1702
21621W        W37515   4.416  16.715  15.158 -0.0231  0.1506  0.1517
21622W        W37516   5.519   9.560  14.052  0.1465 -0.0674 -0.0396
21623W        W37517  12.444   4.538   0.281  0.1849  0.0631  0.1526
21624W        W37518  15.118   5.232  14.774 -0.2043  0.2471 -0.1656
21625W        W37519   2.789   5.287  14.578  0.1089  0.0425  0.2437
21626W        W37520  11.340   5.715   1.963  0.0186  0.0115 -0.0510
21627W        W37521  14.300  10.507  15.991  0.3010  0.0381  0.2911
21628W        W37522   0.708   9.063   0.193 -0.0318  0.0385  0.0798
21629W        W37523  16.908  15.344   4.610  0.2360 -0.1215 -0.2013
21630W        W37524   1.782  15.529   4.622  0.2678 -0.0536  0.1928
21631W        W37525   4.647  10.539   0.552  0.0416 -0.1443  0.1476
21632W        W37526   9.658  10.662  12.088 -0.2441  0.1291  0.0633
21633W        W37527   6.922   4.732  11.945 -0.0388  0.1020 -0.0789
21634W        W37528   2.587   5.454   5.180  0.0222 -0.0207  0.0944
21635W        W37529  12.692  15.850   4.613  0.0570 -0.2017  0.2652
21636W        W37530  12.493   3.383   1.815 -0.0723 -0.1471  0.1285
21637W        W37531  17.092   2.047  13.386  0.1090  0.1619  0.1143
21638W        W37532  10.385   4.178  16.844 -0.1059  0.2098 -0.0378
21639W        W37533  13.379   6.763  12.056 -0.0599 -0.0109 -0.0625
21640W        W37534   0.788  15.485   0.746  0.1197  0.0927 -0.1894
21641W        W37535   6.936   4.161  12.850  0.2768 -0.0736 -0.0076
21642W        W37536  17.598   4.511   3.996 -0.0313  0.2760 -0.2453
21643W        W37537  11.293  17.078   0.289 -0.0414 -0.6326 -0.1614
21644W        W37538  16.602   6.894   5.511  0.0962  0.1020 -0.2099
21645W        W37539   9.820  16.175   2.362 -0.3989  0.1978 -0.2689
21646W        W37540  11.962   2.329  16.271  0.0327 -0.2029 -0.3487
21647W        W37541  14.779   1.358  12.200 -0.2571 -0.3878 -0.4725
21648W        W37542  11.403  13.494   2.676  0.1729  0.0032  0.3078
21649W        W37543  17.659   9.141   2.674  0.0438 -0.0002 -0.1986
21650W        W37544  16.028   3.256   2.466  0.0711  0.3879 -0.1071
21651W        W37545  14.721   7.147   0.017  0.0122  0.2261 -0.0223
21652W        W37546  14.749  11.225  15.638  0.1817  0.3080 -0.0084
21653W        W37547   5.848  13.418   6.090 -0.2001 -0.0251  0.1306
21654W        W37548   3.278  10.461   0.114 -0.1378 -0.1463  0.2240
21655W        W37549   4.396  11.915   5.410  0.1134  0.0881  0.1179
21656W        W37550  15.974  15.972   1.312  0.1691 -0.1290 -0.3132
21657W        W37551  10.800   0.789  13.193 -0.1011 -0.0537  0.1351
21658W        W37552  15.927   5.066   4.934 -0.2295  0.4503 -0.1845
21659W        W37553  17.468   9.035   1.893  0.2447  0.0868 -0.3644
21660W        W37554   7.168  13.965   1.171 -0.0138 -0.2590  0.1243
21661W        W37555  12.400   7.255  14.447  0.1184  0.2305 -0.2950
21662W        W37556   0.013  17.299  16.762 -0.1210  0.0987 -0.1639
21663W        W37557  10.060   5.520  15.294 -0.0671 -0.0769 -0.2005
21664W        W37558   3.260   3.215  13.423 -0.0257 -0.1329 -0.0069
21665W        W37559  14.687   8.733   5.639 -0.2123  0.2385 -0.1097
21666W        W37560   9.415   8.928  13.838  0.0651 -0.0684 -0.1937
21667W        W37561   8.134  16.603   0.156 -0.0681  0.0045 -0.4391
21668W        W37562  10.345  16.129  15.593 -0.3080  0.2562  0.0357
21669W        W37563   1.700   9.285   1.987  0.0059  0.0395  0.1296
21670W        W37564   8.298  11.520  16.102  0.1580 -0.2390 -0.0400
21671W        W37565  16.165  16.970   5.550  0.0225 -0.3616 -0.2551
21672W        W37566   3.164   6.985  13.541 -0.2715  0.0180  0.0281
21673W        W37567  16.056  16.198   4.165  0.1290  0.1092  0.1219
21674W        W37568  17.222   0.106  11.386  0.1105  0.1363 -0.0487
21675W        W37569   3.432  10.021   0.577 -0.1184 -0.0069  0.2432
21676W        W37570   1.307   2.307  15.738  0.2041  0.2652 -0.3881
21677W        W37571  13.516   1.956  15.630  0.4844 -0.1398  0.2745
21678W        W37572  15.154   6.150  13.125  0.0844 -0.1170 -0.1119
21679W        W37573  17.528  17.124   5.505  0.1779 -0.1962 -0.2098
21680W        W37574   6.213   3.737  14.014  0.3938  0.5272  0.0629
21681W        W37575  17.776   2.317  14.177  0.2509 -0.0661  0.0379
21682W        W37576   6.049   7.720   4.144  0.1341  0.2020 -0.0240
21683W        W37577  17.042  14.922  16.266 -0.0034  0.2502  0.0634
21684W        W37578   0.954  16.497   0.840  0.0444 -0.0028 -0.0339
21685W        W37579  13.490   7.613  13.147 -0.1775 -0.1649 -0.0949
21686W        W37580   1.502  11.316  15.063 -0.2374  0.0838 -0.0529
21687W        W37581  10.273   8.043   1.614  0.1651 -0.1645  0.0798
21688W        W37582   7.233  15.974   2.751 -0.0331  0.4101  0.0529
21689W        W37583   5.081   4.190   1.690  0.2092 -0.1895  0.1480
21690W        W37584   8.155  10.417  13.339 -0.4587  0.2424 -0.0578
21691W        W37585  10.861   5.645   6.062 -0.1867  0.0368  0.3511
21692W        W37586   6.646   1.735   0.266  0.1330  0.1190  0.2510
21693W        W37587   4.052   2.807   5.363 -0.1291  0.0771  0.1889
21694W        W37588   0.282   5.450   4.248  0.0059 -0.0362 -0.0604
21695W        W37589  11.997  13.604   3.579 -0.1037  0.0548  0.0690
21696W        W37590   3.604   6.987  14.442  0.0144  0.2214 -0.0850
21697W        W37591  17.814  15.733   4.565  0.0012 -0.2341  0.1300
21698W        W37592  12.586  17.706   1.164 -0.1625  0.0692 -0.2758
21699W        W37593  10.734   1.155  15.752  0.0141  0.1648 -0.1427
21700W        W37594  15.225  10.492  14.923  0.0965 -0.1529 -0.1452
21701W        W37595   2.640  16.910  14.811  0.0426 -0.0229 -0.1721
21702W        W37596   2.004   0.167   2.976  0.1560 -0.0949  0.0757
21703W        W37597   5.835  13.869  14.126  0.1853  0.3822 -0.2242
21704W        W37598  14.702  15.852  14.513  0.0185 -0.0372  0.1605
21705W        W37599   9.340   4.828   3.380  0.2831 -0.2435  0.1399
21706W        W37600  14.377   9.602   0.183 -0.0514 -0.0097  0.0506
21707W        W37601   3.365   6.399   3.487 -0.0391  0.1227 -0.1917
21708W        W37602  13.002  12.363  12.650 -0.2757  0.0506 -0.0762
21709W        W37603  15.670   9.877   4.471  0.0934 -0.1022  0.0505
21710W        W37604  10.878  15.515  14.557  0.5216 -0.0578  0.0034
21711W        W37605   7.707   5.012   3.230 -0.0014  0.2242 -0.1316
21712W        W37606  14.180  11.433   2.649  0.3474  0.0543 -0.1560
21713W        W37607   8.820   1.658  14.890 -0.0193  0.0423  0.0568
21714W        W37608   7.126  16.218  12.496 -0.0257  0.0425 -0.0253
21715W        W37609   2.159  15.832   2.523 -0.0822 -0.0674 -0.2600
21716W        W37610  16.331   1.865   6.001  0.0186 -0.0068  0.3454
21717W        W37611   8.222   1.186  16.892 -0.3158 -0.2317  0.0150
21718W        W37612  12.287   4.003  14.759 -0.0292 -0.2127  0.0533
21719W        W37613  17.776   4.951  15.669  0.2291 -0.1240 -0.2750
21720W        W37614  11.696  16.645   2.098 -0.0939  0.1869  0.1587
21721W        W37615   1.417  12.363   2.841 -0.2560  0.4071  0.0415
21722W        W37616  14.047   9.009   4.085 -0.1122  0.2213  0.1414
21723W        W37617   9.018  15.769  13.841 -0.0405  0.0804 -0.0942
21724W        W37618  13.730   3.284   3.244  0.2465  0.0976 -0.3939
21725W        W37619  11.190   6.628   0.496 -0.1976  0.1407  0.1439
21726W        W37620  16.577   0.882  14.757  0.1506 -0.0324  0.2664
21727W        W37621  16.632   8.615   5.242  0.0155 -0.0027  0.2677
21728W        W37622   0.172   3.405  13.382 -0.3720 -0.1311 -0.1117
21729W        W37623  15.718  17.537   1.867  0.0684  0.0359  0.0577
21730W        W37624  10.052  14.944   4.773  0.3375 -0.1920  0.1828
21731W        W37625   3.986   8.814  15.625 -0.1836 -0.0788 -0.0885
21732W        W37626   2.378   6.087   2.742  0.4566  0.0404  0.1511
21733W        W37627   9.639   8.963  15.624  0.4277  0.0225 -0.1613
21734W        W37628  16.619  12.316  16.280 -0.0189  0.1655 -0.1291
21735W        W37629  13.951  17.100  14.472 -0.0737  0.4528  0.1888
21736W        W37630  17.088   7.142   0.775  0.0522  0.1762  0.0707
21737W        W37631   3.062   0.977  16.707  0.2130  0.1133  0.1341
21738W        W37632  11.659   9.792   0.408  0.1929  0.0241  0.1236
21739W        W37633  16.874   9.691   1.930 -0.1762  0.0418 -0.0036
21740W        W37634   5.237   7.358   2.975  0.0677  0.0515 -0.0565
21741W        W37635  10.010  14.047  14.531 -0.1639 -0.1764 -0.1791
21742W        W37636   3.140   4.931  12.756 -0.0101 -0.1205 -0.2403
21743W        W37637  10.960   3.734  13.912  0.2246  0.0172  0.2859
21744W        W37638  16.355  16.384  11.559 -0.2616  0.0116  0.3090
21745W        W37639  13.351  16.052  14.712 -0.1168  0.0560  0.0494
21746W        W37640   2.736  12.460   3.507  0.1436 -0.1170  0.0133
21747W        W37641  12.362   0.990   3.945 -0.0200  0.0704 -0.3230
21748W        W37642  17.679   3.129   4.758 -0.0586  0.2360 -0.1568
21749W        W37643  14.935  12.312   4.729  0.3149 -0.1277  0.2676
21750W        W37644  13.702  16.959  12.902 -0.0448 -0.1503  0.2677
21751W        W37645   5.607  12.500   5.788  0.0507  0.1411  0.2187
21752W        W37646   8.860  13.773   5.146 -0.0458 -0.0887  0.1943
21753W        W37647   0.789   0.349  12.766 -0.0931 -0.0349 -0.0849
21754W        W37648  16.207  13.991   0.023  0.1929  0.0294 -0.0497
21755W        W37649   1.493  14.040   4.279  0.0716 -0.0925 -0.1799
21756W        W37650   8.355   4.437   6.138 -0.1800 -0.0521  0.0489
21757W        W37651  14.505  13.943  11.782 -0.1047  0.0057 -0.1288
21758W        W37652   0.251  13.438  15.270 -0.3250 -0.0200 -0.1299
21759W        W37653  16.959  10.475   0.757  0.0432  0.1123  0.1006
21760W        W37654  12.667   2.241  15.358  0.1812 -0.1333  0.1412
21761W        W37655  14.297   9.617   5.254  0.0320 -0.1679  0.2661
21762W        W37656  17.049   0.421  13.365 -0.0419  0.0780  0.1436
21763W        W37657  15.261   7.267  14.227  0.2661 -0.2455  0.1575
21764W        W37658  13.483   9.088  13.343 -0.0030 -0.3125  0.3099
21765W        W37659  12.236  12.448  16.562  0.1574  0.0213 -0.1575
21766W        W37660  15.786  10.154   0.636 -0.0202  0.1420  0.1033
21767W        W37661   6.904   2.627  13.542  0.0757 -0.0303  0.3373
21768W        W37662  12.387  12.001   3.726  0.1671  0.0037  0.0483
21769W        W37663   6.339   7.959  15.953 -0.2562 -0.1553 -0.1357
21770W        W37664   9.102   4.359  11.560 -0.0096 -0.0769 -0.0353
21771W        W37665  15.021   6.785  14.990  0.0288 -0.1865  0.3853
21772W        W37666  10.117  12.587   0.933  0.1863 -0.5323  0.0451
21773W        W37667   1.512   5.396   5.516 -0.0111  0.2193 -0.0126
21774W        W37668   0.720   7.779   5.811 -0.1380  0.1564  0.1505
21775W        W37669   7.697   5.503  14.744 -0.0070 -0.1173 -0.3933
21776W        W37670   7.381  16.862   4.202 -0.1830  0.2106  0.2143
21777W        W37671   6.199   2.925   2.076  0.0303  0.0465 -0.2468
21778W        W37672   8.301  16.523  14.742  0.0035  0.1866  0.0353
21779W        W37673   0.989   4.085  13.192  0.1211  0.1801 -0.1091
21780W        W37674  11.612   7.591   2.854  0.3156  0.1431  0.0387
21781W        W37675   9.826  14.244   4.303 -0.1370 -0.0032  0.0806
21782W        W37676  13.122   0.585   3.643  0.2867 -0.2573  0.2116
21783W        W37677   4.648   0.168  15.169  0.1373 -0.4161 -0.1743
21784W        W37678   5.223   0.189   3.238 -0.4330  0.0568  0.0688
21785W        W37679   6.699  12.526  14.505 -0.1334 -0.0838 -0.0270
21786W        W37680  15.712   6.748   0.739 -0.1338  0.2535 -0.2719
21787W        W37681   7.758  10.323   3.159  0.1977  0.2540 -0.1591
21788W        W37682  16.521   4.141   3.635 -0.1315 -0.0062  0.0314
21789W        W37683   0.650  16.043   4.964 -0.2047  0.4380 -0.0626
21790W        W37684  16.556  17.819  11.869 -0.3040  0.0747  0.2145
21791W        W37685  10.179   8.754   3.079 -0.0763 -0.2658 -0.1406
21792W        W37686  12.558   3.913  12.701  0.2109 -0.2135 -0.0700
21793W        W37687   5.084  15.007   4.511 -0.1995 -0.1625  0.1562
21794W        W37688   0.156   6.277  16.815  0.0327 -0.0721 -0.1745
21795W        W37689  15.525  17.606  16.154  0.1207  0.1621  0.2383
21796W        W37690  12.243   4.790   1.597 -0.0268  0.4824 -0.2773
21797W        W37691   9.213   7.103  13.831  0.0520  0.1438 -0.1276
21798W        W37692   6.078   2.481  16.112 -0.0990 -0.3820  0.3658
21799W        W37693   0.640   1.540  12.580 -0.0918  0.2008 -0.0532
21800W        W37694   0.981   7.258  15.712  0.0508  0.1697 -0.2147
21801W        W37695   0.623  17.345   3.889 -0.2956  0.0880  0.3394
21802W        W37696   2.354   0.007   3.938  0.2035  0.2483 -0.5000
21803W        W37697  12.287   7.462  13.213 -0.0685 -0.2283  0.0971
21804W        W37698   8.985   5.021   3.814  0.0087  0.2967 -0.0522
21805W        W37699   8.986  16.055  12.980 -0.1861  0.0628  0.0825
21806W        W37700   2.825   1.878   5.170 -0.0497  0.2130 -0.0047
21807W        W37701   5.586   9.979  12.426 -0.2303  0.1978 -0.1020
21808W        W37702  13.585  17.670   4.058 -0.3713 -0.0158  0.1098
21809W        W37703  14.638  14.485  12.703 -0.0976 -0.1225 -0.1156
21810W        W37704  10.098   6.969   4.802  0.0107 -0.1032 -0.3691
21811W        W37705   3.207  13.770   1.565  0.0225 -0.2642 -0.1371
21812W        W37706   1.520   7.754  14.225  0.0760  0.3139 -0.2449
21813W        W37707  15.080   5.053  11.588  0.4445  0.1038  0.0525
21814W        W37708   9.854   0.960   4.203 -0.1371  0.0543  0.3063
21815W        W37709  10.261  16.645  16.739 -0.3122 -0.0227  0.1590
21816W        W37710   7.986   5.343   1.004  0.0236  0.0845 -0.1924
21817W        W37711  15.809   8.478  16.185  0.0986 -0.1402  0.1555
21818W        W37712   7.248  11.345   4.836 -0.0339 -0.0940  0.3408
21819W        W37713  11.809  12.422  15.709  0.1297  0.0244 -0.1881
21820W        W37714   5.795   2.215   1.620  0.0292  0.2855 -0.0769
21821W        W37715  13.583   6.172  13.654  0.0880  0.1719 -0.0695
21822W        W37716  16.322   4.784   4.524 -0.1289 -0.4156  0.0602
21823W        W37717   3.575   5.749   1.304 -0.0653 -0.1126  0.5486
21824W        W37718  11.615   1.811  13.559  0.0340 -0.0639  0.0150
21825W        W37719  12.693  16.625  12.760 -0.0595  0.1243 -0.1592
21826W        W37720  13.813   2.246   4.408  0.1749 -0.2832 -0.3481
21827W        W37721   6.457  14.952   0.002 -0.0644 -0.0451  0.2231
21828W        W37722   7.160  14.195   2.401 -0.0589 -0.0978 -0.2609
21829W        W37723   6.658  14.378  12.580  0.0546  0.2381 -0.0422
21830W        W37724  10.612   1.840  15.694 -0.1116  0.2093 -0.1225
21831W        W37725   1.707   7.281  14.214  0.0656 -0.0504 -0.1406
21832W        W37726   2.092   8.890   4.117  0.0259  0.0499 -0.1633
21833W        W37727  10.216  17.063   0.135 -0.0366  0.0166 -0.3892
21834W        W37728  17.469  12.247   3.580  0.1297  0.0829 -0.0628
21835W        W37729   5.320   8.191   2.294 -0.3153 -0.0002 -0.0850
21836W        W37730   1.791   6.677   3.200 -0.1478  0.1463  0.2231
21837W        W37731  14.641  13.117   1.244  0.2918  0.4055  0.0432
21838W        W37732  15.026   9.149  16.565  0.0677  0.1557 -0.1202
21839W        W37733   3.556   9.636  12.357  0.0729  0.1547  0.0856
21840W        W37734  17.630   5.745  13.425  0.0039 -0.0267  0.0586
21841W        W37735   9.698   7.166  15.042 -0.1470  0.0529  0.1796
21842W        W37736   9.878   0.550   0.662  0.1006 -0.1433  0.1443
21843W        W37737   4.088   6.176  10.515 -0.0591  0.3745 -0.0761
21844W        W37738   7.609  13.994  12.085  0.2638 -0.3536  0.4300
21845W        W37739  13.507  14.218  12.626 -0.0830  0.0605  0.0016
21846W        W37740  10.753   0.402   1.456  0.1680 -0.1722 -0.1728
21847W        W37741   6.928   7.855  12.035 -0.1400  0.0642 -0.3021
21848W        W37742   1.912   6.290  14.111 -0.0201 -0.1732  0.0366
21849W        W37743  14.107   0.744  15.367 -0.1818  0.0689 -0.0263
21850W        W37744  14.938   8.055   4.676  0.1723  0.1332  0.2539
21851W        W37745  15.813   0.157   4.243  0.1944 -0.1000 -0.2000
21852W        W37746  14.448  10.058  16.262  0.1230 -0.2023 -0.0106
21853W        W37747   7.337   2.634  16.200  0.2036 -0.1173  0.1078
21854W        W37748   0.845  14.484  14.473  0.1024 -0.1326  0.1773
21855W        W37749   3.414   2.857  11.641  0.0013  0.0663 -0.0346
21856W        W37750  13.487  12.618  16.202 -0.1830 -0.0375  0.1003
21857W        W37751   4.047   5.086   1.981 -0.0416 -0.5076  0.2873
21858W        W37752   7.375  11.626  16.755 -0.3081  0.5490  0.1018
21859W        W37753   3.405  16.147  15.838  0.3070  0.2055 -0.0694
21860W        W37754   3.334   0.115  15.596 -0.2227  0.3425 -0.0240
21861W        W37755  10.292   4.422   4.438 -0.2752 -0.1271 -0.1515
21862W        W37756   1.327   3.296   0.695  0.1601 -0.1912  0.1143
21863W        W37757   9.166   3.376  15.078  0.1445 -0.0793  0.1199
21864W        W37758  17.536   6.441  16.881 -0.0232 -0.0584  0.0849
21865W        W37759   0.088   8.955  14.016 -0.2108 -0.3023  0.1440
21866W        W37760  13.030   2.674   2.091 -0.2384  0.1204 -0.0481
21867W        W37761   8.130  10.197  14.861 -0.1901  0.0785 -0.0023
21868W        W37762   2.470   5.444  15.173  0.0831 -0.0827 -0.1468
21869W        W37763   9.971  12.690  14.549  0.0903 -0.0077  0.0969
21870W        W37764   6.547  15.544  15.880 -0.2525 -0.3352 -0.1629
21871W        W37765  17.746   7.261  14.665 -0.2774 -0.0620  0.0826
21872W        W37766   4.156   4.720   0.179 -0.1089 -0.3531  0.2197
21873W        W37767   1.873  14.912  11.938 -0.1669  0.0088 -0.0507
21874W        W37768  11.697  15.269   3.220 -0.0174 -0.0745 -0.3141
21875W        W37769  14.737  15.646  13.621 -0.1930  0.3320 -0.0500
21876W        W37770   0.075   3.631   2.071 -0.0048 -0.0695 -0.1223
21877W        W37771   1.764   4.416  14.032 -0.0265  0.0819 -0.0105
21878W        W37772   5.396  14.830  14.678 -0.1987  0.1087  0.0259
21879W        W37773  12.791   9.025   0.985 -0.0863 -0.1215 -0.1858
21880W        W37774  11.173  16.318   1.217  0.2952 -0.1544 -0.4458
21881W        W37775  15.161   5.209   0.268  0.0667  0.2362 -0.2828
21882W        W37776  10.788   2.234  14.100  0.0637  0.2616  0.1700
21883W        W37777  11.122   9.090   5.786 -0.1093 -0.2388 -0.0568
21884W        W37778   5.154   2.812  13.792  0.0312 -0.1609 -0.1832
21885W        W37779   0.112  17.562   5.098 -0.2333  0.1858 -0.2965
21886W        W37780   5.921   6.768   0.625  0.0509  0.2014 -0.1914
21887W        W37781  10.676   7.357   6.545  0.1271 -0.0459  0.1563
21888W        W37782  10.985  13.299  12.936  0.0136 -0.2865  0.2741
21889W        W37783   5.978   7.616  14.385  0.0422  0.0113 -0.0505
21890W        W37784  17.343  14.684  15.637  0.1503 -0.1547  0.1094
21891W        W37785   4.437   2.464   0.629 -0.1710  0.2100  0.2176
21892W        W37786   2.146   3.844  16.239 -0.2120 -0.0089  0.2361
21893W        W37787  13.974   2.970   5.233  0.2747  0.0469 -0.0344
21894W        W37788   2.653   0.647   3.223  0.1345 -0.0690  0.0317
21895W        W37789  11.316   7.072  13.191 -0.0797 -0.3521 -0.0004
21896W        W37790  15.175   9.073   1.020  0.0897  0.2585  0.4752
21897W        W37791   0.889   1.524   0.743 -0.1110  0.1764 -0.3513
21898W        W37792  13.069  10.848   2.898 -0.0358  0.2476 -0.1494
21899W        W37793  11.701   8.631   5.237 -0.0104 -0.2724 -0.0328
21900W        W37794   6.029   9.515   2.242 -0.1772  0.1168 -0.0859
21901W        W37795   6.591   7.517   1.500 -0.1275 -0.4243 -0.2678
21902W        W37796  15.840  12.825  13.652 -0.1319  0.0025 -0.1632
21903W        W37797   5.227   9.918   3.259 -0.0769  0.1632  0.1073
21904W        W37798   5.951  14.328   4.340 -0.1522  0.0234  0.1891
21905W        W37799   5.462  13.125  12.081 -0.3227 -0.0688  0.1200
21906W        W37800  11.303  16.770  13.217  0.0255 -0.1409  0.2956
21907W        W37801   9.310  14.232   1.934  0.1705 -0.0422  0.2322
21908W        W37802   8.024  16.770   1.872  0.3792 -0.1022 -0.0495
21909W        W37803  16.059   2.115   1.077  0.1780 -0.1365 -0.0184
21910W        W37804  12.844   3.140   0.793  0.1146  0.2513 -0.0711
21911W        W37805   4.310   1.248  15.451 -0.0336  0.2682  0.5241
21912W        W37806   8.325  13.354   5.068  0.1450  0.0715  0.1717
21913W        W37807   1.531   3.504   3.311 -0.1323  0.0437 -0.0198
21914W        W37808  14.363   6.352  16.396  0.3234 -0.1572 -0.1835
21915W        W37809   9.679   5.999   2.203 -0.0642  0.1362  0.0326
21916W        W37810  14.486  15.806  12.593 -0.3063 -0.0495  0.1042
21917W        W37811   0.364   2.113   3.916  0.1512 -0.1817 -0.0687
21918W        W37812   3.402  15.360   3.599  0.1254 -0.2207 -0.6369
21919W        W37813   9.967  14.020  12.171  0.1622 -0.1621 -0.0377
21920W        W37814   5.038   5.269  11.880 -0.0764  0.2740  0.1058
21921W        W37815  16.070  17.482   1.293 -0.0160 -0.0107  0.2661
21922W        W37816   3.170  12.747   3.275 -0.1573  0.0826  0.0721
21923W        W37817  17.522   8.024  11.718  0.2241  0.1520 -0.1221
21924W        W37818   4.219  14.045   4.871 -0.1187  0.0951 -0.2449
21925W        W37819  11.808  13.830  13.463  0.0142 -0.0682 -0.1230
21926W        W37820   7.480  16.090  13.103  0.2820  0.4921  0.0388
21927W        W37821   4.002  17.642   4.801  0.1822 -0.2942  0.1404
21928W        W37822   1.194  16.428  15.302  0.0285  0.0062 -0.1078
21929W        W37823  16.397  11.788   2.282 -0.3811  0.1718  0.1478
21930W        W37824   9.438  16.733  12.867 -0.3598 -0.0724 -0.0507
21931W        W37825   5.184  17.369   5.071  0.0367 -0.1841  0.1891
21932W        W37826   0.690  10.779  16.919  0.0049  0.1333  0.0430
21933W        W37827  13.217   9.354   2.152  0.0449 -0.1162  0.0532
21934W        W37828   7.465   9.396  14.895  0.1068 -0.0419  0.1900
21935W        W37829  16.951  12.626   0.103 -0.2935  0.3510  0.0957
21936W        W37830   4.971   4.020  15.280  0.0227  0.1826  0.1088
21937W        W37831  11.868   9.289   3.421 -0.1474 -0.3094 -0.0317
21938W        W37832  15.064   1.072  11.426 -0.1676 -0.1285  0.2700
21939W        W37833  14.398  14.279   0.492 -0.0727  0.1069  0.1455
21940W        W37834  15.062  15.128   5.633 -0.1939 -0.0207  0.0002
21941W        W37835  15.761  17.516   3.672  0.0768  0.1991 -0.0367
21942W        W37836   1.535  17.680   0.584  0.1098 -0.1125  0.0917
21943W        W37837   7.229  12.743   2.422 -0.2847  0.1820 -0.3108
21944W        W37838  17.098  13.661   0.986 -0.0042  0.2164 -0.0936
21945W        W37839   2.069  16.581   5.291  0.1482 -0.0243 -0.0423
21946W        W37840  16.064  12.201  14.181 -0.1809  0.3221  0.3355
21947W        W37841   5.481   8.113   1.766 -0.0029 -0.0408 -0.1205
21948W        W37842  12.123   6.732   0.076  0.1498  0.2401 -0.0413
21949W        W37843   6.412   8.009  15.379  0.0175 -0.1217 -0.2228
21950W        W37844  11.384  11.410   2.508 -0.0539  0.1893 -0.0759
21951W        W37845   4.192  13.729   2.258  0.1729  0.1047 -0.2655
21952W        W37846  11.359  15.585   5.095 -0.1005  0.1908 -0.0942
21953W        W37847   7.747  10.135   3.649  0.1933 -0.1175  0.0545
21954W        W37848   6.509  16.103  14.648  0.1007 -0.1774 -0.1472
21955W        W37849  14.197   0.360   3.228  0.0407  0.0914  0.1727
21956W        W37850  15.106  11.864   4.740 -0.6011 -0.3148 -0.1512
21957W        W37851  10.640  13.747  12.478  0.3106 -0.0616 -0.0350
21958W        W37852  16.332  11.292  16.359 -0.3552 -0.0448 -0.0881
21959W        W37853   1.870   9.652  11.931  0.3342  0.0631 -0.0540
21960W        W37854   0.283   9.489   0.950  0.0902 -0.0863 -0.0469
21961W        W37855   7.416  10.744  12.409 -0.1223 -0.2237  0.0106
21962W        W37856  10.210   9.448  11.800 -0.0981 -0.0952  0.0810
21963W        W37857   0.434   4.305   4.703 -0.0127  0.4123 -0.2845
21964W        W37858  15.047  15.753  15.911 -0.1838  0.1245 -0.2325
21965W        W37859  17.826   1.797  12.002  0.2356  0.4243  0.3323
21966W        W37860   1.789  10.620  16.213 -0.0569  0.0617  0.0755
21967W        W37861  13.030   3.432   5.118 -0.1536  0.1248 -0.2683
21968W        W37862   6.603  12.381   0.637 -0.2952 -0.3472  0.0693
21969W        W37863   4.933  15.961   2.696 -0.1102 -0.3143  0.3675
21970W        W37864   2.688   2.689   4.749  0.3355 -0.0366 -0.1101
21971W        W37865   5.176  13.239   4.691  0.0686 -0.0081  0.1164
21972W        W37866   9.443  11.941   4.363 -0.0610 -0.0751 -0.0043
21973W        W37867   5.036   9.717  14.234  0.3089  0.0687 -0.1072
21974W        W37868   5.018   6.552  16.263  0.1430 -0.1660  0.0578
21975W        W37869  15.914  11.743   2.208  0.1923  0.2419 -0.1185
21976W        W37870  16.027   9.075   1.595 -0.2922 -0.1339  0.3137
21977W        W37871   8.776   0.682  16.470  0.3849  0.1979  0.0803
21978W        W37872  11.829   1.237   5.712  0.0852  0.3021 -0.0139
21979W        W37873   9.311   8.258  16.459 -0.0749 -0.1350 -0.2187
21980W        W37874  11.804   9.914  13.352  0.0913 -0.1724  0.0103
21981W        W37875  16.522   7.299   5.845  0.0481 -0.1831 -0.0610
21982W        W37876   3.492  14.626  13.042 -0.0462 -0.0469 -0.5471
21983W        W37877   1.803   6.680   3.975 -0.1531 -0.0840 -0.1512
21984W        W37878  10.117   6.913  14.146  0.2489  0.2481 -0.2226
21985W        W37879  17.665  17.062  14.357  0.1261 -0.1466 -0.0164
21986W        W37880  10.579   5.854   2.148  0.1279  0.0914  0.3007
21987W        W37881   9.273  11.206   3.153  0.0816  0.2297  0.0637
21988W        W37882  14.551  17.596  15.120 -0.1552 -0.0284  0.0464
21989W        W37883  13.963  15.649   6.126  0.1832 -0.1186 -0.0361
21990W        W37884   6.105   0.092   2.615 -0.2452 -0.2781  0.1743
21991W        W37885   5.514  15.855  12.075 -0.0122 -0.1324 -0.1617
21992W        W37886  14.635   3.426  12.204 -0.0211  0.0160  0.0404
21993W        W37887  15.849   5.491  14.043  0.0436  0.0694  0.4806
21994W        W37888   8.190   5.794  15.345  0.3011 -0.2141 -0.0904
21995W        W37889  12.515   4.548  12.596 -0.0043 -0.0825  0.2783
21996W        W37890  14.238   0.108   0.926  0.2487  0.1098  0.1254
21997W        W37891  15.085  13.680  14.765  0.2530  0.3418  0.0357
21998W        W37892   5.819  17.495   0.798 -0.3447  0.3214 -0.0570
21999W        W37893  15.615  10.876   3.398  0.0894  0.4650  0.4826
22000W        W37894   1.963  17.687  14.631  0.3176 -0.1780 -0.0095
22001W        W37895   1.414   5.616  11.841 -0.0223  0.1929 -0.0594
22002W        W37896   2.993  12.143  15.219  0.2103  0.4619 -0.1604
22003W        W37897  11.203  12.371   4.973  0.0557  0.0068  0.3051
22004W        W37898  11.225  10.518   2.103  0.1909 -0.1643  0.1483
22005W        W37899   4.721   3.114   1.804  0.2884 -0.0645 -0.1279
22006W        W37900  17.569   7.217   1.721  0.1157  0.1571 -0.2336
22007W        W37901  13.393   1.468  15.669  0.1611  0.0144  0.1404
22008W        W37902  16.910   9.062   2.052  0.2486  0.1295  0.1602
22009W        W37903   0.889  12.406  16.182 -0.1685 -0.0389  0.0309
22010W        W37904  15.195   3.947  16.672 -0.1970  0.1875 -0.2398
22011W        W37905   2.122   3.366   2.320 -0.2385  0.3855  0.1149
22012W        W37906  11.149   9.277   2.928 -0.1893  0.1310  0.0971
22013W        W37907  16.317  17.034   3.152  0.3697 -0.2940  0.1233
22014W        W37908   5.679   1.473  16.802 -0.0980  0.2202 -0.2157
22015W        W37909   6.375   4.340  16.401  0.1078  0.1322 -0.1115
22016W        W37910  10.264  17.569  11.509  0.1106 -0.1935  0.1610
22017W        W37911   3.874   4.592  16.637  0.1901  0.3469  0.2717
22018W        W37912  16.739   0.373   5.916 -0.1970 -0.2189  0.2457
22019W        W37913   4.803   0.619   5.842 -0.2435  0.0701  0.0694
22020W        W37914  17.277   0.298   4.629  0.1953 -0.1418  0.2007
22021W        W37915   9.364   5.331  15.591  0.1076  0.0069 -0.1977
22022W        W37916   6.120  15.909   0.492  0.0674 -0.0917 -0.1193
22023W        W37917  10.335  14.145   5.643  0.0400 -0.0807  0.0527
22024W        W37918   7.208  10.601  15.736 -0.2240  0.0329 -0.0285
22025W        W37919  10.843  10.751   0.663  0.1293 -0.1014  0.1696
22026W        W37920   1.789   6.777  16.605 -0.0683  0.1255  0.1770
22027W        W37921  16.054  13.660   3.543 -0.3208 -0.0346  0.3323
22028W        W37922   2.909   1.976  12.641  0.0138 -0.0148 -0.3703
22029W        W37923  11.668   6.773  11.958  0.0164 -0.0074  0.1124
22030W        W37924   3.358   0.797   0.840  0.0947  0.0653  0.2579
22031W        W37925  13.063  11.726  15.087 -0.0691  0.1309  0.1384
22032W        W37926   4.913   0.630   4.060  0.1174  0.0220 -0.0191
22033W        W37927   5.934   6.757   1.820 -0.1888 -0.6508 -0.2209
22034W        W37928  16.516   4.470  12.592  0.0775  0.1196  0.2509
22035W        W37929  12.894   3.990  13.485  0.4460 -0.0400 -0.1136
22036W        W37930  12.258  16.234  16.695 -0.1953 -0.0068 -0.2445
22037W        W37931  13.722  11.886   5.392 -0.3688 -0.3461  0.1990
22038W        W37932   9.139   6.386   0.478  0.1238  0.0581 -0.3260
22039W        W37933   1.462  14.369  14.897 -0.0503 -0.0130 -0.2636
22040W        W37934   3.132   2.272   0.803 -0.2201 -0.0644  0.0254
22041W        W37935   7.178   8.410  12.428 -0.2215 -0.0593  0.1377
22042W        W37936   4.882   5.868  13.323  0.1146 -0.0891  0.0079
22043W        W37937   6.564   3.464  15.651 -0.1277  0.2567 -0.1515
22044W        W37938   3.997   7.109   1.938  0.0958  0.1722 -0.1686
22045W        W37939  15.994   7.156   3.702 -0.1488  0.0002 -0.1276
22046W        W37940  10.552   5.456  13.243 -0.0174  0.1858 -0.1006
22047W        W37941   0.690   7.419  11.673  0.1449 -0.3138  0.0612
22048W        W37942   2.517   3.635   4.919  0.1460  0.2152 -0.0419
22049W        W37943   0.499   4.841   1.256 -0.1686  0.0778 -0.1400
22050W        W37944  15.652   6.526  15.415 -0.3244  0.0060 -0.0517
22051W        W37945   1.079   1.519  16.824 -0.0986 -0.2123 -0.0832
22052W        W37946   7.690   3.646  15.438  0.0381 -0.0140 -0.2900
22053W        W37947   3.901   6.413   2.234 -0.3367 -0.0836  0.0332
22054W        W37948  16.771   5.183   1.184 -0.2321 -0.1246  0.0113
22055W        W37949   4.474  15.279  13.363  0.1622 -0.1522 -0.1218
22056W        W37950  13.173   4.320  13.125 -0.2190  0.3125 -0.0204
22057W        W37951   8.111   5.768  13.473 -0.0798 -0.0228 -0.2908
22058W        W37952  15.541   6.616  14.944  0.1957  0.2526  0.1148
22059W        W37953   7.833  15.916   4.655  0.0031  0.0095 -0.0028
22060W        W37954   9.068  13.911  15.507  0.1772  0.3507  0.1171
22061W        W37955   0.473   1.642   5.804 -0.1135 -0.2913 -0.2248
22062W        W37956   1.315   3.316   5.298  0.2284 -0.0134 -0.2587
22063W        W37957  12.091   9.236  13.955 -0.0077 -0.2420 -0.2674
22064W        W37958   8.717   9.568   4.816  0.4129  0.1557 -0.4190
22065W        W37959   4.849   4.966  15.285  0.0492 -0.0995 -0.1104
22066W        W37960   5.361  17.747  15.913 -0.1067  0.0108  0.2202
22067W        W37961   1.350  13.007  13.344  0.2809  0.1707 -0.1424
22068W        W37962  11.367  12.581  13.935  0.2766 -0.1016  0.1301
22069W        W37963   6.351  15.260  13.624  0.0648  0.0614  0.2064
22070W        W37964  11.098   7.551   2.707  0.2446  0.1026 -0.2066
22071W        W37965  17.599   2.419  16.081  0.0915 -0.2251  0.1620
22072W        W37966  12.861  10.633  12.996  0.0642 -0.2595 -0.1204
22073W        W37967  12.080   6.812  14.122  0.3485  0.0518 -0.3237
22074W        W37968   7.777  15.945  14.245  0.0064 -0.4051 -0.2375
22075W        W37969   5.390  13.519   1.605  0.0058 -0.1652 -0.2325
22076W        W37970   3.554   4.094  11.434  0.1501 -0.2547 -0.0636
22077W        W37971  16.130   9.132   6.168 -0.0626  0.1384 -0.1867
22078W        W37972   9.314  12.688  13.679 -0.1473  0.0165  0.0555
22079W        W37973  14.269   0.514   1.737 -0.2488  0.0084 -0.0415
22080W        W37974   4.431  15.327  15.966 -0.0956 -0.0922  0.0999
22081W        W37975   3.447  14.661   4.809 -0.2920 -0.2610 -0.1459
22082W        W37976   1.963   8.582  16.090 -0.0866  0.0367  0.0749
22083W        W37977  10.731  17.325   2.613  0.2447  0.0197  0.1464
22084W        W37978  16.379  16.696   1.556 -0.2088  0.3772 -0.4409
22085W        W37979   3.281   5.362   1.476  0.2215 -0.0984  0.1663
22086W        W37980  13.783  11.605   3.097  0.0118  0.1352  0.1065
22087W        W37981   9.718   9.167   1.436 -0.0638 -0.0286  0.0404
22088W        W37982   1.145   5.775   0.051 -0.1034 -0.0258 -0.1373
22089W        W37983   8.456   2.921   3.209  0.1296  0.1083 -0.0503
22090W        W37984  12.152   5.614   5.238 -0.0487  0.2347 -0.0736
22091W        W37985   1.103   5.694  14.605 -0.2521  0.0929  0.2254
22092W        W37986  11.284  12.905   3.650  0.3605 -0.1878 -0.0831
22093W        W37987  13.218   5.425   6.038 -0.1799 -0.0452 -0.0937
22094W        W37988   4.684  10.985  13.564  0.2400 -0.0909  0.1312
22095W        W37989  10.465   0.653   3.572 -0.1176  0.1156  0.0814
22096W        W37990   9.490  12.067   2.757 -0.0054 -0.0490 -0.0162
22097W        W37991  15.387  12.753   6.153 -0.0206  0.0944 -0.4018
22098W        W37992  13.839  12.143   3.868 -0.4351  0.0583  0.0259
22099W        W37993   9.668  16.515  14.038 -0.0385 -0.2110 -0.1789
22100W        W37994   6.998  12.301   2.593  0.3949 -0.2190  0.0822
22101W        W37995   1.753  10.849   2.961  0.2205 -0.2451 -0.0659
22102W        W37996  13.804   4.039  13.484  0.0252 -0.0904 -0.1069
22103W        W37997   8.315  17.718   2.521 -0.1616 -0.4556 -0.1624
22104W        W37998   7.514  12.779  12.241  0.0357 -0.0458  0.1569
22105W        W37999  11.376  12.838  13.072  0.3820 -0.0189 -0.1573
22106W        W38000   1.885   0.120   3.446 -0.1304 -0.3613 -0.1736
22107W        W38001   2.972  12.259  13.192  0.2491  0.2670 -0.0058
22108W        W38002   8.387   2.399   5.220  0.0454  0.2558 -0.1066
22109W        W38003   5.001  15.381   0.739  0.0223 -0.2802  0.0517
22110W        W38004  15.933   1.191  11.985  0.1315 -0.0398  0.3255
22111W        W38005  17.743   7.148  13.555  0.5833  0.0122  0.0916
22112W        W38006  12.593  13.751   4.181 -0.0717  0.0801  0.0858
22113W        W38007  16.281   0.626  10.148  0.0612  0.1762 -0.4689
22114W        W38008  11.773   0.900   0.145  0.0142 -0.3074 -0.0843
22115W        W38009   7.490   4.997  16.460  0.1162  0.0331 -0.2001
22116W        W38010   8.858  11.865  12.086 -0.2050  0.0787  0.1857
22117W        W38011  14.272   6.314   1.968  0.0577 -0.2433 -0.0749
22118W        W38012  11.124   6.790  12.479  0.0097 -0.1264 -0.0743
22119W        W38013  13.934   6.693   6.007 -0.0478 -0.1943  0.0858
22120W        W38014   6.969  15.992  12.981  0.0177 -0.0197 -0.1431
22121W        W38015  10.093   9.241   3.310  0.0510 -0.1870  0.0807
22122W        W38016   2.761   5.248  10.514  0.2007 -0.0052  0.0529
22123W        W38017   6.231   9.206   1.222 -0.0182  0.0626  0.2169
22124W        W38018   6.706   8.013  16.235 -0.1936  0.0585 -0.0418
22125W        W38019   4.600  11.183   5.817 -0.0982  0.1407 -0.0126
22126W        W38020  16.366  11.305   3.435 -0.2525 -0.0935  0.1893
22127W        W38021   4.336  11.372  13.690 -0.0977 -0.2106 -0.2287
22128W        W38022  10.017  10.908  16.588  0.0343  0.0805 -0.0061
22129W        W38023  13.393   1.743   3.213 -0.2440 -0.1083  0.4383
22130W        W38024   3.619   7.247  15.204 -0.3203  0.0524  0.1875
22131W        W38025   3.994   7.379   3.223 -0.4333  0.2146  0.0946
22132W        W38026  14.843   0.688   1.023  0.2713  0.0424  0.0134
22133W        W38027   4.425  14.065  14.324  0.1018 -0.1849  0.0681
22134W        W38028  10.493   0.258   2.545 -0.2310  0.1288  0.1746
22135W        W38029  13.655   9.802  15.866 -0.2447 -0.2740 -0.0798
22136W        W38030  15.898   2.884  11.294 -0.0977  0.3759 -0.0734
22137W        W38031   1.662   9.952   4.004  0.2374 -0.0611 -0.2520
22138W        W38032   2.680   0.650  13.515  0.3562 -0.0646  0.0863
22139W        W38033  13.334  11.077   6.495  0.5171  0.3360 -0.2355
22140W        W38034  14.286  14.518   5.552  0.1087 -0.3742 -0.1280
22141W        W38035   3.667   5.453   4.318  0.2267 -0.1634 -0.0121
22142W        W38036   8.837  10.509  14.115  0.0208 -0.0455  0.1456
22143W        W38037   2.474   5.331   3.870 -0.0524 -0.0572 -0.3153
22144W        W38038  13.873   0.143  11.709 -0.1215 -0.0625 -0.5863
22145W        W38039  15.456   4.615   5.427 -0.1162 -0.1172  0.2398
22146W        W38040   3.457   3.146   4.318  0.3162 -0.1001  0.1641
22147W        W38041  11.639   9.910  15.136  0.0554  0.0233 -0.0855
22148W        W38042   1.665   0.006   2.586  0.0027 -0.2617 -0.2542
22149W        W38043   4.589   8.635  12.773 -0.1207  0.0674  0.1511
22150W        W38044  13.576  13.112  16.108 -0.1006 -0.0254 -0.1054
22151W        W38045   4.972  12.597   3.462  0.0406 -0.0465  0.2929
22152W        W38046   3.173   3.641  12.695  0.1403 -0.2657 -0.0981
22153W        W38047  15.345  13.033  14.096 -0.2934 -0.1654 -0.1307
22154W        W38048   4.127  13.655   0.623 -0.2262 -0.0072  0.1791
22155W        W38049   8.898  15.418   1.995 -0.0260  0.0753  0.2630
22156W        W38050  14.084  15.410   1.094 -0.2527  0.0149  0.1011
22157W        W38051  13.923  15.331  14.253  0.1151  0.1066  0.3319
22158W        W38052   4.867   4.994  16.851  0.1314  0.0173 -0.1032
22159W        W38053   2.103  13.521  16.778 -0.1730  0.3267 -0.1458
22160W        W38054  13.566   2.709  13.414  0.0197  0.1474  0.1731
22161W        W38055  14.036  11.587   3.716  0.3887  0.1541 -0.1045
22162W        W38056   5.467  10.100   1.642  0.0819 -0.2198  0.2980
22163W        W38057   2.562   1.880   2.577  0.0030  0.1663  0.1905
22164W        W38058  11.946  14.094  16.383  0.1447  0.3019  0.3706
22165W        W38059  15.571  13.831   4.432  0.0108  0.0160  0.1171
22166W        W38060   1.123  14.023  16.053  0.2723  0.2968 -0.3520
22167W        W38061  13.252  13.757   4.710  0.0219  0.2426 -0.1520
22168W        W38062   9.089   5.662   2.939  0.1340 -0.1100 -0.3099
22169W        W38063   5.803   4.931  14.564 -0.3475 -0.0502  0.0304
22170W        W38064   5.927   4.601  14.158  0.0932  0.1449 -0.0276
22171W        W38065   3.805  10.873   2.316  0.0813  0.3243 -0.0741
22172W        W38066  13.198  15.313  11.930 -0.0665 -0.2145 -0.1245
22173W        W38067  17.232  17.039  13.894 -0.2620 -0.2956 -0.0037
22174W        W38068  12.817  14.432  14.381  0.2761  0.0727 -0.0580
22175W        W38069  10.525  10.693  14.824 -0.1424  0.1927  0.2074
22176W        W38070   3.132  11.003  14.582  0.4740 -0.0693 -0.1315
22177W        W38071  12.137   8.223  12.307  0.2792  0.1720  0.0939
22178W        W38072  15.596  12.739   3.790  0.2642  0.0868  0.2567
22179W        W38073   3.394   7.897   0.527 -0.1431 -0.0566 -0.3597
22180W        W38074  10.207  13.134   0.874 -0.0696 -0.0924 -0.0903
22181W        W38075  10.695   4.957   4.986  0.0161 -0.0061 -0.2820
22182W        W38076   7.818   6.892   2.321  0.1409 -0.1841 -0.4510
22183W        W38077  16.763   5.887   5.790 -0.0976  0.1486 -0.1040
22184W        W38078   2.934  15.425  13.028 -0.1302  0.4564  0.0111
22185W        W38079  14.161  14.828  12.695  0.2337  0.0525  0.2435
22186W        W38080  17.557  15.878  14.145  0.0868 -0.1324  0.3140
22187W        W38081   4.857  17.606  16.017 -0.1049  0.4141  0.1129
22188W        W38082   4.166   8.490   3.027  0.0818  0.2134  0.0536
22189W        W38083   9.196   7.868   3.012 -0.1637  0.0621  0.0739
22190W        W38084   9.598   4.014   0.613 -0.5336 -0.4045 -0.3805
22191W        W38085   4.598   5.118  13.910 -0.0311 -0.4287 -0.1067
22192W        W38086  13.768   8.734  15.113 -0.0977 -0.0144 -0.0489
22193W        W38087   1.698  16.825   5.505 -0.0210  0.1061  0.2062
22194W        W38088   4.268   6.586  13.383 -0.0172 -0.2017  0.0560
22195W        W38089  11.707   9.830   2.466 -0.0225  0.1475  0.1396
22196W        W38090  10.534  16.659   0.260 -0.0744 -0.1427 -0.1508
22197W        W38091  15.698  12.473  16.092 -0.0898  0.0981  0.0666
22198W        W38092  10.664  16.327  15.224 -0.0105 -0.1151  0.1423
22199W        W38093  10.959  12.092   1.688 -0.0714  0.3950  0.1244
22200W        W38094  14.873   2.855  11.320 -0.1148  0.0667 -0.0190
22201W        W38095  15.842  14.808  12.937  0.0231  0.0532  0.1102
22202W        W38096  13.565  10.659   5.231 -0.1208  0.2222 -0.1019
22203W        W38097   4.433   1.478   4.824 -0.0464  0.2397 -0.0834
22204W        W38098  17.184  11.161  14.622 -0.1249  0.0921  0.1593
22205W        W38099   3.420   6.371  14.237 -0.2613  0.0733 -0.0129
22206W        W38100  16.029  17.605  16.006  0.0985 -0.2027 -0.0305
22207W        W38101  17.396   0.913   5.449 -0.1685 -0.2992  0.5252
22208W        W38102  10.494   9.999   3.177  0.0244 -0.1214  0.2228
22209W        W38103   9.189   2.107   6.452 -0.1502  0.0403  0.2663
22210W        W38104  10.673  10.547   3.272  0.3257 -0.0559 -0.0871
22211W        W38105  14.073  13.805  15.664 -0.0330  0.1230 -0.2533
22212W        W38106  11.469  12.094  15.600 -0.3486 -0.3130 -0.0250
22213W        W38107  16.446   1.023   0.591 -0.2653  0.2779 -0.1823
22214W        W38108   9.734  17.790  10.693 -0.2562 -0.1365 -0.4003
22215W        W38109   6.669  12.865   0.827 -0.1314  0.0034 -0.2560
22216W        W38110  15.593  12.988   0.902 -0.1614 -0.0238  0.0947
22217W        W38111  17.457   9.746   1.149  0.2721 -0.0191 -0.0138
22218W        W38112  14.585   8.049  15.900  0.0942 -0.1511  0.0515
22219W        W38113   8.400   0.944   0.471 -0.2515  0.0728 -0.0784
22220W        W38114   9.030  12.944   4.866  0.1337 -0.1085 -0.1635
22221W        W38115   1.383   2.130   4.594 -0.0938  0.0391 -0.1364
22222W        W38116   8.035   6.261   2.758  0.0026  0.0391 -0.0469
22223W        W38117  16.454  16.478   6.122  0.0849 -0.0989 -0.1144
22224W        W38118  11.414   6.136  14.306 -0.1275 -0.4772  0.1085
22225W        W38119   1.205   3.327  14.337  0.2077  0.0407  0.3668
22226W        W38120  13.194  12.509   5.986 -0.2178  0.1174 -0.0816
22227W        W38121  10.303  17.495  14.636  0.0400  0.2388 -0.0340
22228W        W38122   2.716  12.664   3.053 -0.0708 -0.0099 -0.1595
22229W        W38123  14.270   1.136  15.001 -0.0462  0.1786  0.2024
22230W        W38124   7.647   1.788  12.600  0.0684 -0.2073  0.1956
22231W        W38125   7.635   8.484   4.688  0.2798  0.1476 -0.0864
22232W        W38126   8.919  17.484  14.386 -0.0114  0.2773  0.0557
22233W        W38127  17.351   0.201  13.612 -0.0435 -0.1765 -0.1455
22234W        W38128  16.656  10.813  15.183 -0.2985 -0.0731  0.1906
22235W        W38129   1.421  10.693   0.627 -0.0860  0.2011 -0.0144
22236W        W38130   4.658   3.215  16.513 -0.1275  0.6497  0.1881
22237W        W38131  16.549  16.775  10.955  0.0141  0.1095  0.0188
22238W        W38132  11.798   8.823  13.397  0.0072  0.0558  0.4407
22239W        W38133   9.972  15.381   0.087 -0.1440  0.0701  0.0296
22240W        W38134  15.689   2.880  13.414  0.2218  0.1325  0.2063
22241W        W38135   9.332   4.144   0.083 -0.1998 -0.1671 -0.0251
22242W        W38136   7.753   7.327   0.588 -0.4159 -0.1909  0.4240
22243W        W38137   9.041  13.928   4.717 -0.0244 -0.1816  0.1179
22244W        W38138   2.352   4.554   1.892  0.1128  0.1269 -0.1369
22245W        W38139   6.107  10.387   3.781 -0.0582 -0.1411  0.1187
22246W        W38140  16.343   1.282  16.906 -0.0848  0.3174  0.0552
22247W        W38141   4.105  17.598  16.618  0.0553  0.0315 -0.0505
22248W        W38142   7.649   3.399   3.276  0.1399 -0.1101  0.0637
22249W        W38143   4.417   9.736  13.786 -0.1148 -0.0723  0.1421
22250W        W38144   7.829  15.503  15.055 -0.0040  0.1561  0.0677
22251W        W38145  17.282  10.311  11.451 -0.1096 -0.2305 -0.4398
22252W        W38146  15.499   1.303   1.850  0.1214  0.2828  0.1117
22253W        W38147   5.205   2.522   3.766 -0.0765  0.2147  0.0186
22254W        W38148   0.789   5.182  15.538  0.1792  0.2088 -0.0290
22255W        W38149   5.600  16.793   3.771 -0.0888  0.0793  0.1430
22256W        W38150   9.920   5.361   0.031  0.1282 -0.1567  0.0471
22257W        W38151   4.720   5.718   3.481 -0.2055  0.0252  0.1337
22258W        W38152   5.261  12.883   2.314  0.0003  0.4637  0.2044
22259W        W38153   2.623   3.146   3.414 -0.4436 -0.0122  0.2671
22260W        W38154   6.948  15.536   0.199  0.1392  0.2705  0.0887
22261W        W38155   5.619   6.511  13.018 -0.0072 -0.2246  0.0921
22262W        W38156   3.445  17.447  14.733 -0.0822 -0.1543  0.0047
22263W        W38157  15.862  11.702  12.471 -0.0728  0.1456 -0.2291
22264W        W38158   2.643  12.259  14.659 -0.0912 -0.0434 -0.0701
22265W        W38159   7.925  17.105   5.607  0.0776  0.1086  0.2289
22266W        W38160  11.655   2.998   2.369 -0.2424 -0.2576  0.0860
22267W        W38161  17.021   6.688  12.309  0.1843  0.2697  0.2573
22268W        W38162   8.587   0.505   3.825  0.0267  0.0946 -0.2854
22269W        W38163   0.911  16.833   4.763 -0.0152  0.0869 -0.0427
22270W        W38164  10.073   6.111  13.575  0.0957  0.3845 -0.0768
22271W        W38165   2.117  10.112  15.695 -0.2695 -0.0715 -0.1327
22272W        W38166  15.650  13.376   1.901  0.0148 -0.0118 -0.0892
22273W        W38167  14.245   0.251  10.773 -0.4046 -0.0995  0.0371
22274W        W38168   7.179  14.958   0.431 -0.3813  0.3183  0.0179
22275W        W38169   8.539  15.755  12.942  0.2201 -0.2726 -0.0295
22276W        W38170   4.459  12.911   3.418 -0.3302 -0.0456 -0.0895
22277W        W38171   2.015  15.572   1.436 -0.0237  0.0026  0.2843
22278W        W38172  17.262   2.273  12.243 -0.0481 -0.0928 -0.2539
22279W        W38173   9.684  10.585  16.905  0.0379  0.1149 -0.0401
22280W        W38174   3.986   5.209  12.474  0.0224 -0.0966  0.0326
22281W        W38175   4.644   0.819   0.815  0.2023  0.2049 -0.0822
22282W        W38176   3.333  12.251  16.020 -0.0370  0.1968  0.1486
22283W        W38177  11.346  16.410  12.262  0.0242  0.4138 -0.1301
22284W        W38178   7.972   4.641   3.093  0.1558  0.2812  0.1481
22285W        W38179  15.116  11.711   1.699  0.0755  0.1424  0.0982
22286W        W38180  13.035   5.728  14.280 -0.3827 -0.0001 -0.1629
22287W        W38181  11.547  14.825   1.943 -0.1550  0.4024 -0.0452
22288W        W38182   8.018   7.716   1.723  0.0930  0.2362 -0.2220
22289W        W38183   9.562  16.043   4.384 -0.0675 -0.1177 -0.0843
22290W        W38184   3.196   2.138  11.413 -0.1667  0.2646  0.0561
22291W        W38185   5.785   6.047   4.904  0.0206 -0.0469  0.1841
22292W        W38186  16.103   9.065   2.157 -0.0891 -0.0901 -0.1047
22293W        W38187  17.419   0.079  14.950  0.1119  0.0871  0.0633
22294W        W38188  12.419  12.423   2.476 -0.2046  0.0870  0.0114
22295W        W38189   8.684  16.514   1.001  0.1068  0.0984  0.2318
22296W        W38190   9.057   1.329   1.481 -0.1730 -0.2469  0.0765
22297W        W38191  10.577  11.956   2.647  0.0886  0.2398  0.0063
22298W        W38192  14.544   2.169  11.377  0.1270  0.0588 -0.1370
22299W        W38193   0.495   2.136   1.222  0.0631 -0.0684 -0.0986
22300W        W38194   3.044  14.787   3.874  0.0238  0.1768  0.0961
22301W        W38195  17.331  10.923  12.733 -0.0773  0.0950  0.0673
22302W        W38196  12.215  15.394   1.166  0.0576  0.1769  0.2278
22303W        W38197   9.385   7.495  15.236 -0.4381 -0.3048  0.1736
22304W        W38198   3.962   4.318   4.705 -0.0134 -0.0128  0.1556
22305W        W38199   1.718   0.981  11.495  0.1746  0.0033  0.2832
22306W        W38200  14.327   2.798  12.622 -0.2091 -0.2253  0.2055
22307W        W38201   9.376  14.659   3.454 -0.0256 -0.3044 -0.1143
22308W        W38202   2.829  10.339   4.260 -0.2346  0.0040  0.1646
22309W        W38203   1.955   3.210  13.428  0.0334 -0.2612  0.0208
22310W        W38204  13.066  15.618  15.105  0.1620  0.0789  0.1113
22311W        W38205   2.306   4.037  12.932  0.0853  0.1825  0.3420
22312W        W38206   9.010   8.871   1.962  0.0544 -0.0567 -0.0591
22313W        W38207   9.994   4.155  15.887 -0.0989  0.1107 -0.0951
22314W        W38208  17.657   0.066   0.899 -0.1041  0.0433 -0.3241
22315W        W38209   9.702   8.557  13.923 -0.2414 -0.0767 -0.1147
22316W        W38210   7.339   1.036   3.822 -0.1158  0.0500  0.1124
22317W        W38211  13.790   1.767  13.520  0.0774 -0.3266  0.0778
22318W        W38212   6.051  13.290   2.405 -0.0205 -0.1665 -0.1427
22319W        W38213   0.217   3.057  14.327 -0.2165 -0.2088  0.1185
22320W        W38214   1.761   8.759  16.913  0.1463 -0.1086  0.2626
22321W        W38215  15.763   8.638   1.569 -0.0161 -0.0354  0.2856
22322W        W38216   6.210  17.267   5.405 -0.2515  0.0093 -0.0753
22323W        W38217   2.690  13.582  14.349 -0.1531  0.4676 -0.0836
22324W        W38218  10.118  13.293   5.183 -0.0184 -0.1946  0.0136
22325W        W38219  14.356  16.261  13.072 -0.1110  0.2746  0.0034
22326W        W38220   5.018  16.221   6.167 -0.1801 -0.1306  0.2379
22327W        W38221   8.666   5.429  15.133 -0.2203 -0.1747 -0.2023
22328W        W38222  17.220   0.351  15.346  0.0776  0.1854 -0.2530
22329W        W38223   0.884   2.495  11.457 -0.0271  0.0664  0.1026
22330W        W38224   9.278   2.648   4.231  0.0774  0.1064 -0.1366
22331W        W38225   5.908   1.508   3.026  0.0040 -0.0272 -0.0729
22332W        W38226  10.378   7.993  15.086  0.0577 -0.2449  0.1531
22333W        W38227   0.177  14.212  16.286  0.0322  0.4531 -0.0426
22334W        W38228  15.813   2.917   1.654 -0.3340 -0.0561 -0.1290
22335W        W38229   5.994   0.859  16.119  0.0925  0.0952 -0.0197
22336W        W38230  13.178   0.412   1.701  0.5549 -0.0876  0.4811
22337W        W38231  17.243   8.497  15.122 -0.0030 -0.1826 -0.0596
22338W        W38232  13.961   0.618  11.687  0.3176 -0.2575 -0.0951
22339W        W38233  12.054  10.970   1.954  0.0670  0.0428  0.1207
22340W        W38234  11.692   7.047  14.441  0.1453 -0.0641  0.2830
22341W        W38235   6.432   5.995   5.871  0.3461  0.1667  0.0343
22342W        W38236   1.405   8.384   4.812 -0.4921 -0.1187 -0.1182
22343W        W38237   0.858  17.679   5.751 -0.2900  0.0242 -0.1473
22344W        W38238   0.199   2.614  11.287  0.0363 -0.1000  0.0144
22345W        W38239  16.247   9.784   5.818 -0.3028 -0.3341  0.0407
22346W        W38240   8.008  14.305   6.343  0.0498 -0.0985 -0.0864
22347W        W38241   0.976   3.136  12.747 -0.0446  0.1157  0.3211
22348W        W38242  12.591   8.475   3.925  0.1240  0.0400 -0.2279
22349W        W38243   5.287   2.116   0.966 -0.1143  0.0694 -0.0574
22350W        W38244   9.287   6.013  14.496  0.0676  0.3233 -0.1004
22351W        W38245  15.445  11.203  11.189 -0.2421 -0.1494  0.0007
22352W        W38246  13.846   7.966  13.073  0.0577 -0.0575 -0.1136
22353W        W38247   4.315  15.250   0.768  0.1677  0.3740  0.1515
22354W        W38248   9.369  12.768  11.817 -0.0771  0.0301 -0.3206
22355W        W38249   3.211   6.758  15.826  0.0766  0.0896 -0.0020
22356W        W38250   9.245   5.256   0.715  0.0644 -0.3176  0.1070
22357W        W38251  16.807  13.117   0.421  0.3021  0.4555  0.2831
22358W        W38252   4.902   0.029   5.026 -0.1811 -0.0092 -0.2850
22359W        W38253   7.122   4.786  11.495 -0.1366 -0.0049  0.1061
22360W        W38254   2.847  13.561   3.640  0.1088  0.0303  0.1027
22361W        W38255  10.043   6.995   3.382 -0.1713  0.0204 -0.2951
22362W        W38256   2.322  16.910  14.400 -0.3413 -0.1903  0.0343
22363W        W38257  16.194   1.726  11.236 -0.0383  0.1166  0.1889
22364W        W38258  14.906   6.569  13.725  0.2393  0.0812 -0.0454
22365W        W38259   5.790   0.283  15.751  0.0017 -0.2509 -0.4252
22366W        W38260   1.388   6.521  11.763  0.1309  0.0219  0.3010
22367W        W38261   3.669  16.129   2.105 -0.0835  0.0635 -0.1138
22368W        W38262  10.717   8.907  16.690 -0.0835 -0.1055  0.3805
22369W        W38263  16.253  14.882   0.293 -0.0135 -0.0255 -0.3201
22370W        W38264   6.716  14.858  12.720  0.3443 -0.2873  0.2611
22371W        W38265  11.445   6.971  15.722 -0.1700  0.1415  0.0637
22372W        W38266   5.796   1.637   4.757  0.0751 -0.0240 -0.0556
22373W        W38267   1.964  17.102   2.209  0.3070 -0.1901  0.0196
22374W        W38268   1.732  11.840  12.037 -0.1800 -0.1070 -0.2014
22375W        W38269  13.941  17.761  12.230  0.1871 -0.0496  0.3364
22376W        W38270  17.098   2.545  11.835 -0.0931 -0.0528 -0.0029
22377W        W38271   2.481  14.830   4.611  0.1032  0.2527 -0.1421
22378W        W38272  13.015   7.378   0.421 -0.2152 -0.1332 -0.0763
22379W        W38273   9.841  14.137   5.287  0.1093  0.2531 -0.0480
22380W        W38274   8.765  16.354   3.230 -0.1778 -0.2294 -0.0021
22381W        W38275   7.622   3.739   0.170  0.1920 -0.2360  0.0951
22382W        W38276   5.192   5.280  13.781  0.0641  0.0351 -0.0187
22383W        W38277   9.309   2.198   5.575 -0.3114  0.1377  0.1347
22384W        W38278   1.131   5.082  13.244  0.2161 -0.0964  0.1809
22385W        W38279   0.739  10.486  11.618 -0.0073 -0.0843  0.2794
22386W        W38280   7.416   8.769   4.304  0.0766  0.1345 -0.1119
22387W        W38281  11.248  14.966  15.691 -0.1769 -0.1120 -0.1090
22388W        W38282  15.931   4.654  13.624  0.0680  0.1792 -0.0224
22389W        W38283   2.727   0.402  12.028 -0.2736 -0.2279  0.1440
22390W        W38284  17.694  16.819  13.934  0.0651  0.3324 -0.0118
22391W        W38285   6.095   6.236  12.299 -0.0581  0.0285 -0.2151
22392W        W38286   7.539   3.982   5.140 -0.0486 -0.1224  0.2191
22393W        W38287   7.772  10.786  16.318  0.0907 -0.1295 -0.1429
22394W        W38288  10.709  15.084   2.115  0.0049  0.1658  0.0396
22395W        W38289   4.798  12.844   0.561 -0.1578 -0.0458  0.1208
22396W        W38290   5.902  13.382  12.292  0.2340 -0.0038  0.3342
22397W        W38291   1.492   1.941   5.626 -0.0482 -0.0330 -0.0564
22398W        W38292   6.015  15.869   5.158 -0.0681 -0.2346 -0.0366
22399W        W38293  11.412   1.260   4.907 -0.0481  0.3465 -0.0457
22400W        W38294   7.875   0.819  15.634  0.0781 -0.0424  0.0170
22401W        W38295  15.734   1.410  15.982  0.2377  0.1510 -0.4197
22402W        W38296   6.412  16.166   5.395 -0.0502 -0.0361 -0.0645
22403W        W38297   8.126   6.473  13.186 -0.0045  0.1116 -0.0462
22404W        W38298  16.746   9.121  14.509 -0.3442  0.0557  0.0312
22405W        W38299   0.497  11.284  13.921  0.0858 -0.1367 -0.0884
22406W        W38300  14.118  10.902  12.546  0.1367  0.1875  0.2978
22407W        W38301  15.078   3.001   1.353  0.3339 -0.1105  0.2063
22408W        W38302  16.176  15.576  13.153 -0.1363  0.0988  0.1019
22409W        W38303   9.938   5.667   5.804  0.2655  0.0904  0.1677
22410W        W38304   2.504   5.521   3.443 -0.1081 -0.2384  0.0697
22411W        W38305   5.336   2.602   0.826 -0.0518 -0.0811 -0.0509
22412W        W38306   4.781   6.899   3.036  0.0797 -0.1514 -0.2909
22413W        W38307   7.477  13.149  13.721  0.2470 -0.2569  0.1113
22414W        W38308   2.314   5.304  14.318  0.0489  0.1846 -0.1438
22415W        W38309  14.888   5.431  11.318 -0.2006 -0.0901 -0.0646
22416W        W38310  17.151  16.512   0.515  0.4295 -0.0503  0.1767
22417W        W38311  15.955  13.995   5.110 -0.0247  0.0017  0.3775
22418W        W38312  12.798  12.506   5.636 -0.0461 -0.2056 -0.0284
22419W        W38313   1.301  15.409  15.900  0.1631  0.0232 -0.1479
22420W        W38314   5.180   3.026  16.469  0.0041 -0.2279  0.2680
22421W        W38315  15.778   7.238   2.484  0.0423  0.0278  0.0512
22422W        W38316   0.460  17.496  13.698  0.2314 -0.1140 -0.1082
22423W        W38317   2.562  12.360  15.165 -0.0793  0.0020 -0.1970
22424W        W38318  17.336   7.411  13.715 -0.0125 -0.2413  0.2369
22425W        W38319   8.946  17.658   4.033 -0.2841  0.2631 -0.2206
22426W        W38320  15.791   1.139  15.083  0.1001  0.4226 -0.0874
22427W        W38321  10.562   2.588   3.944 -0.0944  0.0734 -0.0580
22428W        W38322   4.291  13.613   4.606  0.0874  0.0189  0.1631
22429W        W38323  15.840  12.286  12.719  0.0250 -0.1256  0.0516
22430W        W38324   9.771   9.472   3.008  0.1527 -0.0730  0.0591
22431W        W38325   6.380  10.913   4.919  0.0211 -0.1634  0.1635
22432W        W38326   5.378  15.713   2.120 -0.3267 -0.0338  0.2062
22433W        W38327  11.231   6.454  13.798  0.0983 -0.1097 -0.3197
22434W        W38328  10.758  12.857   1.793 -0.1704 -0.1212  0.2701
22435W        W38329   5.207   2.982   3.218  0.0304 -0.0295 -0.1055
22436W        W38330  16.034   1.703  12.079 -0.0713 -0.1777 -0.1755
22437W        W38331  10.261   6.068   1.261  0.0316  0.0769 -0.0863
22438W        W38332  17.474  12.271  16.120 -0.0774  0.0027  0.0382
22439W        W38333   5.693   8.122   5.965  0.1235  0.3720 -0.1106
22440W        W38334   6.499   1.061  11.958 -0.2549 -0.0421 -0.2910
22441W        W38335   3.869   7.774   0.780 -0.2938  0.0003  0.0961
22442W        W38336   3.278   9.570  14.598  0.0461 -0.0247 -0.2518
22443W        W38337  12.589   2.356   1.213  0.2780  0.1089 -0.3731
22444W        W38338   6.320  14.782  14.420  0.2222 -0.1735  0.2206
22445W        W38339  15.606  12.477  15.587  0.1206  0.2053 -0.0550
22446W        W38340   7.033   5.756   4.875  0.0072 -0.1111  0.1220
22447W        W38341   9.395   1.139  12.875  0.0205  0.1556 -0.0660
22448W        W38342   7.605   1.191   2.191 -0.1218 -0.1684  0.4947
22449W        W38343  15.150  16.212   2.022 -0.1518  0.1386  0.1045
22450W        W38344  12.531  14.955   2.868  0.2940  0.1126  0.2752
22451W        W38345  15.190  10.648   5.692 -0.2760 -0.0211  0.2647
22452W        W38346  13.959   5.002  12.335 -0.1801 -0.0454 -0.2932
22453W        W38347   7.482  11.324   1.409 -0.1626 -0.1441  0.0287
22454W        W38348   8.445  14.367   4.025  0.2445  0.3529 -0.2904
22455W        W38349   1.262  15.461   0.821 -0.0796  0.4194 -0.1507
22456W        W38350   5.980   2.851  16.562  0.0220 -0.1230 -0.1231
22457W        W38351   8.504  15.857   4.741  0.0214  0.2024 -0.1408
22458W        W38352  11.857  16.702   3.075  0.0479  0.0796 -0.0069
22459W        W38353  14.460   3.295   4.496 -0.1422  0.3718  0.0369
22460W        W38354   1.784   6.463  13.645  0.0367  0.1022  0.0923
22461W        W38355   6.963   6.781   5.188  0.1789  0.1920  0.0142
22462W        W38356   2.645   5.889   1.505  0.1324 -0.4389 -0.2076
22463W        W38357   1.398   9.799   4.832  0.1600 -0.2076  0.2235
22464W        W38358   3.959   0.917  15.139 -0.0922 -0.1373  0.1733
22465W        W38359  13.785   4.427  13.958 -0.0121  0.0445  0.0209
22466W        W38360  12.585   0.136  14.068 -0.1387  0.1114 -0.0049
22467W        W38361   3.147  11.088   0.233  0.1967  0.0964  0.0932
22468W        W38362   3.998   2.023  15.666 -0.0326  0.0444  0.0918
22469W        W38363  13.958  12.768   0.132 -0.1792  0.0158  0.0367
22470W        W38364   3.080   0.063   2.564  0.0057  0.3018  0.0136
22471W        W38365   8.192   4.763   2.541 -0.0200  0.0009  0.0372
22472W        W38366   7.239   7.044  16.374 -0.0827  0.1584  0.2427
22473W        W38367   4.981  12.858   4.327 -0.0616  0.2277 -0.1564
22474W        W38368  12.915   2.286   5.409 -0.0099  0.1008  0.0052
22475W        W38369   1.301   3.664  13.994  0.1799  0.1997 -0.0317
22476W        W38370   1.867  13.076   4.423  0.3336  0.1407 -0.2294
22477W        W38371   7.183  12.337  14.257  0.1166 -0.1971 -0.1190
22478W        W38372   5.886  15.419   4.271  0.1256 -0.1097  0.2249
22479W        W38373  15.707   0.640   3.071 -0.1682 -0.1557  0.3791
22480W        W38374   4.795  12.647   1.447 -0.1023  0.0601  0.1911
22481W        W38375   7.051  17.592  15.475  0.3732  0.1323 -0.0847
22482W        W38376   2.835  14.166  14.468  0.0353  0.0297  0.1990
22483W        W38377  14.736  14.747   5.214 -0.2776  0.0392 -0.1022
22484W        W38378  16.054  12.943  14.553 -0.3720  0.1572  0.0160
22485W        W38379   5.701   2.055   2.979  0.1010  0.0040 -0.3128
22486W        W38380   8.952  12.165  13.123  0.1999 -0.0494  0.0734
22487W        W38381  16.118   5.068   3.277 -0.0633 -0.0264 -0.1826
22488W        W38382  13.532   1.336   2.609 -0.2079 -0.0975 -0.3340
22489W        W38383  15.525  16.356  16.315 -0.0758  0.0173 -0.1815
22490W        W38384   8.295   7.484   0.598 -0.1090  0.1474  0.1833
22491W        W38385  16.377   8.488   2.751 -0.1310  0.0446 -0.2450
22492W        W38386   2.788   4.068   6.159  0.0960  0.0517 -0.3462
22493W        W38387  13.246   1.763  16.544 -0.1455  0.1655  0.0394
22494W        W38388  12.119  13.711  14.960  0.0913 -0.1445 -0.2672
22495W        W38389   1.798   7.973  11.693 -0.0365 -0.0679  0.0163
22496W        W38390   2.234  15.129   4.312 -0.1017 -0.2280  0.4684
22497W        W38391  14.285   2.955   4.117 -0.0725 -0.1238 -0.0410
22498W        W38392   9.533  12.580   0.180 -0.0054 -0.1004 -0.0009
22499W        W38393   6.518   6.328   1.177 -0.0343 -0.3042  0.2699
22500W        W38394  12.966   6.191   3.635  0.4534 -0.1254 -0.1022
22501W        W38395   6.664  12.493  15.018  0.0079 -0.1034  0.0355
22502W        W38396  14.154   0.828  12.477  0.2585  0.0951 -0.0336
22503W        W38397   4.863   6.583   2.572  0.4493  0.0977 -0.1922
22504W        W38398   3.245   1.147   0.510  0.2482 -0.0863  0.2001
22505W        W38399   3.172   3.153  13.952  0.0862  0.1797  0.1893
22506W        W38400   4.003  13.106   0.605  0.0208  0.0614  0.0398
22507W        W38401  10.188  17.430   0.526 -0.0747  0.0793 -0.0628
22508W        W38402  16.769   5.204   4.814  0.1380 -0.0656 -0.0094
22509W        W38403   6.068   0.208  13.240  0.2929  0.0540  0.0876
22510W        W38404   6.624  12.829   6.603 -0.0361  0.0931  0.2905
22511W        W38405  10.977   0.283  13.335 -0.1086 -0.0056 -0.4903
22512W        W38406   9.020   2.112   0.895 -0.0163  0.2571  0.2176
22513W        W38407   9.329   3.046   0.990  0.0368 -0.0006  0.0704
22514W        W38408  15.796   2.440  12.171 -0.3757  0.0871  0.0690
22515W        W38409  11.711   6.515  13.883 -0.0778 -0.0857  0.2856
22516W        W38410   7.636   0.617   3.646  0.1988 -0.2649 -0.1311
22517W        W38411   6.245   7.192   5.954  0.1599 -0.2048 -0.2107
22518W        W38412   5.615   9.012  16.176 -0.1120  0.0727  0.2211
22519W        W38413   7.131  11.792   5.752  0.4587 -0.0484 -0.0276
22520W        W38414  15.217  12.807  13.109  0.0097  0.0606 -0.1005
22521W        W38415   4.066   1.146   4.863 -0.1922  0.0201  0.0817
22522W        W38416  14.317  13.127  14.230  0.0012 -0.1230  0.2865
22523W        W38417   4.181   6.810   3.115 -0.1154 -0.2640 -0.0424
22524W        W38418   8.123   2.050  15.915  0.0642  0.2389 -0.2204
22525W        W38419  13.975  15.728   0.086  0.0083 -0.0380  0.0840
22526W        W38420  16.929   8.526   1.188  0.0106 -0.1492 -0.0771
22527W        W38421  16.660  10.587   4.261  0.0174 -0.0258  0.1755
22528W        W38422   2.557   6.266  15.581  0.0287 -0.1140  0.0453
22529W        W38423   0.540  16.652  11.310 -0.1481 -0.0332 -0.4094
22530W        W38424   0.193   1.334  11.886 -0.0246  0.0789  0.0896
22531W        W38425  15.605   5.444  15.888  0.0723 -0.0594  0.0835
22532W        W38426  15.199  11.789  15.197 -0.2645 -0.0858  0.0730
22533W        W38427  16.687   9.863   4.336 -0.1212  0.2304 -0.0113
22534W        W38428   0.777   8.071  13.923  0.0536 -0.2708 -0.0353
22535W        W38429   1.461  17.656   3.492  0.2592 -0.1117  0.0609
22536W        W38430  13.945  10.916   4.448 -0.0267 -0.1948  0.0870
22537W        W38431  13.096  12.853   4.280 -0.1758 -0.1303 -0.1172
22538W        W38432   0.762   1.813   1.563 -0.1157 -0.1284  0.3977
22539W        W38433  11.828   6.136  11.859  0.1686  0.3379 -0.0962
22540W        W38434  16.730  17.383  15.013  0.0679 -0.0296 -0.0647
22541W        W38435   2.196  17.455  15.887  0.1784 -0.2267  0.1959
22542W        W38436  13.921  11.721  13.652  0.0811  0.0557 -0.0595
22543W        W38437  12.911   6.773   2.864  0.2781  0.0201 -0.0627
22544W        W38438   4.299  12.153  15.576  0.1589  0.0049  0.1030
22545W        W38439   3.908   8.390  11.563  0.0861 -0.2242 -0.1014
22546W        W38440   4.574  11.899   1.112  0.3034  0.3238  0.1664
22547W        W38441   2.688   7.377   0.490  0.1422  0.0886 -0.0846
22548W        W38442  15.482   3.229   1.387 -0.0721 -0.0775 -0.1272
22549W        W38443   7.589  11.957   1.412 -0.0443  0.3994 -0.0264
22550W        W38444   8.779  14.179  15.812 -0.0861 -0.0490 -0.1753
22551W        W38445   8.974  14.871  13.889  0.0913  0.1865 -0.0888
22552W        W38446  11.719   9.008  15.980  0.0899 -0.0211  0.1283
22553W        W38447   4.317  15.868  14.972 -0.4526  0.2991  0.1070
22554W        W38448   5.797   4.056   2.569  0.2602 -0.0358 -0.1397
22555W        W38449   2.124  13.710   1.590  0.0164  0.1343  0.0198
22556W        W38450   6.204  14.530   0.274 -0.0793 -0.3394  0.1906
22557W        W38451  17.194   4.282   3.011 -0.0851  0.0916  0.0414
22558W        W38452   6.129  12.046   1.485 -0.1171 -0.1995 -0.2639
22559W        W38453  15.716   1.200   3.074 -0.2601 -0.0469 -0.1714
22560W        W38454  15.191  11.394   1.324  0.0581 -0.1346  0.0380
22561W        W38455   4.468   6.467   0.514 -0.3724  0.0916  0.0976
22562W        W38456   3.687  14.400  16.170 -0.0533  0.1058 -0.2947
22563W        W38457   6.103  17.530  11.692 -0.1767  0.0839 -0.0732
22564W        W38458   2.348  14.466   5.547 -0.1645  0.0797 -0.2133
22565W        W38459   8.634  15.039  15.380 -0.0109 -0.2838 -0.0757
22566W        W38460  15.569  15.549   4.323 -0.2064 -0.0041 -0.3047
22567W        W38461   6.140  11.600  12.855  0.0466  0.1538  0.1317
22568W        W38462   1.890   0.702  13.580 -0.2032 -0.3282 -0.1943
22569W        W38463   1.858   6.294   0.543  0.1380  0.2246  0.0413
22570W        W38464  16.067   4.047   2.366 -0.1640 -0.0183  0.0538
22571W        W38465  11.082   4.996   2.671 -0.0325  0.0879 -0.0470
22572W        W38466   8.672  15.953  12.096 -0.0010 -0.1183 -0.0787
22573W        W38467   0.050  14.139   4.197  0.0655  0.1029 -0.0619
22574W        W38468   8.907   6.103   3.831  0.0391  0.1323 -0.3537
22575W        W38469   2.574  15.699  13.323  0.0726 -0.2959 -0.0464
22576W        W38470  13.213   0.508  16.107 -0.3493  0.0913 -0.1176
22577W        W38471   5.040   7.674   0.234 -0.1000 -0.0319  0.0942
22578W        W38472   7.126   5.475  16.305  0.2536  0.0506  0.1074
22579W        W38473   4.482   4.617  14.610 -0.1337  0.1485  0.2575
22580W        W38474  14.891   0.103   4.838  0.0470 -0.0304  0.3586
22581W        W38475   5.036   5.248   3.016  0.0705 -0.0130  0.0620
22582W        W38476   2.713  10.598  13.279  0.0988  0.1652  0.3483
22583W        W38477   0.981  13.812   4.405 -0.1964  0.1238 -0.3539
22584W        W38478  17.268   2.384  15.373  0.1407 -0.0515  0.2176
22585W        W38479   5.477  14.011  11.921  0.1939  0.0062  0.1034
22586W        W38480   9.473   1.020   5.014 -0.1042  0.1327 -0.3010
22587W        W38481  14.402  15.210  11.954 -0.2081  0.2785  0.0431
22588W        W38482  12.462  17.593  16.819  0.1395 -0.0813  0.1060
22589W        W38483  11.728   7.068   2.135  0.2427 -0.0475  0.0653
22590W        W38484  16.961   3.435   4.086  0.0197 -0.2314 -0.0049
22591W        W38485  14.566   9.786  16.674 -0.0608  0.0347 -0.2568
22592W        W38486   7.116  13.405   5.674  0.1035  0.0150  0.2020
22593W        W38487   6.481   6.086  12.676 -0.2265 -0.1548  0.3368
22594W        W38488   3.310   2.406   3.648 -0.3809  0.4624 -0.0068
22595W        W38489  16.225   8.394  14.788  0.0725 -0.0154  0.0387
22596W        W38490  15.286  14.896  15.807 -0.0280  0.0208  0.0728
22597W        W38491  12.874   0.001   1.711 -0.2350 -0.1716  0.2068
22598W        W38492  16.448  11.392   2.818  0.0205  0.1043  0.0818
22599W        W38493  12.646   9.947   6.630  0.1865 -0.0671  0.0663
22600W        W38494  14.901  11.550   2.116 -0.0122  0.1857  0.3028
22601W        W38495   0.331  16.034  16.752  0.1031  0.0205  0.0481
22602W        W38496   1.218   6.103  11.373 -0.3492  0.2306 -0.2879
22603W        W38497  10.035   2.040   4.433  0.0373  0.2054  0.1196
22604W        W38498  10.758   8.745   2.011 -0.1185 -0.0112 -0.3831
22605W        W38499   0.376   2.546   4.593 -0.0805  0.1477 -0.1425
22606W        W38500   2.171   0.552   0.303  0.0118  0.1329  0.0306
22607W        W38501  16.550   4.639  11.635 -0.2615  0.1560 -0.0072
22608W        W38502   7.368  12.066   5.407  0.1491  0.0346  0.1377
22609W        W38503  17.497  13.806   5.395 -0.2015  0.1734 -0.0682
22610W        W38504   3.359   4.573  11.659  0.1229  0.2681  0.2371
22611W        W38505  13.969  16.903  13.395  0.1517 -0.0936 -0.0858
22612W        W38506   5.708   5.902  10.992 -0.1200  0.4886 -0.2122
22613W        W38507   5.458   9.404   0.272  0.2448 -0.0947  0.2304
22614W        W38508   4.759   6.035   3.032 -0.3661  0.0871 -0.0031
22615W        W38509   4.431  11.699  15.820 -0.1484 -0.2484  0.0056
22616W        W38510   8.553  12.090  13.424  0.0612  0.1707  0.0067
22617W        W38511  12.170  17.730   2.372  0.0122 -0.0209  0.0457
22618W        W38512  16.669  14.412   2.782 -0.1316 -0.0247  0.2544
22619W        W38513  11.912  17.697   2.814  0.1883 -0.0126 -0.2915
22620W        W38514   5.225  17.781   3.720  0.3927 -0.0376  0.0997
22621W        W38515  10.591   4.777   3.006 -0.0816 -0.2199 -0.2201
22622W        W38516   3.229  10.907   5.681  0.2859 -0.0287 -0.0754
22623W        W38517   2.699   4.250  16.353 -0.0183  0.2920  0.1021
22624W        W38518   6.120   0.163   5.111 -0.0446 -0.2275  0.1285
22625W        W38519  14.068  15.045  13.219 -0.1492 -0.1753 -0.0357
22626W        W38520  13.910   6.493   4.594  0.0639 -0.0941 -0.3204
22627W        W38521  10.130   8.238  16.701 -0.0833 -0.1622  0.3715
22628W        W38522   0.814   0.333   4.973  0.1672  0.4006 -0.0235
22629W        W38523   5.134  12.752   6.528 -0.1051 -0.0319 -0.1600
22630W        W38524   2.132  10.765  12.577  0.0088  0.0571  0.1038
22631W        W38525  15.652   9.398  15.073 -0.0245  0.0963 -0.2519
22632W        W38526   1.070  14.460   5.203  0.0013  0.0346  0.0214
22633W        W38527  17.028  10.817   3.937 -0.0586  0.1688  0.0846
22634W        W38528   1.055  11.324   4.029  0.1109  0.4210 -0.3515
22635W        W38529   5.453   7.048  14.484  0.2144  0.2941 -0.2137
22636W        W38530   1.798   0.670   5.022  0.1116 -0.1662 -0.1661
22637W        W38531  11.419  14.797   5.850 -0.0272 -0.0269  0.0517
22638W        W38532  17.193   9.646  15.924  0.1803  0.0397 -0.0435
22639W        W38533   0.175  14.165  15.783  0.1155 -0.0629  0.1533
22640W        W38534  13.186   7.642   4.272  0.2831  0.2092  0.0358
22641W        W38535   3.160  14.188  16.407  0.0162  0.0430 -0.0481
22642W        W38536   0.243  14.315   5.650  0.0990  0.2431  0.1295
22643W        W38537   7.667   0.809   3.136  0.1584 -0.1147 -0.0266
22644W        W38538   2.073  15.927   5.843  0.2880  0.1334 -0.2862
22645W        W38539   8.254   9.566   2.359 -0.0786 -0.0584 -0.0070
22646W        W38540   4.533  14.966  12.390  0.0694  0.2151 -0.0372
22647W        W38541   3.981   8.749  12.320 -0.3483 -0.0195 -0.2122
22648W        W38542  16.771   9.428  11.455 -0.0081 -0.1668 -0.1262
22649W        W38543  12.039  15.792   1.471  0.0242 -0.2781 -0.1567
22650W        W38544   5.059  15.003   2.446 -0.1450  0.0253  0.1730
22651W        W38545  14.789   3.792   2.330 -0.1958 -0.2040  0.0201
22652W        W38546  14.785  11.498  15.142 -0.3347 -0.3094 -0.0118
22653W        W38547  16.102  17.213  14.536 -0.0707 -0.4780  0.2165
22654W        W38548  15.830  10.161   4.039  0.2419 -0.2711  0.0211
22655W        W38549   2.133  16.053   1.724 -0.3159 -0.0965 -0.0315
22656W        W38550   0.178  11.157   1.326 -0.0611  0.3886  0.1975
22657W        W38551  15.956  13.840  15.620  0.2154  0.3445  0.1435
22658W        W38552  13.158   9.007  11.684 -0.1796  0.1174  0.0451
22659W        W38553   9.731   6.477  16.077  0.0071 -0.2159  0.1347
22660W        W38554   0.758   4.676   3.761 -0.2771  0.1739 -0.2019
22661W        W38555   0.332   0.714  15.642 -0.0252  0.0583 -0.0527
22662W        W38556   4.215  10.554   1.276 -0.1156 -0.0230  0.4624
22663W        W38557   3.697  12.239  13.960  0.0410  0.0222 -0.0291
22664W        W38558   6.378   7.863   5.383  0.2055  0.2358 -0.1109
22665W        W38559  13.896   8.325  13.797  0.1239 -0.0477 -0.0677
22666W        W38560  16.944   8.625   3.533 -0.0635  0.1763 -0.2604
22667W        W38561   1.125  10.710  16.371  0.1886 -0.0450 -0.0440
22668W        W38562  15.751   0.985  16.340  0.1482  0.2058 -0.0329
22669W        W38563   7.153   9.927   2.494  0.1243  0.0094  0.2420
22670W        W38564  15.968  13.501  14.473 -0.0284  0.0341  0.1023
22671W        W38565  11.101  16.250  16.341  0.0286 -0.2835  0.0655
22672W        W38566   4.107  11.023  13.451  0.2454 -0.1232 -0.0143
22673W        W38567   0.174   5.700  12.906 -0.3091 -0.1843  0.0549
22674W        W38568  17.737   7.556   0.474  0.1643  0.2029 -0.0540
22675W        W38569   2.262  15.171  13.394 -0.0051  0.0033  0.1294
22676W        W38570   9.380   2.937  15.183  0.0845  0.3033  0.0424
22677W        W38571   9.968  10.327   3.773 -0.0010 -0.2733 -0.2762
22678W        W38572   0.011  16.705  14.724  0.4497  0.0102  0.0622
22679W        W38573   6.604  11.074  11.962  0.1377  0.0197  0.1271
22680W        W38574   5.134  16.414  12.536 -0.0556  0.1780  0.0981
22681W        W38575   2.787  11.512   6.249  0.0212 -0.2227 -0.0123
22682W        W38576   4.488  17.338   3.468  0.1009 -0.2355 -0.0609
22683W        W38577  16.853   6.195   1.756 -0.1203 -0.2735 -0.1111
22684W        W38578   5.256   4.469   5.808 -0.0225  0.0026  0.3135
22685W        W38579  12.761  12.202  15.805 -0.0495 -0.1557 -0.1169
22686W        W38580  13.024  16.124   5.253  0.1557  0.2010 -0.0157
22687W        W38581  16.793  13.316   5.975 -0.2282 -0.0000  0.1277
22688W        W38582   4.469   3.904  13.817 -0.0246  0.1049 -0.3679
22689W        W38583  10.424  10.544   2.362  0.0303 -0.3691  0.0830
22690W        W38584  10.607   6.446  16.333  0.0585  0.2530  0.2183
22691W        W38585   5.647   5.727   3.558 -0.0689  0.2955  0.2215
22692W        W38586  16.638   7.585   3.328  0.1598 -0.0950 -0.2328
22693W        W38587   0.475   0.303  15.314  0.0435  0.0649  0.0459
22694W        W38588  16.500   0.928   2.673 -0.0169 -0.2591 -0.2256
22695W        W38589  12.414  17.450   0.709 -0.3293  0.0710 -0.0177
22696W        W38590   5.704   6.227   4.366  0.3861 -0.1321  0.1061
22697W        W38591   9.563  14.438  12.392  0.2721  0.0969 -0.1314
22698W        W38592  13.254  11.233   1.488 -0.3000 -0.0514 -0.2957
22699W        W38593  14.607   2.618  11.802 -0.1830  0.1071 -0.0851
22700W        W38594   2.046   1.298   3.291 -0.0645 -0.3170 -0.0203
22701W        W38595  16.313  14.977  12.734 -0.3809  0.1445 -0.1614
22702W        W38596   6.399  15.405   3.061  0.1502 -0.0712 -0.0032
22703W        W38597  13.988   7.901   4.080 -0.1875 -0.1179  0.1434
22704W        W38598  12.098   2.574  13.088  0.2554 -0.0394 -0.0648
22705W        W38599   3.307   0.285   0.735  0.1620 -0.0037  0.1046
22706W        W38600  10.455  16.616  12.476  0.0729  0.2539  0.0511
22707W        W38601   3.469   5.461  14.063 -0.0470 -0.0009  0.1325
22708W        W38602   1.901   5.549  14.395 -0.1616 -0.1170  0.2261
22709W        W38603  11.507  10.595   1.195  0.1299 -0.0081 -0.2447
22710W        W38604   2.570  15.795  16.606 -0.0675  0.0244  0.0912
22711W        W38605   8.742  17.168   5.248 -0.1346 -0.1296 -0.0444
22712W        W38606  11.125  11.324  16.282  0.2354  0.2126 -0.1652
22713W        W38607   0.906   9.343  14.352 -0.4261 -0.0087 -0.1492
22714W        W38608   8.077  14.583  12.649 -0.1450  0.0783 -0.3329
22715W        W38609   2.779   7.480   4.210 -0.1299  0.0446  0.1340
22716W        W38610  17.485   9.969   2.634 -0.1453  0.0867  0.1438
22717W        W38611  13.364   5.943   3.900 -0.2769  0.1155 -0.1981
22718W        W38612  13.555   3.474   2.667 -0.2755 -0.1851 -0.0883
22719W        W38613   1.847  17.702  14.137 -0.3531  0.0778 -0.2497
22720W        W38614   2.638  11.537   4.735  0.1158  0.0818  0.2850
22721W        W38615  16.043  11.999   5.735 -0.1384  0.0953  0.0578
22722W        W38616   7.203   4.415   4.228  0.2608  0.1277 -0.0444
22723W        W38617   7.719  15.404   5.003  0.2368 -0.0075  0.0716
22724W        W38618   9.395   6.370   2.392  0.1364 -0.0990  0.2938
22725W        W38619  17.247  15.650  13.867 -0.1094 -0.2988  0.0332
22726W        W38620   0.046   1.741   4.017  0.0803  0.0209  0.1288
22727W        W38621   2.035   6.754   5.172  0.0037  0.1658 -0.1765
22728W        W38622   9.618  15.514   1.605  0.2468 -0.0771  0.1618
22729W        W38623  13.113   2.953  16.327  0.3078  0.0927  0.4024
22730W        W38624   0.927  14.238  16.435  0.1771  0.4545  0.1115
22731W        W38625  11.528   9.841   1.632  0.0185  0.1525  0.0119
22732W        W38626   1.519  16.499  11.726 -0.0239  0.0799  0.0269
22733W        W38627   7.714   6.315   3.185  0.2033  0.1305  0.3404
22734W        W38628  13.225   7.642   0.774  0.2865  0.0876 -0.1202
22735W        W38629   6.251  17.172   0.828 -0.1542  0.1129  0.1747
22736W        W38630  15.133  17.031  14.047 -0.1815  0.0481 -0.0451
22737W        W38631  12.514   9.749  15.250 -0.0090  0.3564  0.1518
22738W        W38632   5.494   2.964  13.439  0.0596  0.0963 -0.0132
22739W        W38633  11.474  16.003   1.485 -0.0861  0.0063  0.0724
22740W        W38634  14.582   7.541   4.798  0.0076  0.2727  0.0067
22741W        W38635  14.698   8.425  14.433 -0.0538 -0.0190 -0.0688
22742W        W38636  12.973  14.407   3.629  0.0231 -0.0667 -0.1108
22743W        W38637   8.568  10.041   2.413 -0.1342  0.0375 -0.1003
22744W        W38638   4.358  17.693   0.137 -0.0271  0.1200  0.1104
22745W        W38639   6.822   2.053   0.585 -0.0669 -0.2613 -0.2021
22746W        W38640   7.697   1.643   4.348 -0.0418 -0.2629  0.1289
22747W        W38641  11.258   1.862  16.892  0.0738 -0.0902  0.1022
22748W        W38642  16.943  11.297  13.989  0.2758  0.2407  0.3101
22749W        W38643  16.761  13.654   0.586 -0.0650 -0.1661  0.0919
22750W        W38644  15.055  10.572  12.270  0.0716 -0.0273 -0.1315
22751W        W38645   9.251  15.315  12.430 -0.1336 -0.2209  0.0788
22752W        W38646   9.232  10.936   2.300 -0.0466 -0.0784 -0.1457
22753W        W38647  17.436  15.214   0.114  0.1473 -0.1494 -0.0242
22754W        W38648   8.345   9.314   5.395  0.3603  0.1128 -0.0231
22755W        W38649  17.785  12.041   3.256  0.1925  0.1612  0.2249
22756W        W38650  10.259   7.797  14.612 -0.0360  0.0212  0.0111
22757W        W38651  14.270   4.677  15.601  0.1590 -0.1227 -0.0973
22758W        W38652   7.863   0.695  12.971 -0.0070  0.1522 -0.0955
22759W        W38653   1.300   6.966   2.564  0.4229  0.0889  0.3865
22760W        W38654   8.598  15.021   3.246  0.0793 -0.0114  0.3058
22761W        W38655  10.398  16.474  12.997 -0.1423 -0.3484  0.2397
22762W        W38656   4.867   9.550  12.476  0.3427  0.1013  0.3791
22763W        W38657   4.123   3.856   2.891  0.1114  0.0568  0.1014
22764W        W38658   9.040   6.139  13.559 -0.0211 -0.2169 -0.0713
22765W        W38659   1.315   9.422   3.371  0.3529 -0.3455 -0.2236
22766W        W38660  15.063  10.093   3.276 -0.0708  0.1679 -0.3180
22767W        W38661  10.777   0.672   5.169 -0.1800 -0.0363  0.0878
22768W        W38662   4.729  16.586   0.933 -0.1006 -0.0981  0.0527
22769W        W38663   3.757   4.190   1.843 -0.0348 -0.1060  0.0154
22770W        W38664  12.725  16.643   5.212  0.0317  0.1673 -0.1620
22771W        W38665   8.519   3.497   2.011 -0.2306  0.2033  0.1678
22772W        W38666  10.085   9.596  14.260 -0.0566  0.1344  0.2750
22773W        W38667  12.341   8.131  15.952 -0.3520 -0.2322  0.1626
22774W        W38668   8.621  14.330  15.270  0.1791  0.1047  0.0657
22775W        W38669  13.039  11.404  14.650 -0.2487 -0.2201  0.0682
22776W        W38670   5.691   6.655   2.808  0.3496  0.0583 -0.2069
22777W        W38671  14.642   0.943   0.223 -0.0227 -0.1091 -0.0545
22778W        W38672  16.603  10.439   3.784  0.0886  0.0348  0.1805
22779W        W38673  16.365   6.177  14.507  0.0851  0.1619  0.0113
22780W        W38674  17.103   8.248  13.787  0.1041  0.0258 -0.2100
22781W        W38675   7.001  16.688  13.518 -0.3751 -0.2180  0.1709
22782W        W38676   8.377   6.270  13.936  0.0507  0.1916 -0.0737
22783W        W38677   8.013  16.281   1.871  0.1248  0.0403 -0.2193
22784W        W38678   1.894   4.280  15.108  0.1316 -0.0142 -0.0792
22785W        W38679  12.596  17.078   5.595 -0.1549  0.0618  0.0557
22786W        W38680   3.136  12.582   5.486  0.0480  0.0815 -0.0400
22787W        W38681  15.536   9.325   3.867 -0.2811  0.1445 -0.1922
22788W        W38682   4.796  13.430  11.928  0.0269 -0.0516 -0.0407
22789W        W38683   5.417   2.912   0.445 -0.0665  0.0764 -0.1052
22790W        W38684  10.395  12.475  12.530  0.1281 -0.2468 -0.1075
22791W        W38685  11.423   3.903  14.571 -0.1088 -0.0648  0.0230
22792W        W38686   9.402   8.083   2.275 -0.0042 -0.0500 -0.2129
22793W        W38687   5.722   3.584  14.142 -0.5248 -0.1086  0.3249
22794W        W38688  14.281   2.281  13.428 -0.0636 -0.3279  0.0294
22795W        W38689   8.174   0.102  12.714 -0.1923 -0.2023  0.0744
22796W        W38690   2.441  17.011  12.197 -0.0388  0.0599 -0.4949
22797W        W38691  16.473   6.679  12.262  0.0971  0.1860  0.0066
22798W        W38692   6.903   5.204  11.861  0.2242 -0.0225 -0.1605
22799W        W38693   6.736  16.569   3.575  0.0221  0.5221 -0.2555
22800W        W38694  13.601   8.233   1.887  0.0514 -0.0742  0.3585
22801W        W38695   0.717   5.504  12.068 -0.0429 -0.1605 -0.0534
22802W        W38696  14.918  14.492  14.973 -0.1374  0.0122 -0.2895
22803W        W38697   2.861  12.054   0.385  0.1788 -0.0879  0.2557
22804W        W38698  10.438  12.755  14.751  0.0238 -0.0856 -0.0213
22805W        W38699   3.388  11.134  16.737 -0.1175  0.1617 -0.0344
22806W        W38700   2.286   8.004  13.028  0.1550 -0.0269  0.1443
22807W        W38701   6.762  12.458   1.127 -0.0564  0.0995 -0.1192
22808W        W38702  14.378   4.684  11.751 -0.0462  0.1601  0.1536
22809W        W38703   1.469   6.048   0.279 -0.0222 -0.2417  0.3261
22810W        W38704   3.566   5.955  14.381  0.1316  0.0418  0.2574
22811W        W38705   2.642  13.731  16.014  0.0476  0.1715 -0.0247
22812W        W38706   0.202  14.754   5.469 -0.0288 -0.1993 -0.0347
22813W        W38707   1.556   1.324   0.566  0.0445  0.0225 -0.2394
22814W        W38708   2.669   1.526   2.098  0.0977 -0.1032 -0.2167
22815W        W38709  15.809   6.181   2.634  0.0898 -0.1354 -0.1172
22816W        W38710  11.986   7.042   4.132 -0.1321 -0.0924 -0.1531
22817W        W38711  16.744   7.623   0.553  0.2306 -0.0006  0.1195
22818W        W38712   5.429  11.361  16.813  0.1519  0.2782  0.2385
22819W        W38713   5.216  17.784  16.460  0.0647  0.0165  0.0383
22820W        W38714   8.529  12.951   2.231 -0.0672 -0.0931 -0.1151
22821W        W38715   1.455  11.867   3.811  0.0556 -0.1195  0.0489
22822W        W38716  14.868   2.985  16.879 -0.4018  0.0030 -0.3176
22823W        W38717   7.315   1.111   4.853 -0.0524  0.0833  0.2664
22824W        W38718  10.220   7.997  12.389  0.1762  0.0737  0.1669
22825W        W38719   4.188   0.679   3.571  0.2339 -0.3513  0.0673
22826W        W38720  17.022  11.634   1.544 -0.0315  0.0223 -0.3161
22827W        W38721   4.486  10.072   2.065 -0.1354 -0.0250  0.0492
22828W        W38722   7.888   6.389  16.590 -0.1813  0.0260 -0.1579
22829W        W38723   2.257   5.647  15.594  0.4512 -0.1211  0.0541
22830W        W38724  12.771   5.390  15.668 -0.0178  0.1579  0.0087
22831W        W38725   4.716   0.571  13.802  0.3013 -0.0564 -0.0930
22832W        W38726  14.131   6.813   3.228  0.1494 -0.0827  0.2298
22833W        W38727   5.535   3.732   0.208 -0.2090 -0.1130 -0.2338
22834W        W38728   1.147  13.015  14.722 -0.2768 -0.1332 -0.1790
22835W        W38729   5.296   3.796  12.487  0.0307  0.1590 -0.0951
22836W        W38730   1.620  12.435   5.366  0.1209  0.1691 -0.1504
22837W        W38731  17.289  16.750  14.274  0.1097  0.0569 -0.0460
22838W        W38732   3.602  14.817   0.957  0.1034  0.1943  0.2258
22839W        W38733   1.540   1.910  11.608  0.0221  0.0818 -0.0269
22840W        W38734  12.686   8.439  13.337 -0.0629 -0.0221  0.3531
22841W        W38735  15.419  13.767   2.584  0.0555  0.1277  0.0301
22842W        W38736  16.292   2.716  12.034  0.0057 -0.0648  0.1092
22843W        W38737   0.043  14.158   0.477 -0.0959  0.1654 -0.0874
22844W        W38738   0.881   6.586   5.195  0.2700  0.0955  0.0070
22845W        W38739   8.804  11.281  15.301  0.1479 -0.1034  0.1561
22846W        W38740  16.052  16.171   6.172 -0.0745 -0.2409 -0.3988
22847W        W38741   2.868   0.867   3.683 -0.1183  0.0093  0.1935
22848W        W38742   5.493   1.351   3.617  0.1765 -0.2275  0.1840
22849W        W38743   9.978   9.506   2.468 -0.1824  0.2001  0.0377
22850W        W38744  10.529  13.041   4.567 -0.0923  0.1494  0.0734
22851W        W38745  15.815   9.582  16.282  0.1138  0.0954  0.0834
22852W        W38746   9.678  11.138  14.631  0.2645 -0.0755  0.0056
22853W        W38747   6.197   9.827   0.427 -0.1674 -0.0297 -0.0213
22854W        W38748   1.231  15.198   2.219  0.0024 -0.0421  0.0342
22855W        W38749  14.460  14.029  13.963  0.1354 -0.0003  0.0078
22856W        W38750   2.779   8.411   0.740 -0.1702 -0.0592 -0.0030
22857W        W38751   0.503   6.581   0.604  0.0773 -0.0609 -0.0262
22858W        W38752  10.895  16.378   0.434 -0.0684 -0.2910  0.2443
22859W        W38753   9.263  13.504   5.925  0.1957 -0.0334  0.0941
22860W        W38754   2.561  16.249   3.785 -0.3035  0.0043  0.0142
22861W        W38755  14.983   8.979  16.066 -0.0154 -0.2261  0.0722
22862W        W38756   7.085   0.984   1.371 -0.0532  0.4260 -0.2057
22863W        W38757  11.656  14.641  13.311  0.0770  0.0008  0.1303
22864W        W38758   4.229   1.214  13.717 -0.0905 -0.3611 -0.1199
22865W        W38759   7.608   5.000  14.687 -0.3019  0.1125  0.1079
22866W        W38760  17.178   3.993  12.050 -0.1346  0.0667 -0.1627
22867W        W38761   2.346  14.476   2.363 -0.2276  0.1505 -0.1155
22868W        W38762  12.543   4.440   1.672  0.0256 -0.2436 -0.1654
22869W        W38763   5.955   4.242   1.262  0.0785  0.1140  0.0351
22870W        W38764   1.433   6.934  16.922 -0.0425  0.0665  0.5307
22871W        W38765   7.945  11.918  16.050  0.0451 -0.1645 -0.0987
22872W        W38766  12.475  17.506   4.041 -0.1480  0.1272 -0.1306
22873W        W38767  12.493   2.284  13.413 -0.0229  0.3334 -0.1874
22874W        W38768  17.113   0.295   0.204  0.0436  0.1341  0.0733
22875W        W38769  14.009   8.838  12.057  0.1106  0.1901  0.0708
22876W        W38770  15.179   0.688  13.804  0.0677  0.1006 -0.2355
22877W        W38771   8.354   0.611  13.777 -0.1329 -0.3199 -0.1051
22878W        W38772  15.870   9.600  12.920 -0.1804 -0.1700 -0.3919
22879W        W38773   4.136  13.900   2.756  0.0492  0.1940 -0.2949
22880W        W38774  13.931   0.880  15.830 -0.1092 -0.0903  0.0354
22881W        W38775  11.749   5.606   1.041  0.1717 -0.1641  0.0136
22882W        W38776  16.340  12.121  15.946 -0.0830 -0.2875 -0.3389
22883W        W38777  17.130   7.459  16.577  0.0594  0.1484  0.0261
22884W        W38778  12.313   0.865   2.732 -0.1472  0.0537 -0.1454
22885W        W38779   6.023   8.720  13.705 -0.4315  0.0604 -0.4572
22886W        W38780  13.784   1.564  10.940 -0.2795  0.2075  0.0302
22887W        W38781  14.779   3.421   1.313 -0.2031  0.1237  0.0552
22888W        W38782   3.919   5.519  12.004 -0.0575  0.1420 -0.1615
22889W        W38783   0.021  14.789   3.447 -0.2129 -0.1071  0.0287
22890W        W38784  10.242   5.015  15.417 -0.1755 -0.0970 -0.2049
22891W        W38785   7.665   4.655   5.654  0.2947 -0.3230  0.0707
22892W        W38786  14.216   0.238  15.114  0.3349  0.0535 -0.1955
22893W        W38787   8.823   2.557  13.744 -0.0857 -0.1095 -0.0566
22894W        W38788  12.504   6.621   4.292  0.0241  0.1448  0.0797
22895W        W38789   5.813  17.629  14.170  0.0260 -0.0108 -0.0320
22896W        W38790   0.597   3.925  12.921  0.0297 -0.3023  0.2741
22897W        W38791   0.263  15.477   2.063 -0.2818  0.3672  0.2768
22898W        W38792   3.134   6.565   0.457 -0.3359 -0.0939  0.1719
22899W        W38793   4.687  10.511   1.386  0.1009 -0.2557 -0.1439
22900W        W38794   3.459  17.841   1.735 -0.1693 -0.1761 -0.3242
22901W        W38795   3.618  14.463   0.180 -0.0776 -0.0478 -0.2260
22902W        W38796  16.632   4.844  14.441  0.1220 -0.1600  0.0849
22903W        W38797   8.998   3.133  12.843  0.2444 -0.0709 -0.4102
22904W        W38798   3.339   7.366   4.539  0.0289 -0.3592 -0.2602
22905W        W38799   0.170   0.913  13.711  0.3004 -0.2342  0.1744
22906W        W38800   8.308  15.934  13.338  0.2304  0.1046 -0.2310
22907W        W38801  14.161  13.564   3.749  0.0442  0.1115  0.0042
22908W        W38802   5.558   1.534   5.170 -0.2582  0.1042  0.0002
22909W        W38803  12.061  12.147  13.128  0.0617 -0.0221  0.3525
22910W        W38804   0.463   2.015   5.459  0.1527  0.0431  0.0971
22911W        W38805   0.108   8.953   6.077  0.4739  0.1117 -0.2952
22912W        W38806   4.932   4.856  14.610 -0.0580 -0.1050  0.2085
22913W        W38807   0.429   0.792  14.667 -0.0960 -0.0851 -0.0345
22914W        W38808   9.849  10.729   2.915  0.0896  0.2459  0.1683
22915W        W38809  17.012  15.190  14.405 -0.0173 -0.0884 -0.0950
22916W        W38810   6.518   8.861  12.868  0.4174  0.2559 -0.0899
22917W        W38811   0.538  11.712  12.310 -0.1428  0.1081  0.3608
22918W        W38812   2.140   2.589   4.540  0.2372  0.1765 -0.1049
22919W        W38813   5.890  11.442   0.023 -0.0978  0.0126 -0.0461
22920W        W38814   0.480  12.254  15.961  0.0025  0.0145  0.0760
22921W        W38815   1.273   4.559   5.314  0.0196  0.0097 -0.1326
22922W        W38816   2.374  12.956   5.205 -0.0061 -0.1389 -0.0969
22923W        W38817   5.750  14.336  14.535 -0.1008 -0.2259 -0.1101
22924W        W38818   2.855   0.071   4.078  0.0037  0.0401 -0.0611
22925W        W38819   2.470   9.801  15.985 -0.0719  0.0202 -0.0468
22926W        W38820   1.071  13.447   0.997 -0.2179 -0.0308 -0.0650
22927W        W38821   2.863   3.128  15.169  0.1391  0.2499 -0.2308
22928W        W38822   1.234   0.839  15.584  0.2845 -0.0045 -0.0679
22929W        W38823  10.686  17.779   2.894 -0.0427 -0.1540  0.1500
22930W        W38824   0.696   2.566   5.396  0.1916  0.0669  0.3702
22931W        W38825   2.855   3.451   5.278 -0.2748 -0.0358 -0.1189
22932W        W38826   4.435   1.776   2.849 -0.2777  0.0922  0.1652
22933W        W38827   8.591  17.552  12.246  0.0899 -0.1436  0.1859
22934W        W38828  11.188   3.814   1.129  0.0265 -0.1601  0.0712
22935W        W38829   1.579   4.544   4.905  0.0368  0.0780 -0.1578
22936W        W38830  16.361   6.996   4.003  0.1888  0.1713  0.1727
22937W        W38831   1.322   3.574   1.641 -0.1284 -0.1801 -0.1372
22938W        W38832   2.923   0.556   4.262  0.1766 -0.1007  0.2562
22939W        W38833  12.723  10.794   4.653  0.1155 -0.0336  0.0114
22940W        W38834   7.789   5.778   4.100 -0.0037  0.0928  0.2013
22941W        W38835  17.657   4.162  16.533  0.2012 -0.2990  0.0496
22942W        W38836  17.153  10.348   3.111  0.0080 -0.0698  0.0932
22943W        W38837   5.523  17.808   2.352 -0.0083 -0.1592 -0.1301
22944W        W38838   0.575   9.803  14.365 -0.0978  0.3580  0.0937
22945W        W38839  11.031   9.601   1.609 -0.1335  0.1289  0.1950
22946W        W38840  11.387  12.266   0.823 -0.1977  0.1008 -0.1408
22947W        W38841  12.458   2.849   4.770 -0.0480 -0.0179 -0.1842
22948W        W38842   2.712   1.475   2.930  0.0706 -0.2276 -0.0793
22949W        W38843   5.686  13.373  14.281  0.3746 -0.0257 -0.0298
22950W        W38844  12.611   9.394   5.886  0.3584 -0.1352 -0.1568
22951W        W38845  15.642  17.599  15.641 -0.0970 -0.0871  0.1976
22952W        W38846   3.364  17.084   4.651  0.3314 -0.0919 -0.2200
22953W        W38847  10.889   7.365   3.653  0.0730  0.0984  0.0062
22954W        W38848   2.915  12.550   6.161 -0.1169 -0.3834  0.0393
22955W        W38849  17.498   8.339  14.664 -0.1918  0.0112 -0.1418
22956W        W38850  13.483  15.437  15.345  0.0624 -0.0747 -0.0657
22957W        W38851  11.662   8.202   3.734  0.0981 -0.1972  0.0824
22958W        W38852  13.843   5.830   6.359  0.1784  0.0487  0.2805
22959W        W38853   2.763  13.640   4.611  0.2244  0.0801 -0.2076
22960W        W38854   5.932  11.140   5.591  0.1676  0.3348  0.0783
22961W        W38855   4.301  11.381   1.837 -0.2437  0.4429  0.0351
22962W        W38856   8.243   9.474  12.997  0.0137  0.2957  0.0459
22963W        W38857  15.176  12.705  12.037  0.0893  0.2759 -0.0877
22964W        W38858   1.260   7.112  13.058  0.2127 -0.0525  0.0326
22965W        W38859  10.163   2.372   2.411 -0.0704 -0.1581 -0.2180
22966W        W38860   5.663   6.580   5.044 -0.0462  0.3385 -0.3234
22967W        W38861  15.577  17.071   1.811 -0.0447 -0.1000 -0.0726
22968W        W38862   5.806   1.265  15.893 -0.0470 -0.1068  0.2027
22969W        W38863   4.551   0.295  16.846  0.1248  0.1486 -0.1444
22970W        W38864   3.409   9.564   4.252  0.1126  0.1227 -0.0802
22971W        W38865   8.089   8.035  15.085  0.0579 -0.1781 -0.2238
22972W        W38866  15.920   4.656  16.911  0.1068 -0.0709  0.3295
22973W        W38867  11.541   7.524  13.425 -0.2012  0.0237  0.1793
22974W        W38868  11.842  16.079  12.235  0.2320 -0.1901  0.0565
22975W        W38869   6.158  16.519  13.972  0.1503  0.0845  0.0471
22976W        W38870   5.190   9.001   3.272  0.1866 -0.1232  0.2093
22977W        W38871   2.726   9.686  13.136 -0.0222 -0.2762  0.1708
22978W        W38872  16.986   1.581  13.842 -0.0348 -0.0934  0.3233
22979W        W38873   5.646  11.271   3.681 -0.1139 -0.2396  0.2271
22980W        W38874  11.774  10.621   4.687  0.2273 -0.4327  0.1000
22981W        W38875   6.571   4.394  13.128  0.2269  0.0157 -0.2835
22982W        W38876   7.034   3.019  14.782  0.3135 -0.2840  0.0665
22983W        W38877  17.139  10.500   5.545  0.3374 -0.2067 -0.0096
22984W        W38878   0.334  17.683  15.453 -0.2756 -0.0100  0.1319
22985W        W38879  14.002   0.288   3.725 -0.0434 -0.2216 -0.4042
22986W        W38880  15.907   6.337  16.401  0.0507 -0.0543  0.0698
22987W        W38881   0.751  10.889  11.327  0.4821  0.0240  0.3657
22988W        W38882   4.117  17.332  12.398  0.1297  0.2582  0.1390
22989W        W38883   9.945   6.013  15.140 -0.1007  0.1288 -0.0690
22990W        W38884   5.953   8.980   4.388  0.1958 -0.0072  0.1136
22991W        W38885  11.376  15.808   0.790 -0.0149  0.2598 -0.0760
22992W        W38886  16.890   7.885  14.115 -0.0554  0.0212 -0.3329
22993W        W38887  13.481  10.185   0.927  0.2451  0.0663  0.0863
22994W        W38888   0.548   5.667   5.313 -0.1796  0.1585 -0.0399
22995W        W38889  13.717  10.092  15.398  0.3639  0.0611  0.0853
22996W        W38890   1.683   5.170  15.730  0.1606 -0.1108 -0.1563
22997W        W38891   4.270  16.215  13.601  0.0145 -0.0885  0.2775
22998W        W38892  15.155   6.077  12.495 -0.2964 -0.1676 -0.2065
22999W        W38893   8.264  10.827   1.412 -0.4255  0.1472  0.0287
23000W        W38894   6.530   7.518  12.182 -0.2960  0.0264 -0.0821
23001W        W38895  15.413   6.240   0.711  0.3650  0.1084  0.3236
23002W        W38896  17.074   5.840  12.269 -0.3917 -0.0964  0.1087
23003W        W38897  11.705  13.845   4.565  0.0670  0.3464  0.0142
23004W        W38898   5.679  11.872  12.943  0.2113 -0.1926 -0.2627
23005W        W38899   7.222  16.548   2.805 -0.2688 -0.1554 -0.1632
23006W        W38900   0.672   8.659   3.064  0.0602  0.5706 -0.0726
23007W        W38901   8.736   9.762   3.182  0.0182  0.0685  0.0027
23008W        W38902  10.943  11.747   4.940 -0.1077  0.1086  0.1646
23009W        W38903   7.118  16.254   2.268 -0.0749  0.2696 -0.1022
23010W        W38904   1.035   0.967  16.631 -0.0312 -0.0961  0.1473
23011W        W38905   4.224   2.075  14.186 -0.2776  0.2645  0.0953
23012W        W38906   3.517  10.571  14.393  0.0101 -0.1012 -0.2105
23013W        W38907  14.398   3.623  11.740  0.0891 -0.1547  0.0523
23014W        W38908   9.865   0.086   1.558 -0.0061 -0.1880 -0.0025
23015W        W38909   1.511  10.114   0.684 -0.0748  0.0868 -0.0153
23016W        W38910  16.176   4.024  15.144  0.1548 -0.1427  0.0479
23017W        W38911  12.989  12.411   2.501 -0.0600  0.3139 -0.0359
23018W        W38912   5.375  10.960   2.554  0.1284  0.0570  0.0151
23019W        W38913  12.628  13.165   4.222 -0.4669 -0.1619 -0.1049
23020W        W38914  11.458  10.869   5.208 -0.0077  0.1674 -0.0040
23021W        W38915   0.560  13.559   0.915  0.0243 -0.1448 -0.2244
23022W        W38916  11.841   1.474   2.073 -0.2635 -0.0803 -0.1623
23023W        W38917  17.145  17.849   5.108 -0.3554 -0.2630 -0.0389
23024W        W38918  16.719   5.104  16.841 -0.1189 -0.2654 -0.0759
23025W        W38919  16.381  11.066  14.749 -0.0418  0.0100 -0.1502
23026W        W38920   1.978  12.199  16.602  0.1890  0.0885 -0.2918
23027W        W38921  15.638   4.254  12.755  0.4152  0.1342 -0.1907
23028W        W38922   6.851   7.351   1.952 -0.0533  0.0935 -0.2306
23029W        W38923   3.342   0.315  13.382 -0.2848  0.1326 -0.0109
23030W        W38924   5.632  10.018   4.075  0.2091  0.0024 -0.2251
23031W        W38925   5.712   5.818  13.184  0.3468  0.1122 -0.0610
23032W        W38926  15.708   0.424   2.213 -0.3654  0.1629 -0.1939
23033W        W38927   7.655   1.296  14.947  0.0037  0.2095  0.1685
23034W        W38928   3.506   8.017   4.045 -0.2344  0.0169 -0.1404
23035W        W38929  10.023   8.987   0.935  0.2899 -0.3004  0.0085
23036W        W38930  12.131   4.085   4.952  0.2046 -0.0702 -0.0484
23037W        W38931   6.838   2.299   1.671  0.0123 -0.2142  0.1229
23038W        W38932   3.789   0.420   0.863 -0.1589  0.0119  0.0498
23039W        W38933   1.537  11.029  13.191 -0.1541 -0.1193 -0.1843
23040W        W38934  10.760   3.570   2.739 -0.3070 -0.0284 -0.0921
23041W        W38935  14.258   2.333   5.261  0.3327 -0.1386  0.3185
23042W        W38936  10.209   6.515  15.964  0.0928  0.2528  0.3301
23043W        W38937   6.016  13.834   5.672 -0.3710  0.0233 -0.4644
23044W        W38938   6.877  14.762   1.830 -0.2509  0.0673  0.0257
23045W        W38939   2.200   3.837  15.055 -0.5256  0.1247 -0.0551
23046W        W38940   8.280   1.887  14.198 -0.2735  0.1844  0.1454
23047W        W38941  16.185  15.959  11.387 -0.3245  0.0442  0.3592
23048W        W38942   8.839  17.248  16.607  0.0760  0.0053  0.3679
23049W        W38943   5.140   1.706  11.815 -0.1246  0.0295  0.3703
23050W        W38944   3.739   1.504  16.741 -0.0993  0.1610  0.1989
23051W        W38945  16.307   5.890   2.969 -0.1468 -0.2765  0.1128
23052W        W38946  13.503   2.312   0.648  0.1594  0.3254 -0.1329
23053W        W38947   4.442  15.091   4.306  0.0644  0.1333  0.2233
23054W        W38948  13.603   2.812  16.329  0.0243  0.1528 -0.0781
23055W        W38949  15.096   9.679   4.880 -0.0337  0.2081  0.1216
23056W        W38950   3.486   6.186   1.696  0.0624 -0.0296  0.0943
23057W        W38951  12.154   4.705  16.006  0.0208  0.0757 -0.1192
23058W        W38952   2.248   1.631   2.939 -0.2184  0.1375 -0.0035
23059W        W38953   1.619   7.682   4.841  0.0696 -0.1811 -0.1766
23060W        W38954  17.818   5.920  11.662 -0.0281 -0.0324  0.0956
23061W        W38955  14.535   9.562  13.191  0.2174  0.0895  0.2383
23062W        W38956   8.793   2.744  13.250  0.2013 -0.0868  0.0635
23063W        W38957  12.783  11.325  12.671  0.0500 -0.1987  0.2820
23064W        W38958   7.704  17.807   4.329 -0.0450  0.0498  0.4718
23065W        W38959  17.025  11.636   5.038  0.0638 -0.1660 -0.2168
23066W        W38960   8.206   5.288  13.405  0.0987  0.1439  0.1518
23067W        W38961  13.581  12.395   3.535 -0.1142 -0.1309 -0.1095
23068W        W38962  17.499  14.898  16.073  0.1693  0.2627 -0.0168
23069W        W38963  13.379  16.157  16.438 -0.0036  0.2787 -0.1512
23070W        W38964  15.464   9.999  16.272  0.3935 -0.0933 -0.1169
23071W        W38965  10.529  13.662   0.853 -0.1937 -0.0567 -0.2269
23072W        W38966   1.382   8.487  12.734  0.1992 -0.1761  0.4218
23073W        W38967  11.804   0.383   3.652  0.0014  0.0303 -0.2581
23074W        W38968  17.402   2.547   3.374 -0.0148  0.3170 -0.0458
23075W        W38969   7.086  15.376   0.684 -0.1118 -0.0640  0.1748
23076W        W38970   0.697  10.857  13.517 -0.0233 -0.0164 -0.0587
23077W        W38971   1.434   9.801  15.135 -0.1300 -0.2440  0.1005
23078W        W38972  13.870   9.565   1.465  0.1825 -0.2001  0.0690
23079W        W38973   9.929  16.791  12.712 -0.0963 -0.0827 -0.0744
23080W        W38974   3.508   7.564  11.942 -0.0374  0.1275 -0.0994
23081W        W38975  10.872  15.891   0.335 -0.1780 -0.1185  0.2332
23082W        W38976  13.129  13.985  11.725 -0.2140  0.0552  0.1471
23083W        W38977  11.720   4.947  16.852 -0.1521 -0.1664 -0.1867
23084W        W38978  10.812  14.259   3.829 -0.1069  0.0667 -0.2851
23085W        W38979   6.702   1.239  14.689 -0.0706 -0.0080  0.0505
23086W        W38980   6.279   3.643  16.070  0.0558  0.0125  0.2194
23087W        W38981   8.879   7.705   3.956 -0.4085  0.2357 -0.1405
23088W        W38982  17.307   6.481  14.254 -0.2378  0.1845 -0.1166
23089W        W38983   6.623   2.047  13.619 -0.0424 -0.0098  0.0530
23090W        W38984   8.248  16.779  16.220  0.1194 -0.1931 -0.1201
23091W        W38985  16.317   1.459   0.454  0.0882 -0.1488 -0.0504
23092W        W38986   2.500  10.414  12.734 -0.2794  0.0852 -0.0719
23093W        W38987   0.939   8.365  15.159 -0.1662 -0.0885 -0.1073
23094W        W38988   3.726  13.248   3.746 -0.1364 -0.0086  0.0861
23095W        W38989   1.131  10.193  12.415  0.2409 -0.0142 -0.1562
23096W        W38990  17.687   2.820   1.978 -0.0241  0.0532  0.2578
23097W        W38991  12.631   8.589   4.973  0.2262 -0.1333  0.0640
23098W        W38992  11.782  16.433  15.404 -0.0230 -0.1368 -0.1192
23099W        W38993   6.192  14.921  12.635 -0.4785  0.0403  0.0481
23100W        W38994  10.976  10.185   3.053  0.2334  0.0688  0.1571
23101W        W38995   5.088   0.857   1.101 -0.0768 -0.3912 -0.0499
23102W        W38996   4.991   3.787  11.673 -0.3679  0.1271  0.3421
23103W        W38997  12.886   4.370   2.019 -0.1586 -0.3437 -0.1854
23104W        W38998   5.904   7.905  15.397 -0.1615  0.0235 -0.0879
23105W        W38999   2.240  13.333   4.025 -0.0476 -0.2515  0.3321
23106W        W39000   8.283   8.893   0.881  0.2821 -0.1984 -0.0258
23107W        W39001   8.580  10.282   4.064  0.0999  0.0699 -0.0265
23108W        W39002   9.829   1.427  13.234 -0.0537 -0.4180  0.1521
23109W        W39003   7.087  13.535   4.907 -0.1942  0.2214  0.0142
23110W        W39004  17.379  11.329   1.458 -0.2610  0.0658 -0.2416
23111W        W39005   6.889  12.997  13.057 -0.2332 -0.1546  0.1547
23112W        W39006  16.008  15.146   1.096 -0.0382 -0.0950  0.1408
23113W        W39007  10.894  17.660   1.737 -0.1864 -0.0354  0.0749
23114W        W39008  17.291   0.745   0.562 -0.0382 -0.0901  0.0965
23115W        W39009  12.570   8.779  13.694 -0.2653 -0.1825 -0.1727
23116W        W39010  10.728  16.560   4.336  0.0592  0.0325  0.0956
23117W        W39011   3.118   8.743   0.413 -0.0251  0.1901  0.2031
23118W        W39012  15.346   6.593   3.524  0.1871  0.0053  0.4691
23119W        W39013   3.172   6.988  15.334  0.0224  0.3739  0.0240
23120W        W39014   9.448   9.603  12.324  0.0058 -0.0866 -0.1387
23121W        W39015   3.031  10.473  14.260  0.1703 -0.0372 -0.3367
23122W        W39016  15.937   1.130   0.333  0.1559  0.0771  0.0904
23123W        W39017   2.272   0.249  15.274 -0.0709  0.0607  0.1389
23124W        W39018   1.458  14.441   2.010  0.0585  0.0034  0.1153
23125W        W39019   7.712   4.475  11.603  0.0346 -0.1829 -0.3619
23126W        W39020   9.036  11.895   4.813  0.0213 -0.0384 -0.1281
23127W        W39021   1.272   2.156   3.613  0.1365 -0.1344  0.3552
23128W        W39022   6.936   4.765   2.761 -0.2358  0.0611  0.1824
23129W        W39023   7.273  10.549  13.843 -0.2600 -0.2985  0.1429
23130W        W39024   4.250  16.974   2.211 -0.0306 -0.0593 -0.0828
23131W        W39025   6.801   9.940  15.188  0.0091  0.1208 -0.1436
23132W        W39026  10.548  10.075  13.621 -0.2682 -0.2740  0.1744
23133W        W39027   6.595   7.035   2.754 -0.0132  0.0041  0.0845
23134W        W39028   6.799  17.134  15.112  0.0008  0.2766  0.0252
23135W        W39029   8.084  10.072   1.517  0.2127  0.0514 -0.1498
23136W        W39030  16.686  10.369  11.573 -0.2843 -0.0687  0.1559
23137W        W39031  13.442   7.171   0.033  0.0053 -0.2452  0.3088
23138W        W39032  10.247  16.865   5.480 -0.1950  0.0326  0.1293
23139W        W39033  15.551  15.927  13.644  0.1014 -0.1197  0.2237
23140W        W39034  10.809   2.965  11.942  0.2566  0.0195  0.0598
23141W        W39035   8.204   8.878   3.027 -0.0883  0.1696 -0.0770
23142W        W39036   8.033   8.790  16.598 -0.2025  0.0248 -0.1677
23143W        W39037  15.995   7.547  15.198 -0.2998  0.1436 -0.3744
23144W        W39038   5.700   2.378   1.160  0.2035 -0.2004  0.3162
23145W        W39039  14.444  16.782   5.605  0.1591  0.0338  0.1601
23146W        W39040  14.876  12.179   3.738 -0.2355  0.1797 -0.3342
23147W        W39041   2.908  16.588   3.507 -0.0913 -0.1134 -0.1733
23148W        W39042   9.125   6.481   0.998 -0.3777  0.1884  0.0039
23149W        W39043  15.166   8.682  14.515 -0.2232  0.3584 -0.0212
23150W        W39044   8.319   8.303   1.604 -0.0149 -0.4340 -0.0526
23151W        W39045  15.790   4.044   4.836 -0.3222 -0.3292  0.1225
23152W        W39046   1.195   9.858  12.858 -0.0263 -0.0031  0.1254
23153W        W39047  16.097   2.366  14.411 -0.0535 -0.0082  0.3037
23154W        W39048  16.377  14.689  11.929  0.0492  0.4104  0.2355
23155W        W39049  10.988  11.763   4.261  0.0905 -0.3220  0.0490
23156W        W39050   8.210   7.068  11.866 -0.0726 -0.0997  0.1182
23157W        W39051   1.525  12.035   6.768 -0.0318 -0.0434  0.2281
23158W        W39052  12.352   4.526   2.142 -0.0260  0.1106 -0.1480
23159W        W39053  13.070   0.379  13.931  0.0199  0.1577  0.0086
23160W        W39054  11.869   6.178   0.878  0.0185  0.0213  0.3084
23161W        W39055   2.564  17.546  11.930  0.3011  0.0767  0.2807
23162W        W39056  11.208   8.692  12.260 -0.0655 -0.0015  0.1048
23163W        W39057   5.102   1.875  13.851  0.2063 -0.2432  0.0591
23164W        W39058  13.012   1.071  13.823  0.0355  0.1521  0.1144
23165W        W39059   8.106  13.114  16.849 -0.2367 -0.3523 -0.0943
23166W        W39060   0.882  16.505  14.925  0.2888  0.1585 -0.3748
23167W        W39061   1.585  11.045   6.173  0.0902  0.2022  0.3876
23168W        W39062  17.112   3.746   2.886 -0.1514  0.0529  0.0141
23169W        W39063   9.464  16.169   1.101  0.0419 -0.0931 -0.0063
23170W        W39064   6.141  13.758   3.576 -0.0595 -0.1136 -0.1040
23171W        W39065  15.779   4.319  13.242  0.1803  0.2749  0.0078
23172W        W39066   6.574  12.196   6.035  0.0640 -0.0153  0.0812
23173W        W39067   4.418   5.763   3.881 -0.0181  0.0154 -0.1452
23174W        W39068   2.759   1.480   4.253 -0.1698  0.1387 -0.1625
23175W        W39069  17.645   2.251   0.988 -0.0624 -0.3752  0.0115
23176W        W39070   4.762   1.840  16.344 -0.1728 -0.0117  0.1376
23177W        W39071  13.977  11.285  12.169 -0.0104  0.2503 -0.0138
23178W        W39072   4.547  13.750   4.049  0.0269 -0.0039  0.0384
23179W        W39073   2.531  11.712   0.658  0.0433 -0.1833  0.0913
23180W        W39074   3.282   2.107   4.045 -0.1365  0.3796  0.3147
23181W        W39075   6.414  15.839  15.054 -0.1481  0.1431 -0.1194
23182W        W39076  13.693  17.757   1.050  0.0789  0.2063 -0.3910
23183W        W39077   4.359   9.521   2.894  0.0941  0.2727  0.3469
23184W        W39078   4.917  13.831  13.096 -0.2503  0.3290 -0.1143
23185W        W39079   2.359  13.392   4.477  0.0439 -0.0373 -0.1522
23186W        W39080  12.684  13.889   2.895  0.2008 -0.0473  0.0363
23187W        W39081   8.847  17.604  13.362  0.2809 -0.0934 -0.2479
23188W        W39082  17.385  12.340   5.580  0.2177  0.2453 -0.0490
23189W        W39083   3.664   2.761   2.788  0.0469  0.0433  0.2952
23190W        W39084   3.048  12.923   1.969  0.3660 -0.0790  0.1209
23191W        W39085  17.556   0.571  14.961 -0.0716  0.2575 -0.0720
23192W        W39086  13.826  15.619  15.671 -0.1706  0.1131 -0.0848
23193W        W39087   5.359   0.467  15.696  0.2100  0.1476 -0.1584
23194W        W39088   3.541  10.788  12.182  0.0937  0.3186  0.2514
23195W        W39089  17.279   2.716   4.727 -0.0780 -0.1397 -0.1094
23196W        W39090  17.294  16.621  13.060 -0.2175  0.1167 -0.3476
23197W        W39091  11.160  13.229   3.973 -0.0845  0.1457  0.1571
23198W        W39092   3.954  17.157  13.546  0.2759 -0.2612  0.2777
23199W        W39093  15.004   2.273  16.214 -0.1179  0.1920  0.2211
23200W        W39094   7.745  15.189   1.953 -0.2247 -0.2619  0.0343
23201W        W39095   5.207   1.773  16.899 -0.0525 -0.2190 -0.0376
23202W        W39096   7.568  16.314   1.040 -0.0568 -0.0419 -0.0454
23203W        W39097  14.881   0.595  11.502 -0.0303  0.0611  0.0102
23204W        W39098  11.066  16.935   4.681  0.0235 -0.2192  0.1903
23205W        W39099  12.967   4.664   0.208 -0.2117 -0.0101  0.1328
23206W        W39100  12.474   0.841   2.161 -0.1612 -0.3413  0.1572
23207W        W39101   4.298   9.652  16.390  0.0214  0.3716  0.1731
23208W        W39102  17.593  16.773   0.256  0.1227  0.0983 -0.0193
23209W        W39103   8.585   6.363  16.182  0.1225  0.0536  0.1850
23210W        W39104   6.549   2.076  15.801 -0.1929 -0.1208  0.0987
23211W        W39105   8.379   1.454   2.713  0.0552  0.3991  0.0087
23212W        W39106  11.399  16.587   0.309 -0.0623  0.5053 -0.3487
23213W        W39107  12.380   3.371  14.352  0.0961  0.0909  0.0053
23214W        W39108  10.414   2.190  15.439  0.0427  0.2251 -0.2504
23215W        W39109  11.969  13.416  12.842 -0.0368  0.3208  0.3532
23216W        W39110  16.221   8.647   1.790  0.0838 -0.0230  0.2897
23217W        W39111   1.394  14.648  14.382 -0.0025  0.0794  0.1851
23218W        W39112  15.608  10.766   5.323 -0.0641 -0.2826 -0.1987
23219W        W39113   8.073  14.292   2.363  0.4160  0.1465  0.0154
23220W        W39114   4.754  10.279  16.329  0.3510  0.2167 -0.1443
23221W        W39115   8.393   3.306   5.753  0.0069 -0.3305  0.0932
23222W        W39116   9.241   2.397   4.673 -0.1948  0.1143  0.0617
23223W        W39117  12.876   4.668  14.310 -0.1669  0.1952  0.0462
23224W        W39118  10.570   1.450   0.242  0.1734  0.1958 -0.1632
23225W        W39119   1.523   2.788   0.082 -0.0400  0.0908  0.2722
23226W        W39120   9.416   8.172  13.763 -0.3483 -0.0253 -0.1665
23227W        W39121   7.077  14.078   4.171 -0.1906 -0.0916 -0.1630
23228W        W39122   2.324   8.925  12.643 -0.0072  0.3195 -0.0891
23229W        W39123   7.897   3.831   0.621  0.1239 -0.2291 -0.2177
23230W        W39124  14.635  10.264   3.563 -0.0430 -0.3120 -0.1320
23231W        W39125  17.384   2.682  14.249  0.2162 -0.1104 -0.0750
23232W        W39126  17.751  12.035   5.434  0.1267  0.2921  0.2234
23233W        W39127   6.421  17.612  12.189 -0.0456 -0.0828  0.4026
23234W        W39128   8.187   9.931   1.984  0.0421  0.2109 -0.2746
23235W        W39129   1.858   1.738   5.342 -0.5007 -0.0607  0.3033
23236W        W39130   5.120  16.594  14.662 -0.1370  0.0063 -0.1251
23237W        W39131  12.799  13.872  14.519  0.0853 -0.0446  0.0778
23238W        W39132  15.580   7.419   4.876  0.3215  0.0196  0.2194
23239W        W39133   5.133   8.022  15.906 -0.1397 -0.1173  0.0098
23240W        W39134   5.781   1.490   1.536 -0.2295 -0.0627  0.1961
23241W        W39135  15.413   3.485   5.491  0.0482 -0.0599 -0.1924
23242W        W39136   9.894   1.028   2.796  0.1914 -0.1191 -0.0006
23243W        W39137   0.975   1.801  12.961  0.1352  0.1608 -0.0226
23244W        W39138   6.843   9.219  13.060 -0.1429 -0.0012 -0.0835
23245W        W39139   2.668   8.244  15.528 -0.1235 -0.2145  0.1458
23246W        W39140  16.214  17.235   4.069 -0.4047 -0.5368 -0.0904
23247W        W39141   7.935  13.894  11.687  0.1580 -0.1856  0.1203
23248W        W39142   8.152   8.503   0.600  0.0827  0.0856 -0.1538
23249W        W39143   4.689   9.867  12.916 -0.1312 -0.1418  0.0178
23250W        W39144  10.154   9.805  15.752  0.1942  0.1247 -0.1103
23251W        W39145   1.840  16.859   2.637 -0.1269  0.0441  0.2301
23252W        W39146   6.339   2.309   1.587 -0.0579 -0.2088  0.0948
23253W        W39147   9.449   4.738  15.806  0.0178 -0.0771 -0.2780
23254W        W39148  11.506  16.698  16.191 -0.1340  0.0855 -0.2612
23255W        W39149   9.560  13.601  12.364 -0.2405  0.3286 -0.3033
23256W        W39150  17.450  10.227   0.612  0.0275  0.1469  0.0412
23257W        W39151   6.012  15.158  15.163  0.1440 -0.1035 -0.0785
23258W        W39152  15.426  14.582  15.105  0.1919  0.0726 -0.2671
23259W        W39153  13.143  15.713   2.249  0.1091 -0.0425  0.0780
23260W        W39154   3.695   3.229   5.216 -0.0900 -0.0437  0.3948
23261W        W39155   7.982  10.106   4.251  0.1362 -0.1980  0.1683
23262W        W39156   7.236  13.598  12.005  0.2367 -0.0427 -0.0357
23263W        W39157  17.175   6.144   1.240  0.1892 -0.1202 -0.1607
23264W        W39158  10.458  10.063  15.389 -0.0345  0.0272  0.0370
23265W        W39159  11.954  11.280   1.515  0.0605  0.0387 -0.2005
23266W        W39160  17.350  14.727   3.719 -0.3926  0.1560  0.0131
23267W        W39161  12.923   5.653   1.915  0.0840 -0.1158  0.1133
23268W        W39162   3.054   2.205   4.843  0.1222 -0.2439 -0.0050
23269W        W39163   0.414   7.520  15.492 -0.0336 -0.2115  0.0271
23270W        W39164   1.713  14.457  12.024 -0.1392 -0.0822  0.0485
23271W        W39165   3.526  15.020  12.358 -0.1817  0.3134  0.0659
23272W        W39166  12.202  11.973  12.729 -0.0807 -0.1501  0.0431
23273W        W39167   4.418   7.109  11.720 -0.1723  0.1365 -0.1508
23274W        W39168   0.149   6.440  13.116  0.2929 -0.0326  0.1343
23275W        W39169  13.563  12.335  15.797  0.1512  0.2148  0.4340
23276W        W39170   2.877   2.489  15.989  0.0228 -0.3765 -0.0879
23277W        W39171  16.192  13.153  13.132 -0.0960 -0.1385  0.1853
23278W        W39172  10.455   0.995   0.379 -0.1149  0.1373 -0.0900
23279W        W39173   5.876  11.429   0.706  0.0239  0.0806  0.0502
23280W        W39174   4.893   1.417   4.611 -0.0834 -0.0515  0.2544
23281W        W39175   6.938  13.953  15.181 -0.0336  0.0416 -0.0048
23282W        W39176   7.143   0.845   1.949 -0.2149 -0.0732  0.0632
23283W        W39177  15.171   0.437  16.063 -0.4431  0.1588  0.0449
23284W        W39178   2.217   4.607  15.610 -0.1549 -0.1638  0.2809
23285W        W39179  17.513  14.027   2.935 -0.1080  0.2701  0.1284
23286W        W39180   9.447  16.241   2.861 -0.3859  0.0871  0.0277
23287W        W39181   3.501  16.701   5.583  0.1001 -0.1910  0.0648
23288W        W39182   0.451  15.036  13.570 -0.1751  0.0385 -0.2233
23289W        W39183  10.397   6.135  13.931  0.1138  0.3847  0.0240
23290W        W39184   0.620  10.790   1.272 -0.0594 -0.2253 -0.0944
23291W        W39185   7.798  12.370   0.039  0.1549  0.0272 -0.1968
23292W        W39186  17.616   7.698   3.396 -0.1038  0.0932 -0.3865
23293W        W39187   3.937   5.991   5.508 -0.2221  0.1758  0.2620
23294W        W39188  13.218  16.013   4.772  0.1034 -0.2314  0.1048
23295W        W39189   1.645  15.666   5.947  0.0891  0.0788 -0.1393
23296W        W39190  15.413  11.146   4.390  0.1662  0.4735  0.2323
23297W        W39191   1.496  16.520  14.184 -0.0443  0.1099 -0.3835
23298W        W39192   6.524   0.247  13.580  0.1066 -0.0881 -0.1141
23299W        W39193   6.023  11.214   6.081  0.4306  0.1927 -0.1102
23300W        W39194  15.235  15.517   0.883  0.0218 -0.5569  0.0961
23301W        W39195  15.961   2.888   5.701  0.0130 -0.0346  0.1748
23302W        W39196   3.928   3.563  16.256  0.1681 -0.1210 -0.1498
23303W        W39197  13.528   2.339  11.976 -0.3633  0.0514 -0.2400
23304W        W39198   0.085   1.310   1.052  0.0735 -0.2016  0.1072
23305W        W39199  10.753   1.426   1.290 -0.1054  0.0855  0.2562
23306W        W39200   9.497   7.110   4.645 -0.2425  0.0674  0.1777
23307W        W39201   7.802   0.840   4.031  0.0382  0.0792  0.4243
23308W        W39202   0.561   7.553  14.942  0.0808  0.0272  0.1216
23309W        W39203   7.455   6.833  12.787  0.2283  0.0996 -0.1467
23310W        W39204  16.699  17.193   1.720  0.1597 -0.3679 -0.2672
23311W        W39205   1.898  16.341  13.917 -0.1046  0.1973  0.1282
23312W        W39206  12.464  14.403   2.837 -0.0557 -0.0775  0.4504
23313W        W39207  15.968   3.640  14.021 -0.3723  0.1948  0.0229
23314W        W39208  13.600   0.854  14.572  0.0284 -0.2874  0.1329
23315W        W39209   8.816   3.003   1.320 -0.1816  0.2345 -0.0320
23316W        W39210   7.997  15.047  16.879  0.0519  0.1398 -0.1131
23317W        W39211  10.101  10.788   4.197  0.0980  0.3184  0.1523
23318W        W39212   2.144  17.133   5.375 -0.0758  0.1207  0.0103
23319W        W39213   3.374   3.364  15.307 -0.2415  0.1689  0.1150
23320W        W39214   8.008   9.485   4.548  0.0155 -0.0295  0.0912
23321W        W39215   0.699   9.358  11.992  0.3015  0.0462  0.0971
23322W        W39216   9.238  14.875  12.111  0.1412 -0.1190 -0.0596
23323W        W39217   9.125   1.335   5.690 -0.1554 -0.0581  0.0415
23324W        W39218   3.671   2.107  16.580 -0.1390  0.2559 -0.1473
23325W        W39219   4.602  16.271   0.588  0.1064 -0.4025  0.3200
23326W        W39220   1.305   4.617  13.889 -0.1021  0.1982  0.0819
23327W        W39221  15.241  12.715  15.875  0.2484 -0.4146 -0.0594
23328W        W39222  17.525   9.090   5.149 -0.2597 -0.1890 -0.0572
23329W        W39223   3.324   4.739  15.069 -0.1581 -0.2429 -0.2642
23330W        W39224  15.141  14.406   0.845  0.1875  0.1095  0.2422
23331W        W39225  11.237   7.304   4.129 -0.0130 -0.0221 -0.5214
23332W        W39226   7.869   5.398  13.833  0.2001  0.1642 -0.2335
23333W        W39227  14.983  14.239   0.347 -0.1380 -0.4234 -0.1841
23334W        W39228   6.912  10.075   4.271  0.0931 -0.0112 -0.0810
23335W        W39229   7.589   1.699   1.472 -0.0093  0.3225 -0.3028
23336W        W39230  11.153   2.903  16.428  0.1183 -0.1132 -0.0011
23337W        W39231  11.604   7.932   1.387  0.1838 -0.0045  0.1742
23338W        W39232   2.234   7.372  11.968  0.1937  0.1893 -0.1517
23339W        W39233   1.770   3.390  11.500 -0.0719 -0.2661  0.0640
23340W        W39234   2.079   3.161   1.823 -0.0791 -0.2504  0.4131
23341W        W39235   3.231   5.729  12.845 -0.0402 -0.4519  0.0968
23342W        W39236   3.489   4.072   5.472  0.0475  0.0137 -0.0328
23343W        W39237   1.412   8.431   1.167  0.1016  0.0867 -0.0366
23344W        W39238   3.255  13.386   0.450  0.1456 -0.0478 -0.1353
23345W        W39239   7.492   9.152   2.762  0.1785 -0.2242  0.1177
23346W        W39240   4.305   9.116   3.638 -0.2419 -0.0420  0.1170
23347W        W39241   4.635  11.845  15.403 -0.2528  0.1403  0.1202
23348W        W39242  10.098  11.191   2.808  0.1803 -0.0764  0.2777
23349W        W39243   2.355   3.428  15.698 -0.0927 -0.1721 -0.3352
23350W        W39244  13.962  16.882   5.652 -0.0632 -0.1106 -0.2534
23351W        W39245   8.055   1.048  13.814 -0.0012  0.1324  0.0721
23352W        W39246  17.085   1.823   1.245  0.1584 -0.0966  0.0664
23353W        W39247   1.111  16.043   0.022  0.0771 -0.2280  0.1237
23354W        W39248  11.202  12.273  14.383  0.0695 -0.0161 -0.2661
23355W        W39249  14.692   5.230   5.235  0.5016 -0.3362 -0.0680
23356W        W39250   6.180   4.686   1.219 -0.0290  0.1307  0.0601
23357W        W39251   5.755   7.269   3.884 -0.1316 -0.0215 -0.4061
23358W        W39252  14.633   4.051  16.005 -0.2340  0.2185 -0.3979
23359W        W39253   6.213  15.408   0.727  0.4358 -0.1288 -0.2363
23360W        W39254  10.366  16.934  13.075 -0.1445 -0.1326 -0.0503
23361W        W39255   0.301   6.214  16.310 -0.1543 -0.1474  0.0267
23362W        W39256   2.640   2.765  12.291  0.0553 -0.1404 -0.0281
23363W        W39257   5.519  16.925   5.114 -0.0289 -0.2576  0.0144
23364W        W39258  13.343   4.383   2.254  0.2266  0.0712  0.1622
23365W        W39259  15.109  11.260   2.707 -0.1953  0.0267 -0.1360
23366W        W39260   8.211   5.772  12.465 -0.1329  0.0845 -0.1895
23367W        W39261  17.512  10.027   6.315  0.0329 -0.0187 -0.1889
23368W        W39262  14.893   3.971   5.161  0.0996  0.3702 -0.0009
23369W        W39263  10.614   2.798  13.191  0.1881 -0.0740 -0.3089
23370W        W39264   7.298   5.850  16.566 -0.1227 -0.0832  0.1632
23371W        W39265  14.973  14.489  16.784  0.2829  0.1289  0.0439
23372W        W39266   9.230   9.561  13.193  0.1761 -0.2365 -0.2503
23373W        W39267  17.553   2.255  11.797 -0.0822 -0.0866 -0.0850
23374W        W39268  17.846   0.205  13.045 -0.1553  0.0933 -0.2143
23375W        W39269  10.071   1.492  12.116 -0.2203 -0.1513 -0.2234
23376W        W39270   2.285   6.531   6.157 -0.0080  0.2293 -0.2256
23377W        W39271  13.815   3.335  14.512  0.1419 -0.0661 -0.1413
23378W        W39272   4.202  17.210  15.359 -0.0515 -0.0364 -0.0189
23379W        W39273   4.102   1.517   1.405  0.3301 -0.1244 -0.2890
23380W        W39274   9.909   7.804  16.463  0.2664  0.0628  0.0332
23381W        W39275  12.340   4.941   2.409  0.2877  0.2619  0.0096
23382W        W39276   2.472   1.618  14.432 -0.3007  0.2334  0.1262
23383W        W39277   2.634   2.481   0.756  0.0261 -0.1261 -0.0023
23384W        W39278   0.598  14.563   5.852  0.0347 -0.1318 -0.1222
23385W        W39279  13.013  14.829   4.193  0.2747  0.2121 -0.0395
23386W        W39280  12.709   1.317   4.863 -0.4147  0.1889  0.3530
23387W        W39281  14.494   9.008   1.033 -0.0049 -0.2456 -0.0587
23388W        W39282   1.737  15.346   0.989  0.2210 -0.3539  0.0398
23389W        W39283  16.282   0.044  11.385 -0.1972  0.3529 -0.0285
23390W        W39284   0.523  17.322   5.381  0.0686  0.0975  0.1479
23391W        W39285   4.390  12.498  11.803  0.1851 -0.0605 -0.0236
23392W        W39286   4.655  12.526  16.386 -0.5308 -0.1813 -0.1923
23393W        W39287   5.357  15.047   0.074 -0.1363  0.0594 -0.0215
23394W        W39288  14.636  16.791  11.849  0.1426 -0.0160 -0.0907
23395W        W39289  14.382   3.439  16.099 -0.3936 -0.0732  0.0221
23396W        W39290   4.786  13.236  13.243  0.0999  0.0797  0.1930
23397W        W39291   1.780  10.585   5.119  0.0675  0.3133 -0.0564
23398W        W39292   0.018   3.496  14.464  0.1072  0.1541 -0.2597
23399W        W39293   4.845   0.018  14.466 -0.0392 -0.5348 -0.2187
23400W        W39294   2.584  16.135   4.262  0.0944 -0.0254  0.0774
23401W        W39295  11.305   1.764   4.382 -0.0909  0.1582 -0.0498
23402W        W39296   3.258  14.349  15.340  0.2568  0.0863 -0.0594
23403W        W39297   6.000   8.698   4.007  0.0712 -0.1254  0.1055
23404W        W39298   3.205   8.704  14.805 -0.2238  0.1986  0.0934
23405W        W39299   0.761   0.104   3.250 -0.1897 -0.0055 -0.0283
23406W        W39300   1.865   8.639   3.671  0.3038 -0.1853  0.0656
23407W        W39301  11.373   8.379   3.355  0.0652 -0.1910  0.2425
23408W        W39302  13.599   0.265   4.450  0.2078 -0.0315 -0.0154
23409W        W39303  15.037  10.353   4.710 -0.2057 -0.3776 -0.2924
23410W        W39304   3.605   7.073  11.712 -0.0163 -0.0166 -0.0020
23411W        W39305   8.391  10.067   3.566  0.4359  0.0194  0.1049
23412W        W39306  15.245   0.804   3.230 -0.0764  0.1801  0.2371
23413W        W39307  17.849  11.607   5.129  0.1228  0.0834 -0.1457
23414W        W39308   8.895  14.729  15.100  0.1377 -0.0327 -0.2990
23415W        W39309   8.869   5.121  14.598 -0.0900  0.1550 -0.4683
23416W        W39310  15.310   2.173  13.607  0.1323  0.1007  0.4655
23417W        W39311   2.238  14.152  15.374  0.1535  0.1377  0.0134
23418W        W39312   3.730  15.938  13.734 -0.1391  0.3677  0.2058
23419W        W39313   1.071  10.161   4.622 -0.0213  0.1074  0.1571
23420W        W39314   0.663  11.185  12.282  0.4301 -0.0194 -0.1977
23421W        W39315  17.362   8.810   0.177 -0.2093 -0.1812 -0.0564
23422W        W39316  13.787  10.283   0.084  0.1017 -0.2287 -0.0145
23423W        W39317   7.206  14.033   3.666  0.1673 -0.0859  0.1622
23424W        W39318  11.586   2.687   3.695 -0.2856  0.3332 -0.1150
23425W        W39319  15.916   0.368  12.575  0.1580 -0.1719  0.0066
23426W        W39320   2.367   3.574  14.140 -0.1537  0.1585 -0.1187
23427W        W39321   0.560  16.418   3.161  0.0166  0.2650 -0.0393
23428W        W39322   8.466   7.789  13.594 -0.1575  0.0176  0.2241
23429W        W39323   3.287   6.673   1.689 -0.0985 -0.2317 -0.0699
23430W        W39324   1.745   7.694   2.906 -0.2326 -0.1604  0.2752
23431W        W39325   0.126   8.962   5.023  0.0213  0.0289 -0.0960
23432W        W39326  15.792   0.648  13.047 -0.0407 -0.0036 -0.1570
23433W        W39327  17.310   6.310  12.511  0.1771 -0.1068  0.0246
23434W        W39328  15.401   2.979  14.360  0.1442  0.2689  0.1386
23435W        W39329  12.509   1.913   4.110  0.0031 -0.0166  0.0818
23436W        W39330   1.278   2.655  12.608 -0.1827 -0.1506 -0.1042
23437W        W39331  16.882  16.749   4.459 -0.0750  0.0556 -0.1814
23438W        W39332   2.680  15.336  14.050  0.0046  0.2772  0.3190
23439W        W39333  17.606  12.082  14.709 -0.0912 -0.3207  0.2452
23440W        W39334  11.041  15.796  15.912 -0.0969 -0.0069  0.0843
23441W        W39335   8.271   5.347   0.522  0.2045  0.1779  0.0361
23442W        W39336  14.600   5.157  15.673  0.1797 -0.0597  0.3064
23443W        W39337  16.469   4.051  13.928 -0.4058  0.0942 -0.0281
23444W        W39338   7.764   7.509   4.539 -0.0104  0.0138  0.1840
23445W        W39339  10.898  10.190   1.665 -0.1088 -0.0887  0.0268
23446W        W39340  13.321  14.719   4.958  0.2476 -0.1517 -0.2877
23447W        W39341  15.247  17.836  15.777 -0.2273  0.2210  0.0765
23448W        W39342  13.070  16.110  16.827 -0.1333  0.0128 -0.1529
23449W        W39343   0.891   0.503  16.308  0.1034 -0.1156 -0.0256
23450W        W39344   7.065   8.152   4.894 -0.1185 -0.0366 -0.1733
23451W        W39345   8.074   7.762  16.084 -0.1488  0.0399  0.1134
23452W        W39346   8.604   9.302  16.912 -0.0758  0.1152 -0.0595
23453W        W39347   6.530  15.669   2.089  0.1069  0.2319 -0.0807
23454W        W39348  13.441   0.269   3.804 -0.0955 -0.0547  0.2935
23455W        W39349   0.374   6.298   4.656 -0.0893  0.0487 -0.3331
23456W        W39350   9.472   6.887   2.634 -0.1019 -0.1923 -0.1943
23457W        W39351   1.493   6.828  15.105  0.3539 -0.0886  0.1290
23458W        W39352  10.937   1.010   5.493 -0.1010  0.1123 -0.3551
23459W        W39353   9.604   3.751  13.386 -0.3276  0.0087  0.1569
23460W        W39354   1.327   3.588   1.074  0.1291  0.0235  0.2417
23461W        W39355   3.755   4.114  14.614  0.0102  0.0618 -0.1515
23462W        W39356   4.496  15.855   5.413 -0.1729  0.0874  0.0423
23463W        W39357  15.174  16.053  11.982 -0.4861  0.1230  0.2579
23464W        W39358   9.022   0.324   3.971 -0.1659  0.1292  0.1207
23465W        W39359  12.915   1.208  12.621  0.0993  0.0919 -0.0226
23466W        W39360   5.833  13.841   4.408  0.0266  0.1157 -0.0574
23467W        W39361  13.248   9.998   4.772 -0.1660  0.2582  0.0807
23468W        W39362  14.549  10.606   1.261 -0.0170 -0.0131  0.1178
23469W        W39363   8.780   7.378   3.015  0.4072 -0.1110 -0.2216
23470W        W39364   8.571  15.321   4.765 -0.0577  0.1440  0.2948
23471W        W39365   9.413   7.648  13.644 -0.0687 -0.0650 -0.0821
23472W        W39366   8.393   9.971   0.059  0.1031  0.4364 -0.1331
23473W        W39367   7.324  16.032  15.660 -0.0599  0.1147  0.0015
23474W        W39368   2.311  14.002   1.154 -0.1111 -0.1515 -0.0785
23475W        W39369   1.886   6.640  11.774 -0.3330  0.0919 -0.0312
23476W        W39370   0.909  17.760   4.549  0.0132  0.1600  0.1623
23477W        W39371   8.738  15.348  13.848 -0.2977 -0.2604  0.0821
23478W        W39372   8.720  16.342  14.474  0.0298 -0.2703 -0.1194
23479W        W39373  12.955  16.105  15.476  0.1944  0.2028  0.1690
23480W        W39374  14.994   5.811   5.002  0.0546  0.0685  0.3102
23481W        W39375   6.772  15.892   2.442 -0.1140 -0.2110 -0.0033
23482W        W39376  11.891   8.586  15.692 -0.2026 -0.1654  0.0550
23483W        W39377   6.642   3.627   0.196 -0.0849  0.1613 -0.0716
23484W        W39378  16.405   7.469  12.515 -0.1074  0.1982  0.0537
23485W        W39379  17.660   2.988  14.713  0.0260  0.0870  0.2535
23486W        W39380  10.312  14.794  13.531  0.1670  0.1951 -0.4685
23487W        W39381  12.332  12.222   0.563 -0.1423 -0.1029  0.0064
23488W        W39382   2.094  14.401   6.113  0.1526  0.4286 -0.1376
23489W        W39383  17.055   7.567  12.062  0.0489 -0.0576 -0.0651
23490W        W39384  16.335   2.915  11.589 -0.1557 -0.2888 -0.2054
23491W        W39385   1.882  13.169   2.950 -0.1182 -0.0473 -0.1507
23492W        W39386   6.306  16.641   5.555  0.2468  0.2466  0.0160
23493W        W39387  11.236  11.490  14.475 -0.0848  0.2870  0.2119
23494W        W39388   4.994  14.940   5.680 -0.0134 -0.0468  0.0569
23495W        W39389  16.984  12.159  13.999 -0.2111  0.1550  0.0268
23496W        W39390   1.263  17.680  12.047 -0.2225  0.0275  0.1422
23497W        W39391   3.193   7.080   1.328 -0.1804 -0.0319 -0.2539
23498W        W39392   2.399  11.083   4.681 -0.3413 -0.0431 -0.1737
23499W        W39393  17.668   9.643  12.871  0.1520  0.2004  0.1188
23500W        W39394  17.535  13.073  14.168  0.4437 -0.0544 -0.1014
23501W        W39395   6.798   2.328   5.446 -0.1520  0.1531  0.3227
23502W        W39396   5.516   4.726   0.485  0.1663  0.1199 -0.3003
23503W        W39397  15.098   5.962   5.433  0.1232 -0.0310 -0.0929
23504W        W39398  15.581  15.782   3.176 -0.1340  0.0881 -0.1194
23505W        W39399  16.488   5.567   1.000  0.3197 -0.1061  0.1284
23506W        W39400   7.452   7.117  13.274 -0.0858 -0.0585  0.0491
23507W        W39401   0.110  10.996   4.065  0.1580 -0.1655 -0.0249
23508W        W39402   9.964  11.938   5.127 -0.1489  0.0232 -0.3642
23509W        W39403  12.427  11.569   2.913  0.2012  0.3665 -0.0718
23510W        W39404   7.418  13.770   5.765  0.1030  0.0185  0.3441
23511W        W39405  13.367   2.688   3.804  0.0411 -0.2004 -0.1496
23512W        W39406   3.327   9.455  13.727  0.2208 -0.0602 -0.2110
23513W        W39407   9.754  12.341  14.168  0.2591 -0.1673 -0.0756
23514W        W39408  16.958  13.864   5.354  0.0881  0.0013 -0.0817
23515W        W39409   9.862   3.224   2.781  0.1857  0.0272  0.0576
23516W        W39410   4.593   1.602  14.106 -0.0553 -0.0037 -0.0420
23517W        W39411   5.498  10.389  13.676  0.2917  0.0172 -0.1714
23518W        W39412  17.321  15.071   5.837 -0.1580 -0.0722  0.0430
23519W        W39413   2.907   8.267  16.031  0.0281  0.2253 -0.2878
23520W        W39414   1.067  10.461  14.760  0.1054  0.2498  0.0328
23521W        W39415   4.354  11.301   3.002  0.1848 -0.3912  0.3127
23522W        W39416   0.065   5.971  13.757 -0.0569  0.1582  0.1342
23523W        W39417   3.895   1.969   1.609  0.0414  0.1785  0.2441
23524W        W39418  14.540  13.259   0.578  0.1475  0.0020  0.2987
23525W        W39419   1.772   5.361  11.528 -0.0584 -0.0244  0.1045
23526W        W39420  12.653   6.055   1.141 -0.1525 -0.3265 -0.5810
23527W        W39421  17.234  17.431  14.984 -0.1348 -0.0386 -0.1135
23528W        W39422   7.324  17.232   3.447 -0.0823 -0.2220 -0.0246
23529W        W39423   9.874   4.738   3.503  0.0963  0.2859 -0.2500
23530W        W39424   0.708   1.556   0.219 -0.2839  0.0788  0.0065
23531W        W39425   0.834  15.260   4.607  0.2327 -0.2514 -0.1688
23532W        W39426  16.713  16.507  14.175 -0.0509  0.0551  0.0581
23533W        W39427   9.177  10.049   4.030  0.0309  0.0149 -0.0229
23534W        W39428   7.744   6.355   4.108  0.3243 -0.2481  0.2632
23535W        W39429  12.737   7.702  15.281  0.1480  0.0536 -0.2628
23536W        W39430   9.421  13.586  16.218  0.1771  0.0285  0.1019
23537W        W39431   2.217   1.058   2.871 -0.0802  0.1240 -0.0186
23538W        W39432   5.448   4.376   3.229  0.3708  0.1458  0.0505
23539W        W39433   6.542   8.832  13.905  0.1225 -0.0916  0.2653
23540W        W39434  11.090   7.455  11.960  0.4671 -0.3530 -0.0653
23541W        W39435   9.414   0.600  13.573 -0.1406 -0.3168  0.2087
23542W        W39436  13.368   7.889  14.440 -0.0423 -0.1090 -0.1508
23543W        W39437  12.272  12.159  12.140  0.0925 -0.0438 -0.1587
23544W        W39438  16.253  10.027   0.700  0.1187 -0.0763  0.1678
23545W        W39439  16.537   9.320   2.229  0.0093 -0.1053 -0.0679
23546W        W39440  17.070  12.954  12.795 -0.0018 -0.3111 -0.0387
23547W        W39441  12.962  16.306  14.324  0.0740 -0.1286  0.0025
23548W        W39442  13.937  11.805  14.816 -0.0984 -0.0564  0.1591
23549W        W39443  16.839  11.466   5.507  0.2851 -0.0040 -0.4005
23550W        W39444  13.877  15.214  14.785  0.0381 -0.0847  0.0741
23551W        W39445  11.905  11.279  12.094  0.2120 -0.0795 -0.0845
23552W        W39446  13.351  12.039   3.911 -0.1888 -0.0809 -0.0352
23553W        W39447  16.138   6.474   3.960 -0.1611 -0.0473  0.1353
23554W        W39448   7.700  10.755   6.318  0.0482  0.0592  0.2840
23555W        W39449  17.118  12.057   1.858 -0.3262 -0.1137  0.0288
23556W        W39450   4.152  12.706  14.975  0.0250 -0.0990 -0.2293
23557W        W39451  16.255   5.346   1.427  0.2907  0.0676 -0.0759
23558W        W39452   5.423   5.578  11.865 -0.0314  0.1837  0.0327
23559W        W39453  13.226  11.503  16.429 -0.1117 -0.1380  0.0763
23560W        W39454  17.040  12.953   1.848  0.1515 -0.0554  0.0059
23561W        W39455   5.615  15.905  14.914  0.0616 -0.0591 -0.1698
23562W        W39456   0.515   8.201   5.693 -0.2237  0.4537  0.0508
23563W        W39457   6.893  14.581   4.217 -0.1903 -0.2088 -0.0849
23564W        W39458   2.222   6.498   2.494 -0.0352 -0.1258 -0.1091
23565W        W39459  17.572   7.650  13.347 -0.1708 -0.1446 -0.0142
23566W        W39460   1.809  14.503   3.045 -0.1430  0.1458  0.1741
23567W        W39461  12.564  10.799  15.904 -0.0403  0.0525  0.2743
23568W        W39462   4.944  11.157  16.031  0.0592  0.2515  0.0973
23569W        W39463  13.951   7.133   0.826 -0.1686 -0.1832 -0.1053
23570W        W39464  17.232  14.662   1.658  0.0824  0.3806 -0.3237
23571W        W39465   8.572   9.429  10.782  0.1912 -0.0388  0.0534
23572W        W39466   5.908  15.339   2.798 -0.1919 -0.1497 -0.0448
23573W        W39467  10.615   9.399   3.108  0.3544  0.1856 -0.3220
23574W        W39468  15.827   1.548   0.593 -0.3561  0.0231  0.1557
23575W        W39469   3.870  15.292   0.868  0.3440  0.0448 -0.1816
23576W        W39470  10.025   5.596  13.491  0.0389  0.2209  0.1247
23577W        W39471   2.111  13.363  12.675 -0.1552  0.0368 -0.1492
23578W        W39472  17.010  12.972  11.818 -0.0209 -0.0024 -0.0527
23579W        W39473  13.000   1.496  13.491  0.0038 -0.0337  0.0823
23580W        W39474   6.119   7.251  12.224  0.1167 -0.1028  0.0900
23581W        W39475   0.898  12.746  16.530  0.0898 -0.2766  0.1430
23582W        W39476   1.869   4.559  14.482 -0.0843  0.2030  0.0637
23583W        W39477   4.155  16.446   3.102 -0.0165 -0.0975  0.0463
23584W        W39478   7.245   9.612  10.935  0.2387  0.1518 -0.2206
23585W        W39479   2.637   4.589   4.639 -0.1049 -0.0194  0.0593
23586W        W39480  14.492  11.854  13.774  0.0413 -0.2039 -0.0533
23587W        W39481  13.040  14.649   5.878  0.0156 -0.2371  0.4081
23588W        W39482  11.180  14.201   1.148  0.0944 -0.0915 -0.0310
23589W        W39483   3.881   7.751   0.295  0.2023  0.0994  0.1518
23590W        W39484  11.359   6.143   4.976 -0.2988  0.0862  0.1713
23591W        W39485  13.314   6.085  14.538  0.0366 -0.0124 -0.0010
23592W        W39486  14.399  15.895   2.255  0.3921 -0.0160  0.0209
23593W        W39487  17.362   8.808   1.108 -0.0751 -0.6268 -0.1277
23594W        W39488   1.289   2.301  14.266 -0.0477 -0.1961  0.0655
23595W        W39489  15.166   7.463   3.456  0.0030  0.0556  0.0674
23596W        W39490   0.517   7.419   0.153 -0.0375  0.0133 -0.1762
23597W        W39491  14.882   9.214  11.868  0.1847  0.0764  0.0708
23598W        W39492   9.606  15.774  13.808 -0.1780 -0.1394 -0.3033
23599W        W39493   2.606   4.710  16.077 -0.1368 -0.0791 -0.0803
23600W        W39494   1.497  11.982   5.091  0.1762 -0.0159  0.1852
23601W        W39495   3.992   0.188   5.170 -0.1929 -0.3420 -0.1727
23602W        W39496  12.051   3.739   1.095  0.0508  0.3007  0.0025
23603W        W39497   5.351   6.819   0.410  0.0238 -0.0917 -0.0081
23604W        W39498  14.937   4.528  15.436  0.2300  0.3566 -0.1685
23605W        W39499   2.375   7.203  11.454  0.0935  0.0434  0.0090
23606W        W39500  17.212   6.441   4.420  0.0899  0.1590  0.0414
23607W        W39501   7.048  10.038  15.589 -0.0402 -0.0336  0.0062
23608W        W39502   9.896  13.795   2.418  0.2483  0.3189 -0.0187
23609W        W39503   8.022   9.276  11.818  0.2918  0.0031 -0.0215
23610W        W39504  11.735  16.878  16.873  0.0087  0.2094 -0.0189
23611W        W39505   5.295   0.573   2.708  0.2938  0.1156 -0.2262
23612W        W39506  10.936  17.241   1.020 -0.0548 -0.4908  0.4834
23613W        W39507   2.390   3.817   0.745  0.1730  0.1092 -0.1626
23614W        W39508  14.274  14.585   5.024 -0.1266 -0.0541  0.2384
23615W        W39509   5.776  17.060   2.197  0.1777 -0.0565  0.0642
23616W        W39510  13.293  12.858  15.164 -0.2728  0.1308  0.1673
23617W        W39511  11.192  13.992   1.666 -0.1568 -0.0399 -0.0629
23618W        W39512   9.195   4.242   5.574 -0.3826  0.1218 -0.4332
23619W        W39513   4.966  12.841  15.380 -0.1052 -0.0595  0.0477
23620W        W39514   0.871  10.196   3.232  0.0470 -0.5229  0.3502
23621W        W39515   0.407   6.777   5.347  0.2119 -0.1080 -0.3090
23622W        W39516   4.807   9.479  14.601  0.1055  0.2116 -0.3173
23623W        W39517  13.953   5.595   0.267 -0.3927  0.1487 -0.1218
23624W        W39518   1.299   7.402   2.232 -0.1386 -0.3816 -0.3658
23625W        W39519   3.747  15.175   5.528 -0.0642 -0.0828  0.0949
23626W        W39520   2.883  16.095   3.294 -0.2112  0.0877 -0.2729
23627W        W39521  12.576  10.336  16.079 -0.4872  0.3466 -0.1707
23628W        W39522   7.686   5.567   5.578  0.0269  0.1391  0.1803
23629W        W39523   6.094   2.186   4.119  0.0976  0.3235  0.1038
23630W        W39524   7.277  17.169  14.487  0.0755  0.0804 -0.1711
23631W        W39525   0.374  17.757   5.571  0.0135 -0.1806  0.2377
23632W        W39526  13.735  11.993   1.988 -0.0178 -0.0129  0.3593
23633W        W39527   9.203   4.809  10.841  0.0354 -0.0437  0.0435
23634W        W39528  12.472  12.635  13.403  0.1067  0.3887  0.1742
23635W        W39529  11.958   2.135  11.635 -0.2073 -0.0500  0.3881
23636W        W39530   3.723  15.115  14.935  0.0245 -0.1206 -0.0973
23637W        W39531   5.338   5.641   4.461  0.0145 -0.0755 -0.2454
23638W        W39532   4.774   9.460   2.617 -0.0725 -0.1736 -0.0754
23639W        W39533  17.056  12.662   0.764  0.0525 -0.1224 -0.1521
23640W        W39534  11.001  14.578   0.725  0.0884  0.0092  0.0260
23641W        W39535  10.088   5.647   2.252  0.1820 -0.0654  0.0576
23642W        W39536  14.690   9.881  15.212 -0.1519 -0.1651  0.0127
23643W        W39537   5.703  15.828  15.717 -0.0316  0.0206  0.0703
23644W        W39538  10.498   4.056   5.125  0.1429 -0.0533  0.1121
23645W        W39539  10.542  12.744   0.029 -0.1208  0.3013  0.4022
23646W        W39540  16.595  17.353   1.265 -0.1218 -0.2030  0.2912
23647W        W39541   0.397  11.824  12.759 -0.1209  0.0032  0.4499
23648W        W39542   3.759   0.905   5.301  0.0384 -0.0387 -0.0910
23649W        W39543  15.112  12.743  11.499  0.3489  0.1219 -0.0272
23650W        W39544  12.855   9.812   3.134  0.0671 -0.0845  0.2323
23651W        W39545   7.545   3.853  12.536  0.0037 -0.2777 -0.2912
23652W        W39546   9.568   4.359  15.468 -0.1269  0.0085 -0.1468
23653W        W39547   5.947   9.181   5.286  0.0291 -0.0120  0.2376
23654W        W39548   3.884  11.920  12.388  0.1057  0.2181 -0.0510
23655W        W39549  12.586   6.651  14.672 -0.6181  0.2462  0.2117
23656W        W39550  13.803   3.336  10.877  0.1728  0.1431  0.0391
23657W        W39551   0.278  12.370   5.349 -0.0373 -0.3480  0.0794
23658W        W39552  15.992  16.922  11.652 -0.0275 -0.0516 -0.2417
23659W        W39553  13.766   2.669   3.266  0.1963  0.0900  0.1168
23660W        W39554  10.286  16.945  15.805  0.2008 -0.4890 -0.0074
23661W        W39555   6.992   3.865   5.793  0.1489  0.0836  0.0358
23662W        W39556  10.032  13.548  13.797 -0.2116 -0.0754 -0.1281
23663W        W39557   8.140  12.796   5.262 -0.0389 -0.0643 -0.2603
23664W        W39558  11.782   9.771   1.173  0.0513 -0.4177  0.1936
23665W        W39559   6.055   2.592   3.818 -0.0412 -0.1428  0.1169
23666W        W39560  12.196   8.574   5.821 -0.0236 -0.2798  0.1747
23667W        W39561   3.844  14.956  14.069 -0.1436 -0.2296 -0.0887
23668W        W39562  16.418  14.010  12.619  0.2075 -0.1306  0.0779
23669W        W39563  14.641  12.398   6.314 -0.3814  0.3995  0.0404
23670W        W39564   8.962  17.398   0.261  0.1648 -0.3309  0.1062
23671W        W39565  16.953  14.856   4.341 -0.1147 -0.1807 -0.0678
23672W        W39566   1.593  13.329   5.018 -0.0873 -0.0623 -0.1463
23673W        W39567  10.096  17.015   2.052 -0.2460 -0.0185 -0.2145
23674W        W39568   9.674   5.079  14.674 -0.2773 -0.2221  0.1489
23675W        W39569  11.610   3.360  16.105  0.1298 -0.2352 -0.0580
23676W        W39570  12.402  15.629  16.316  0.0256 -0.1851 -0.0466
23677W        W39571  13.265  17.559   0.213 -0.3992 -0.1262 -0.0360
23678W        W39572  10.836   5.487   5.103  0.0466  0.1463 -0.0508
23679W        W39573  12.753  12.516   2.084  0.0237  0.0149  0.0733
23680W        W39574  12.863  10.401   0.483 -0.0375  0.0861 -0.0029
23681W        W39575  11.715  17.182   1.156 -0.0768 -0.4889 -0.3090
23682W        W39576   0.525   2.018  12.955  0.1938  0.0463  0.0620
23683W        W39577   4.105   5.132   0.466  0.2741  0.1496 -0.2310
23684W        W39578  14.542   9.559   3.587 -0.0040 -0.3166  0.1471
23685W        W39579   0.249   3.521   4.835 -0.0393 -0.0697 -0.0183
23686W        W39580   5.518   8.538  15.980  0.0910  0.0465  0.3011
23687W        W39581   5.625   8.450  14.551  0.0477  0.1920 -0.1975
23688W        W39582   0.863  10.355  16.725 -0.0654 -0.3577  0.1070
23689W        W39583  14.631  15.430   2.286 -0.1593  0.2378 -0.0620
23690W        W39584  16.008   7.788   4.929  0.0528  0.1906 -0.3712
23691W        W39585  12.987   0.382  12.313  0.0199 -0.1268 -0.1307
23692W        W39586  15.021   4.657   1.715  0.0341  0.2119  0.3361
23693W        W39587  14.238  12.326   5.981  0.0321  0.0758 -0.0052
23694W        W39588   3.589  11.456   2.532 -0.2480  0.0566  0.2267
23695W        W39589  13.006   4.148   4.062  0.3657 -0.0141  0.1801
23696W        W39590   8.125   6.722  14.070  0.5249 -0.1329  0.2362
23697W        W39591   8.762   9.135  15.364  0.2123  0.1172  0.1229
23698W        W39592  10.460  10.844   5.170  0.2573  0.0517  0.3351
23699W        W39593  17.069   5.345  12.134  0.0398  0.3879  0.3601
23700W        W39594  12.267  11.404   2.482 -0.1350 -0.0822 -0.0172
23701W        W39595  11.778   4.512   1.613 -0.0708  0.3418  0.1302
23702W        W39596  12.099   4.713  14.043 -0.0372  0.0680  0.2614
23703W        W39597   6.733  10.702  13.159 -0.1588 -0.0619 -0.3588
23704W        W39598   9.813  11.596   1.019 -0.0080 -0.0637  0.0499
23705W        W39599  15.676   6.280  12.016 -0.1498 -0.0909 -0.2785
23706W        W39600   7.004   5.345   6.066 -0.1963  0.0234  0.2034
23707W        W39601   8.835  14.166   4.295 -0.0604 -0.2564 -0.0892
23708W        W39602   1.777   3.530   4.609 -0.3058 -0.2566 -0.3166
23709W        W39603   0.234   9.940  12.522  0.1118 -0.1248 -0.0419
23710W        W39604  11.267   0.835   5.167  0.0548  0.0160 -0.1400
23711W        W39605   0.084   0.758   3.322  0.2157 -0.0797  0.1159
23712W        W39606   6.016  15.888  12.788 -0.3148 -0.4126  0.3671
23713W        W39607  15.549  12.053   5.474  0.1389 -0.0629 -0.0323
23714W        W39608  15.204   0.548   1.423  0.3106 -0.0756 -0.0538
23715W        W39609   0.957  13.469  15.484 -0.1516  0.1402 -0.4566
23716W        W39610   8.775   4.391  14.979 -0.0946 -0.2508  0.6066
23717W        W39611   9.390   3.595   1.585  0.0139 -0.2598 -0.0693
23718W        W39612  16.133   9.029   0.181  0.2602  0.3032  0.1420
23719W        W39613   9.936   5.101  13.846  0.0757  0.1148 -0.0136
23720W        W39614  11.879  11.257   0.080  0.1346  0.0710 -0.1526
23721W        W39615  10.842  13.004   3.491  0.2336 -0.2610 -0.0238
23722W        W39616  12.683   1.500   1.631  0.0890 -0.0801  0.3151
23723W        W39617  14.763   3.775  16.418 -0.0507 -0.2346 -0.2505
23724W        W39618   0.950   2.392  14.737 -0.1147  0.5321 -0.0556
23725W        W39619  16.598   4.006  14.576 -0.1987  0.0873 -0.0586
23726W        W39620   3.635   5.958   0.783  0.0484 -0.0761  0.1402
23727W        W39621  11.510   3.754  16.413  0.1626  0.1175  0.3044
23728W        W39622   1.373  17.359   2.807  0.2020 -0.1003  0.0396
23729W        W39623   2.476   8.821   2.543  0.0892  0.1352 -0.2547
23730W        W39624  10.947   0.792  14.065  0.1408  0.1483  0.0264
23731W        W39625   6.767   8.668  11.692 -0.1724 -0.2494  0.5291
23732W        W39626  15.841   9.488   5.761  0.0436 -0.0757  0.4154
23733W        W39627   7.721   6.177   5.467 -0.2773 -0.1611 -0.0357
23734W        W39628  13.171  11.731   0.807 -0.0717  0.2585 -0.1793
23735W        W39629   9.415   5.242   0.198 -0.0201  0.1910 -0.0368
23736W        W39630  16.005   5.945  11.877  0.0003  0.0108 -0.1111
23737W        W39631  16.766  10.548   1.256  0.1451  0.3127 -0.0986
23738W        W39632   6.657   1.087  11.512  0.1323 -0.0853  0.2560
23739W        W39633  13.334  15.870   0.868  0.0855  0.1093 -0.0778
23740W        W39634  14.149  14.873   1.037 -0.4173  0.0901  0.2549
23741W        W39635   9.768   9.596  14.635  0.0690 -0.5797 -0.2923
23742W        W39636  17.350  12.157   3.016 -0.0376 -0.4497  0.1716
23743W        W39637   8.552  17.841  15.337  0.1726  0.1183 -0.3048
23744W        W39638   3.086   7.607  13.351  0.0428 -0.1597  0.0382
23745W        W39639   1.662   5.331   0.691  0.1904 -0.0715 -0.0057
23746W        W39640   3.965   5.564   0.591  0.0560 -0.0780  0.1263
23747W        W39641  10.847  14.030   4.281  0.2134  0.0514  0.0331
23748W        W39642  11.434  13.260   0.602 -0.0835 -0.1336  0.1802
23749W        W39643  15.946  10.278  15.505  0.0416  0.0009 -0.0280
23750W        W39644   3.276  13.210   3.981  0.1307 -0.0245 -0.3565
23751W        W39645   7.340  14.518   5.225 -0.0989  0.0642  0.0757
23752W        W39646   3.050   4.775   4.882 -0.0436 -0.0910  0.2386
23753W        W39647   3.148   7.480   0.847  0.2100 -0.1316  0.0873
23754W        W39648   0.329  13.655  16.156 -0.0898  0.1234  0.2348
23755W        W39649  16.157  13.094  16.735 -0.1576 -0.0166 -0.0315
23756W        W39650   2.556  11.642   3.811  0.0424  0.3188 -0.0819
23757W        W39651   3.722   3.533   4.144  0.1038  0.0959  0.2117
23758W        W39652   6.741   8.109   5.710 -0.0899  0.3531 -0.1967
23759W        W39653   5.527   7.448  12.554  0.1860 -0.4346  0.1698
23760W        W39654  11.898   1.959  16.916  0.0430 -0.0938  0.3406
23761W        W39655   3.977   6.256  14.107 -0.1341  0.1062 -0.1530
23762W        W39656  15.855  17.127  13.638 -0.2029  0.2465  0.2067
23763W        W39657  15.987   0.881  12.623  0.0925  0.0054 -0.1164
23764W        W39658   7.466   2.519  11.756 -0.0638  0.1251 -0.3834
23765W        W39659   2.508  10.485  14.643  0.2204  0.0994 -0.0964
23766W        W39660   0.734   7.669   4.801 -0.1087 -0.2545  0.2331
23767W        W39661   0.308  14.037   0.951 -0.0153 -0.1936  0.0037
23768W        W39662  11.330   1.140  14.884  0.0782  0.1010  0.1129
23769W        W39663   1.459   2.183   3.106 -0.1685 -0.0499  0.1631
23770W        W39664   3.115  13.012  14.801  0.3724  0.2532 -0.5087
23771W        W39665   9.756   0.699   3.675 -0.2885 -0.1119  0.1041
23772W        W39666  16.158   8.278  13.936  0.0681 -0.4501 -0.1765
23773W        W39667  12.072   9.573   5.042 -0.0375  0.1380 -0.1554
23774W        W39668  13.189  10.300   1.888 -0.1621  0.0126  0.0141
23775W        W39669  12.249  16.385  15.299  0.1250  0.1162  0.0235
23776W        W39670   7.744  16.405  12.804 -0.0918 -0.0219  0.1304
23777W        W39671  15.272   2.832   3.860  0.0938 -0.3011  0.0708
23778W        W39672   2.209  12.642   4.686 -0.1307 -0.0890  0.1250
23779W        W39673  10.340   5.377   5.863 -0.1473  0.1669 -0.2344
23780W        W39674   8.197   2.639  13.180 -0.0932  0.0441 -0.2571
23781W        W39675  12.641  13.157  12.304 -0.1182 -0.2163 -0.1297
23782W        W39676  15.372  13.179  14.980 -0.1351 -0.1038  0.0835
23783W        W39677   9.324  15.172   5.567  0.0386 -0.3102  0.0026
23784W        W39678  16.622   5.028  12.369  0.1102  0.2243 -0.2273
23785W        W39679   2.247   0.939  15.668  0.0741  0.1571  0.2383
23786W        W39680   0.125   4.563  15.531  0.2194  0.2974  0.2099
23787W        W39681  13.143   7.183   5.548  0.0621  0.1199 -0.0564
23788W        W39682   2.873   3.808  16.768  0.0903  0.2271  0.0128
23789W        W39683  11.091  15.421  13.663 -0.0578 -0.2361 -0.2575
23790W        W39684   3.994   0.859   4.436 -0.3516 -0.1151 -0.1515
23791W        W39685  16.965  17.262   4.823  0.4512 -0.0667 -0.0273
23792W        W39686   0.634  10.079   5.527 -0.2852  0.1941 -0.0430
23793W        W39687  14.648   3.665  13.596  0.0487 -0.1181 -0.0167
23794W        W39688   1.272   4.331   1.602  0.1024  0.1556  0.3922
23795W        W39689   2.850  15.132  12.163  0.1831  0.0190 -0.0224
23796W        W39690   1.810  16.293  16.256 -0.1473 -0.2883  0.3701
23797W        W39691  15.075   5.241   3.217 -0.1741 -0.0425 -0.1786
23798W        W39692  16.039   1.736   1.640 -0.0417  0.2221 -0.0990
23799W        W39693  12.477  16.238   0.738 -0.0666 -0.1952 -0.0830
23800W        W39694  15.538   4.151  16.340 -0.3548  0.0204  0.5733
23801W        W39695   0.262   4.487   3.055 -0.1842  0.0019  0.0436
23802W        W39696  15.235   7.242  16.631 -0.1901 -0.0267  0.0771
23803W        W39697  11.389  13.613  16.587 -0.0354  0.3371 -0.1299
23804W        W39698   5.844   4.587   6.501 -0.0626  0.1290 -0.0386
23805W        W39699  15.764   2.134   5.470  0.1861 -0.0165  0.1532
23806W        W39700  13.677  10.956   0.335 -0.0848 -0.4582 -0.0658
23807W        W39701  16.213   9.255   1.141 -0.1807 -0.0118  0.3279
23808W        W39702   0.290  16.156   4.646 -0.1921 -0.0398 -0.0023
23809W        W39703  10.703  17.392  12.146  0.1510 -0.1503  0.1888
23810W        W39704  10.610  16.817  15.462 -0.1477 -0.0119  0.0906
23811W        W39705  10.059   4.710  14.513 -0.2033 -0.0282 -0.2219
23812W        W39706  12.234  13.098   1.874 -0.1079 -0.0420  0.2497
23813W        W39707  14.463   9.510   2.950 -0.0637  0.0829  0.1856
23814W        W39708   2.970   9.475   4.021  0.0800 -0.0854 -0.0658
23815W        W39709   3.115  13.152   4.620  0.1362  0.1375  0.1742
23816W        W39710  11.270   4.663  12.776 -0.0615 -0.0548 -0.1431
23817W        W39711   9.004   1.659   1.130  0.3932  0.3547 -0.2130
23818W        W39712   7.304   6.771  15.960 -0.4873 -0.1271  0.0912
23819W        W39713   6.703  13.554  14.304  0.2750 -0.1223  0.0958
23820W        W39714  11.132  12.024   0.277 -0.0129  0.0503  0.2166
23821W        W39715   2.231  15.746  14.915  0.0679 -0.1245  0.0766
23822W        W39716  16.965  12.274  15.879  0.0964  0.1901 -0.4857
23823W        W39717   9.430   0.349   6.066 -0.0510  0.1829  0.0266
23824W        W39718   3.733  14.938  16.331  0.0558  0.1993  0.1020
23825W        W39719   9.663   6.459  13.576  0.0115 -0.3614 -0.0494
23826W        W39720  10.674   2.709  13.790 -0.0242  0.4700  0.1327
23827W        W39721   3.318   0.830  15.723  0.3662  0.1619  0.0914
23828W        W39722   5.645   8.092   4.057 -0.0982 -0.3310 -0.1000
23829W        W39723   8.469  17.511   5.484 -0.0601  0.2812 -0.0458
23830W        W39724  14.896  12.928   6.167  0.0773 -0.0159 -0.0202
23831W        W39725  12.141  13.769  16.022 -0.1670 -0.1542 -0.0041
23832W        W39726  12.122  12.702   4.041  0.1071  0.0147 -0.0048
23833W        W39727  16.703   7.365  14.466  0.2650 -0.0497 -0.2902
23834W        W39728  14.234  15.012   2.948  0.4066 -0.2946  0.1307
23835W        W39729  14.263  14.567   4.527 -0.2181  0.0493 -0.1658
23836W        W39730  15.766  15.195  14.140 -0.2293 -0.0542  0.2857
23837W        W39731  11.864   3.018  13.309 -0.1017  0.0818  0.0800
23838W        W39732   4.910  12.074   5.398  0.1590 -0.2463 -0.0172
23839W        W39733   2.779  15.990  14.530 -0.2906 -0.1358 -0.3765
23840W        W39734   1.736  15.175   6.099  0.1824  0.0544  0.0941
23841W        W39735   7.399  10.933  14.698  0.0073  0.0370 -0.0061
23842W        W39736   6.013  11.302   2.041 -0.0947  0.0390 -0.2213
23843W        W39737   0.131  16.722  11.797 -0.1162  0.0580  0.0449
23844W        W39738   7.958   0.957  14.327  0.0167 -0.1944 -0.3054
23845W        W39739   3.508  14.669   5.785  0.0244  0.0222  0.0325
23846W        W39740   4.161  16.599   0.738 -0.3149 -0.0189 -0.1983
23847W        W39741  15.411   0.824   5.341 -0.2068  0.1916 -0.0562
23848W        W39742  16.806  16.696   1.917  0.1942  0.4003  0.3137
23849W        W39743  14.283   5.606  12.462 -0.2727  0.2177 -0.1448
23850W        W39744   4.992   6.952   3.481  0.5776 -0.0686  0.1813
23851W        W39745   9.557   5.981   1.757 -0.3273 -0.0304  0.3604
23852W        W39746   2.550   3.803  12.400 -0.0281 -0.0499 -0.1255
23853W        W39747   5.178   6.393  11.622 -0.1618  0.0402 -0.2878
23854W        W39748   1.080   4.815   1.540 -0.0141  0.0602 -0.0988
23855W        W39749  15.480   7.859  14.939 -0.0925  0.1439  0.0124
23856W        W39750  13.944  12.916  15.881 -0.0316 -0.0374  0.2300
23857W        W39751   1.335   9.342  12.755  0.1034 -0.1666  0.3144
23858W        W39752  13.497   7.694  15.546 -0.0951  0.0053 -0.2539
23859W        W39753   5.094   8.553   3.461  0.2447 -0.0571  0.2581
23860W        W39754  16.362   3.231   0.741 -0.0585  0.1294  0.2249
23861W        W39755  17.812   1.259  12.784  0.0704 -0.3052 -0.2137
23862W        W39756  13.669   9.552   1.012  0.0180 -0.2015  0.0966
23863W        W39757  14.917   3.551   5.517  0.1238  0.0235  0.2056
23864W        W39758  17.841  10.821   5.015  0.0306  0.2012 -0.2325
23865W        W39759   6.592  12.204  15.911 -0.4028  0.1132 -0.0134
23866W        W39760  14.439  10.859   4.727  0.2267  0.1493  0.0912
23867W        W39761  11.602   7.676  13.886  0.1637 -0.0708 -0.3273
23868W        W39762   2.071   0.948  12.374 -0.2720 -0.3818 -0.0315
23869W        W39763  14.143  10.350  15.269  0.3673  0.1031 -0.0059
23870W        W39764  17.332   0.663   5.012  0.1404 -0.3129  0.0532
23871W        W39765   6.964  15.865   1.951  0.0184  0.2241 -0.0266
23872W        W39766   2.501  16.584   4.580  0.2137  0.1196 -0.1606
23873W        W39767  10.524  15.930   1.691 -0.0503  0.2812 -0.0668
23874W        W39768   6.022   5.989   0.733 -0.1298 -0.0246  0.1513
23875W        W39769   8.161   9.626  14.365 -0.0356  0.2800 -0.1125
23876W        W39770   0.163   9.393   4.463  0.3091  0.0695 -0.0281
23877W        W39771  11.477   7.174   6.589  0.0255 -0.0541 -0.0589
23878W        W39772  13.018   6.361   1.249 -0.2273 -0.2383  0.0232
23879W        W39773   2.672   7.164   0.049  0.0222  0.3673  0.1214
23880W        W39774   2.079   5.118  13.432 -0.1064 -0.2068 -0.3502
23881W        W39775  14.842   3.538  12.618  0.0474 -0.0837 -0.4443
23882W        W39776   4.910   9.541   0.386  0.2092  0.3556  0.1081
23883W        W39777   2.380   7.314   4.440 -0.0784  0.1743  0.5459
23884W        W39778  14.608   7.624  16.222 -0.1205 -0.3184  0.0489
23885W        W39779  10.045  12.177  12.755  0.0046 -0.0655 -0.1064
23886W        W39780  12.169   1.806   1.944  0.1055  0.1161 -0.1175
23887W        W39781  16.574  12.819   0.740  0.0596 -0.0463 -0.1692
23888W        W39782   5.502   9.484   5.544 -0.1099  0.1830  0.1617
23889W        W39783  10.108  11.477   5.344 -0.2282  0.1276  0.0817
23890W        W39784   5.614   7.595   1.642 -0.1024  0.1190 -0.0877
23891W        W39785  14.089   5.776   0.749 -0.3323  0.1442  0.0165
23892W        W39786   3.506   7.919   1.121 -0.0396  0.0019 -0.2142
23893W        W39787   9.228   4.799  14.667 -0.1619  0.1279  0.2389
23894W        W39788   1.573   4.178   2.582 -0.2312 -0.1775 -0.1062
23895W        W39789   9.102   6.498  16.363  0.0071  0.0891  0.1655
23896W        W39790  14.464   1.027   2.664  0.1034  0.2986 -0.0952
23897W        W39791   0.485   8.804   2.320 -0.1699  0.1649 -0.0561
23898W        W39792   1.144   9.660  12.421  0.0811  0.0381 -0.0760
23899W        W39793   7.750  14.382  14.583  0.0318 -0.1069 -0.0965
23900W        W39794   9.779  17.533   4.116  0.1374  0.0211 -0.1698
23901W        W39795  12.719  12.639   2.841  0.1955  0.0213 -0.2047
23902W        W39796   1.919   2.643   5.287 -0.1441 -0.0379  0.0124
23903W        W39797  13.838  10.809  16.669 -0.1694  0.3668 -0.1451
23904W        W39798  17.788   5.693   1.720 -0.2466 -0.2891 -0.0244
23905W        W39799  13.536   1.541  12.014 -0.0844  0.1474 -0.2590
23906W        W39800   0.014   6.618  15.896 -0.0764  0.1401  0.0052
23907W        W39801   8.936  17.176   4.179  0.3868  0.0354  0.0986
23908W        W39802  17.579   2.566   0.181 -0.0402 -0.0350  0.2612
23909W        W39803  13.419   6.511  11.492 -0.0219  0.0176  0.1566
23910W        W39804  16.546   3.969   2.264 -0.1560  0.0225 -0.2078
23911W        W39805  10.393   0.889   5.378 -0.4500  0.0781  0.0186
23912W        W39806  13.837  15.970  12.304 -0.4342  0.1437 -0.2234
23913W        W39807  11.221  14.236  13.311  0.2271  0.0869 -0.0188
23914W        W39808  10.530   1.684   2.760  0.2307  0.3101 -0.0356
23915W        W39809  10.597   5.211   3.531  0.0080 -0.2524 -0.1914
23916W        W39810  16.557  10.863  13.934 -0.1645  0.3504  0.0157
23917W        W39811   2.836   5.700   3.937  0.4054 -0.1396 -0.1726
23918W        W39812  16.984  11.983  15.427  0.1964 -0.1307  0.0788
23919W        W39813  14.121  16.004   0.478  0.3807  0.0884 -0.1547
23920W        W39814   9.528   2.374  14.576  0.0594 -0.0992  0.0332
23921W        W39815   3.982   9.774  13.184  0.3672 -0.2344 -0.0056
23922W        W39816  11.593  14.722   4.551 -0.1067 -0.1523  0.2153
23923W        W39817  17.565   9.775  12.254 -0.4586 -0.2915 -0.2851
23924W        W39818   1.852  16.501   1.929  0.1201 -0.0840 -0.1578
23925W        W39819  14.712   7.220  13.600 -0.0470  0.2525  0.1592
23926W        W39820   3.597   9.129   2.521  0.1690 -0.1319  0.1267
23927W        W39821   2.961   8.112   2.908 -0.2178  0.3239 -0.0671
23928W        W39822   9.663   3.648  12.036 -0.3662 -0.0220 -0.1171
23929W        W39823   9.285   1.068  15.769  0.0796 -0.0503  0.1417
23930W        W39824  16.852   1.982  15.439 -0.1823 -0.1174  0.2135
23931W        W39825   1.021   5.965   4.344  0.2959 -0.0841 -0.1566
23932W        W39826  10.526   6.642  11.763  0.1214 -0.0032  0.1248
23933W        W39827   6.018  14.665   4.770 -0.1848 -0.1835 -0.5549
23934W        W39828  13.522  10.983  13.353  0.0461  0.1015  0.1022
23935W        W39829  15.432  10.895  12.522 -0.1930 -0.0447 -0.4137
23936W        W39830  16.739   5.552   2.830 -0.1195 -0.3168 -0.0938
23937W        W39831  10.596   6.174   4.461 -0.2225 -0.2273 -0.0276
23938W        W39832   3.738   8.303  13.129  0.2183 -0.1636  0.0195
23939W        W39833   7.456   5.713   0.229 -0.0780  0.0726 -0.0439
23940W        W39834   8.458   5.347   0.051 -0.2209  0.0557  0.3120
23941W        W39835  15.327   5.912   2.660 -0.0795 -0.1245 -0.2648
23942W        W39836   8.987   7.158   1.010  0.0919 -0.3235  0.3303
23943W        W39837  15.366  11.695   2.960 -0.1854  0.1461  0.0494
23944W        W39838   4.777   7.899  11.561 -0.2126 -0.2627  0.0987
23945W        W39839   9.223   1.413   5.205 -0.5207 -0.2152 -0.3119
23946W        W39840   2.590   4.973   1.759  0.0390 -0.1353 -0.3880
23947W        W39841  16.474   2.911   4.394  0.3145 -0.1010  0.0993
23948W        W39842   5.086   0.418  13.001 -0.0721 -0.3616  0.2560
23949W        W39843  11.670   1.427  16.144 -0.2039  0.1507  0.0928
23950W        W39844  17.169   8.325  11.853 -0.2735  0.1799 -0.1257
23951W        W39845   5.475  14.987   5.202  0.0593 -0.2870  0.0073
23952W        W39846  16.099   2.749  13.917  0.2041 -0.0338 -0.0247
23953W        W39847   2.842  11.181  15.480  0.1800  0.1801 -0.3457
23954W        W39848   5.126   6.034  12.394  0.2314 -0.0768 -0.1502
23955W        W39849  10.442  14.410  15.319  0.0313 -0.0082 -0.2738
23956W        W39850   9.698  13.085  13.807  0.1906  0.3452 -0.0122
23957W        W39851   9.420   8.042   4.762 -0.3219 -0.2780 -0.1316
23958W        W39852  14.463  12.505  15.002  0.1230  0.2207 -0.0297
23959W        W39853  12.603  17.088  13.905 -0.0048 -0.0531 -0.3294
23960W        W39854  14.279   1.280   3.088 -0.3629 -0.0662  0.5069
23961W        W39855   8.824  11.671   0.067  0.4212 -0.0407  0.0538
23962W        W39856   3.758  13.286  15.655  0.1468 -0.1567  0.0985
23963W        W39857   0.012  14.409   6.572  0.0880  0.0207  0.1942
23964W        W39858   9.825  10.454  13.917 -0.2968 -0.0192  0.3606
23965W        W39859   3.595  11.828   2.074 -0.2124  0.1412  0.0520
23966W        W39860  11.353   4.233   1.700  0.3338 -0.1563  0.0265
23967W        W39861   3.213   5.233  16.827 -0.0880  0.3856 -0.1947
23968W        W39862   8.722   0.415  15.584  0.0349  0.0226  0.1082
23969W        W39863  10.381   3.222   5.835  0.1523  0.0793  0.4047
23970W        W39864  10.254  14.715  12.421  0.1663  0.1690 -0.0671
23971W        W39865  11.987   5.387   3.888  0.3646  0.2059 -0.1666
23972W        W39866   0.209  16.680   3.429  0.1604  0.2233 -0.1089
23973W        W39867  12.586  12.971   5.654 -0.3183  0.1329  0.1179
23974W        W39868   3.055  15.330   2.115 -0.0808 -0.0006 -0.0551
23975W        W39869  12.229  13.447   2.184 -0.1832  0.2801 -0.1388
23976W        W39870  10.713  10.528  13.434 -0.0230  0.0054  0.0709
23977W        W39871  10.990  14.123  12.450 -0.0893 -0.0825  0.2590
23978W        W39872   5.267   5.843  16.562 -0.0761  0.2703 -0.1577
23979W        W39873  15.854  10.326  16.172  0.0252  0.1002 -0.1439
23980W        W39874   7.314  13.239   2.600 -0.0107  0.1179  0.2137
23981W        W39875  12.638   0.552   1.780  0.3170  0.1145  0.2092
23982W        W39876  16.679   0.944   3.183 -0.1933  0.0701 -0.1563
23983W        W39877  15.492   2.283  15.977 -0.2085 -0.0247 -0.0059
23984W        W39878  11.093   7.984  14.293 -0.0342 -0.0611  0.1279
23985W        W39879   4.037   4.913  14.650 -0.0892 -0.4718 -0.3281
23986W        W39880  15.085   5.680  12.839  0.2445  0.4633 -0.0817
23987W        W39881   5.695  13.059  13.803  0.1230 -0.3075  0.0261
23988W        W39882  12.074   1.193   2.432 -0.0801  0.0251  0.0044
23989W        W39883   2.251  14.634  15.511 -0.1224 -0.1972  0.0425
23990W        W39884   1.680   8.606  14.150  0.1049  0.0980 -0.2466
23991W        W39885   9.249   2.589  16.520 -0.1154 -0.0430 -0.2186
23992W        W39886   7.666   8.328  12.580 -0.0516  0.2434  0.0584
23993W        W39887   0.683  14.789   5.415 -0.0652 -0.2611  0.0687
23994W        W39888   2.953   2.280   2.558  0.1098 -0.0778  0.2212
23995W        W39889  12.509  11.952  13.865 -0.1370 -0.1371 -0.0174
23996W        W39890   4.268   7.484  15.932  0.2453 -0.1137 -0.2656
23997W        W39891  15.145   3.183  11.616 -0.1271 -0.0629 -0.3111
23998W        W39892   4.476  12.512  15.867  0.0274  0.0413 -0.0607
23999W        W39893   3.801  10.342   4.355  0.0455  0.0989 -0.0577
24000W        W39894  17.497   4.567  12.857  0.1567  0.2716 -0.2688
24001W        W39895  12.765  11.432  13.967  0.3479  0.2677  0.2548
24002W        W39896  15.165  12.174  16.735 -0.1159  0.1954 -0.1057
24003W        W39897   4.578  10.291  15.843 -0.0702 -0.2159  0.1536
24004W        W39898  12.734   5.016  13.546 -0.0219 -0.0556 -0.1699
24005W        W39899   3.690  12.559   2.998 -0.1794 -0.5136  0.0180
24006W        W39900   2.645   4.598   3.199 -0.2720 -0.1355  0.0449
24007W        W39901  16.293  17.466   3.560 -0.1636  0.0543  0.1340
24008W        W39902  11.594   6.485   4.346  0.0927  0.0959 -0.0501
24009W        W39903  14.002   4.706  10.896  0.1773 -0.1510  0.2470
24010W        W39904  17.623  16.263  12.749  0.0921  0.0675  0.1103
24011W        W39905  11.499  15.887  16.143  0.0547  0.3369 -0.1778
24012W        W39906  16.769  17.272   3.584 -0.0240 -0.1008 -0.0179
24013W        W39907  15.375  15.100  12.815 -0.3826 -0.1093 -0.0926
24014W        W39908   7.336   7.983  12.308  0.0223 -0.4852 -0.2624
24015W        W39909  15.552   7.076  11.703 -0.2203  0.2390 -0.0177
24016W        W39910  14.575   6.223  13.960 -0.1481  0.0328 -0.1412
24017W        W39911   5.751  12.505  12.314  0.0577  0.1893 -0.1749
24018W        W39912  11.174  17.431   4.497 -0.1559  0.0975  0.1689
24019W        W39913  13.261   5.610   5.452 -0.3603 -0.1345  0.1004
24020W        W39914   5.844   2.270  14.390  0.1860  0.2766  0.0217
24021W        W39915   1.556  13.564  15.286 -0.1898  0.0878  0.0467
24022W        W39916   1.659  12.291  14.574  0.1083 -0.0249  0.0500
24023W        W39917  10.147  11.415   0.352  0.0104 -0.1493  0.0338
24024W        W39918   5.316   4.667   1.830  0.0076  0.1786 -0.0769
24025W        W39919   8.787  16.605   2.433  0.0328 -0.3615  0.3328
24026W        W39920  11.957  16.608  16.515  0.1681  0.2384 -0.0954
24027W        W39921   5.018  14.069   4.076  0.0754  0.2152  0.0554
24028W        W39922  13.231  16.101   0.377 -0.1369  0.0870 -0.4315
24029W        W39923   4.178   7.892   4.418 -0.1061 -0.2331  0.2033
24030W        W39924   1.017   0.098   0.755 -0.1801 -0.2698 -0.2803
24031W        W39925   5.630   7.592  11.993 -0.2055 -0.0565  0.1879
24032W        W39926  10.679   7.543  13.722 -0.4139 -0.0396  0.3885
24033W        W39927  11.353  15.436  16.141  0.1147  0.1333 -0.0717
24034W        W39928  11.763   6.594   2.149 -0.0592 -0.1141 -0.1365
24035W        W39929  14.605  11.350   4.796  0.2102  0.0260  0.1902
24036W        W39930   7.938   8.227  16.475  0.2459  0.1300  0.0416
24037W        W39931   9.631   3.259  16.143 -0.0687 -0.1437 -0.1772
24038W        W39932   1.318   8.285  11.680  0.0166 -0.1140 -0.1443
24039W        W39933  12.241  17.080  15.355  0.0688 -0.1072 -0.0959
24040W        W39934   8.838  13.956  15.064 -0.0079  0.0149  0.2544
24041W        W39935  15.153  11.548   5.619 -0.1403  0.0782  0.0490
24042W        W39936  15.378   7.370  11.314 -0.1408  0.1934 -0.2757
24043W        W39937   6.894   0.048  16.424  0.0180 -0.2065 -0.1029
24044W        W39938  14.937  12.423  13.416 -0.0486  0.0106 -0.0094
24045W        W39939  11.230  17.355   3.516  0.0504 -0.0092 -0.1155
24046W        W39940   8.271   6.835   4.216 -0.1904  0.0985 -0.0237
24047W        W39941   0.642  12.492   0.370  0.2312  0.1649  0.0211
24048W        W39942   0.268   6.479   3.440  0.1143  0.0210  0.1483
24049W        W39943  10.456   4.948  14.613  0.2176  0.2113 -0.1733
24050W        W39944   9.209  16.052  16.607 -0.0738  0.1916 -0.2452
24051W        W39945   9.213   6.510  16.867 -0.1479 -0.2757 -0.0563
24052W        W39946   9.620   0.271  13.328  0.2534 -0.1801  0.1014
24053W        W39947   7.048   1.824   4.403 -0.1605 -0.2006  0.2874
24054W        W39948   2.627   9.360  14.795 -0.3032  0.1461  0.0217
24055W        W39949   1.306  12.593  15.461  0.0031  0.0235  0.0533
24056W        W39950   8.373   6.463   1.502  0.0701 -0.1145  0.0378
24057W        W39951  15.259   8.792  16.856  0.0664 -0.0423  0.1040
24058W        W39952   9.462   0.206  14.309 -0.1561 -0.2326 -0.2183
24059W        W39953   2.716   8.850  14.885 -0.1343 -0.0019 -0.0780
24060W        W39954  17.173  13.472   3.671 -0.0239 -0.4362 -0.1986
24061W        W39955  15.068   5.617  16.500  0.2863  0.1851  0.2635
24062W        W39956  15.522  10.748  12.035 -0.3304  0.1036  0.1543
24063W        W39957  17.514  13.513  13.277  0.3393 -0.1632 -0.0480
24064W        W39958  17.470   4.356  13.545  0.3229  0.0601 -0.0515
24065W        W39959   2.221   1.026  14.190 -0.1026  0.1189 -0.0470
24066W        W39960  13.508   3.072  15.035  0.2069 -0.0400  0.3333
24067W        W39961   4.962  10.949   1.433 -0.0781  0.0400  0.3114
24068W        W39962  16.639   5.538  12.346 -0.0994  0.2967 -0.0483
24069W        W39963   1.298  15.262   5.851 -0.1143 -0.0216  0.0152
24070W        W39964   5.616  11.103  13.542  0.0216  0.1376 -0.0340
24071W        W39965  17.542   7.477   2.220 -0.2278 -0.0984 -0.1235
24072W        W39966   8.470  14.279  13.404  0.0051  0.1734 -0.0472
24073W        W39967  14.933   7.288   3.046 -0.1250 -0.1560 -0.2792
24074W        W39968   1.137  13.393   0.128  0.2906 -0.2251 -0.2822
24075W        W39969   1.394  15.261   4.850 -0.2681  0.3886 -0.1889
24076W        W39970  12.737   4.818   3.813 -0.1029 -0.0277  0.1665
24077W        W39971   7.116   7.120   1.093 -0.1788  0.1285 -0.0477
24078W        W39972  17.114   2.929  15.029 -0.1879  0.2562  0.0656
24079W        W39973   2.082   9.202  14.827 -0.0025  0.0058 -0.3220
24080W        W39974  17.373   4.871   3.776  0.0976  0.1637  0.0727
24081W        W39975  14.691  10.873  16.139  0.0483 -0.1010 -0.1580
24082W        W39976   8.486  11.846   1.421  0.1551 -0.4418  0.3732
24083W        W39977  13.439  15.224   4.296 -0.2535  0.4413 -0.0658
24084W        W39978   6.574   9.417  15.886  0.0987  0.1611  0.2038
24085W        W39979   4.281  11.150   3.450  0.1053  0.2449 -0.1595
24086W        W39980   0.958   0.464  16.861 -0.1949  0.0012 -0.1865
24087W        W39981   3.769  12.138   0.921 -0.0442  0.2222 -0.1800
24088W        W39982  11.030   9.841  14.936  0.1581 -0.0112  0.1031
24089W        W39983  13.334  16.674  14.575  0.1938 -0.0812 -0.1372
24090W        W39984  13.373   1.056  16.127  0.1018 -0.2259 -0.0593
24091W        W39985   8.281  15.985  16.241 -0.3040  0.3029  0.2431
24092W        W39986  14.026  15.524   0.569 -0.4014 -0.3047 -0.2979
24093W        W39987   3.965  15.799   2.915  0.0314 -0.1471  0.0374
24094W        W39988  15.024  10.894  16.586  0.0281  0.3597  0.2753
24095W        W39989   8.943  13.004  13.541 -0.2302 -0.0342  0.1212
24096W        W39990  17.218   0.209  16.292 -0.1691  0.2104  0.4384
24097W        W39991  14.186  17.225   2.664  0.0824  0.0709 -0.2237
24098W        W39992  10.399   7.402   2.883 -0.2377 -0.0554 -0.5536
24099W        W39993   1.638  14.957  14.011  0.1942 -0.1492 -0.1224
24100W        W39994  17.684   6.030  15.284  0.0436 -0.2339 -0.2810
24101W        W39995  14.966  16.545   3.692 -0.0719  0.0363 -0.1050
24102W        W39996  12.505   2.585   3.299  0.0292  0.2897  0.1860
24103W        W39997  17.095  14.874   5.446 -0.0128  0.0255 -0.1584
24104W        W39998   9.201   9.731  14.555  0.0201  0.1388 -0.0351
24105W        W39999  10.415   5.780   4.838  0.2277 -0.0466 -0.2296
24106W        W40000  10.328  10.240  14.919 -0.1161  0.1078 -0.3912
24107W        W40001   7.477  14.324  13.423 -0.0058 -0.0718  0.2607
24108W        W40002   4.600  16.930   1.241 -0.2348 -0.2239 -0.0720
24109W        W40003   7.903   1.570  15.641 -0.0507  0.1460 -0.2104
24110W        W40004  15.073   6.382  15.438 -0.0562 -0.1765  0.2189
24111W        W40005  13.321   5.075   3.612 -0.3616 -0.1048  0.0039
24112W        W40006   9.198  12.616   5.958  0.0332  0.0893 -0.1285
24113W        W40007   8.145   6.891   1.964  0.1305  0.1199 -0.0678
24114W        W40008  15.108   5.106  12.936 -0.2709  0.1038 -0.4432
24115W        W40009   5.217   9.184  13.969 -0.0392 -0.0841 -0.1151
24116W        W40010  10.398   9.823  12.384  0.0037 -0.1989 -0.0233
24117W        W40011  12.996  10.041  15.782  0.1628  0.1128  0.4307
24118W        W40012   2.836   0.047   0.772 -0.1026 -0.0928  0.0211
24119W        W40013   1.791  14.620   0.505 -0.1391 -0.2278  0.0824
24120W        W40014  14.934  13.567   5.211 -0.0886  0.3592  0.1006
24121W        W40015  14.774   8.880   1.833 -0.1771  0.1128  0.0381
24122W        W40016   2.414  10.554   4.670  0.2431 -0.2867  0.0014
24123W        W40017   5.245  10.917  10.857 -0.2892  0.0236 -0.0731
24124W        W40018  12.576   9.349   0.523 -0.0141  0.0531 -0.1292
24125W        W40019  17.819   8.648   3.725  0.1067 -0.4348  0.4245
24126W        W40020   3.894  16.822   4.071 -0.3541  0.1660 -0.2382
24127W        W40021   2.466  14.646   5.080 -0.2164  0.3148 -0.1692
24128W        W40022   4.302   2.504   3.133 -0.3645 -0.1508  0.0331
24129W        W40023  17.139   6.212   0.337 -0.0761  0.0850  0.1078
24130W        W40024  12.483  10.914  16.838  0.0952  0.0302 -0.0501
24131W        W40025   2.502   8.932  11.293 -0.0083 -0.1806  0.2292
24132W        W40026   4.088   7.496   5.443 -0.0158 -0.4561  0.1704
24133W        W40027  10.723  13.339   2.017  0.0401  0.2266 -0.0086
24134W        W40028   7.639  10.380  13.395  0.1888 -0.0691 -0.0064
24135W        W40029   1.336  10.052  14.689  0.0355  0.2806 -0.1615
24136W        W40030   5.026  11.854  13.755  0.1065  0.2634  0.1889
24137W        W40031   7.539   8.529  16.299  0.0444 -0.1822  0.1191
24138W        W40032  17.840   9.667   1.500  0.1742  0.1858  0.0745
24139W        W40033  10.271   2.531  12.545 -0.1716 -0.1932  0.0410
24140W        W40034  12.618   2.499  16.384  0.1353  0.5455  0.1113
24141W        W40035   1.265  12.191  10.732  0.0963  0.0607 -0.0370
24142W        W40036   7.332   0.313   3.046 -0.0196  0.2046  0.2771
24143W        W40037   3.074  15.575  16.579  0.1558  0.1715 -0.2217
24144W        W40038   8.628  16.865  12.727 -0.0589  0.1054  0.2943
24145W        W40039  13.086  13.219  12.143  0.1500 -0.1890 -0.0309
24146W        W40040   6.564  11.586  12.008 -0.0100  0.0143 -0.2995
24147W        W40041   9.134   6.640  13.642 -0.4371  0.0783 -0.0050
24148W        W40042   8.981  12.043   2.647 -0.1462  0.1149 -0.3363
24149W        W40043   3.113  12.224   1.363 -0.3112 -0.2225 -0.1323
24150W        W40044  15.561  16.782   3.049 -0.1669  0.3660  0.0284
24151W        W40045  16.060   9.333   2.545  0.0618 -0.2568  0.1772
24152W        W40046   4.983   2.678  14.430 -0.0540  0.1894  0.2615
24153W        W40047   9.956   4.636  15.680  0.0752  0.0008 -0.1097
24154W        W40048   4.385   6.536   1.627 -0.2263  0.0230 -0.0806
24155W        W40049  17.696   9.678   2.977  0.1461 -0.0584 -0.1705
24156W        W40050  13.853   2.508  12.353 -0.1609  0.2795  0.3108
24157W        W40051   3.367  11.832   2.829 -0.0804  0.0013 -0.2098
24158W        W40052  14.480   3.159   2.502 -0.0106 -0.1421  0.1106
24159W        W40053   7.420  11.178   0.062  0.1477 -0.1673  0.0223
24160W        W40054  12.649   4.894  11.154  0.1868  0.0878 -0.2746
24161W        W40055   4.482  13.961   5.283 -0.1880  0.2695  0.1070
24162W        W40056  15.510   6.736  12.169 -0.0450  0.1513 -0.1191
24163W        W40057   2.587  17.687   3.135  0.4511  0.1431 -0.1619
24164W        W40058  14.720   9.305  15.373 -0.1447  0.1795 -0.1410
24165W        W40059   0.120  15.992  14.546 -0.1278 -0.0394 -0.1169
24166W        W40060  11.460   5.840  13.226 -0.1045 -0.2771  0.0047
24167W        W40061   2.065   0.846   4.166 -0.1817 -0.1664 -0.0366
24168W        W40062  11.363   1.633  14.146  0.1549  0.0694 -0.1387
24169W        W40063  13.009  12.734   3.265  0.1565 -0.0108 -0.0061
24170W        W40064  12.528  11.753  12.430 -0.0937 -0.5797 -0.0780
24171W        W40065   7.831  15.208   3.834  0.1541 -0.1779  0.1021
24172W        W40066   4.688   3.943  15.671  0.5106 -0.0128 -0.1217
24173W        W40067  13.010  13.321  12.882  0.0281  0.1942  0.2498
24174W        W40068  17.570   5.763   3.668 -0.0684  0.2368  0.0849
24175W        W40069   7.218  16.205  14.093  0.2224  0.2324 -0.1888
24176W        W40070   0.407   0.856   2.335  0.0614  0.1331 -0.1846
24177W        W40071   0.925  11.023   4.964  0.1388  0.1584 -0.1847
24178W        W40072   4.079  14.209   2.368  0.1903 -0.2821 -0.0499
24179W        W40073  17.843   8.083   2.277 -0.0031  0.2104 -0.0784
24180W        W40074   8.027   2.392   1.332 -0.1701  0.0988 -0.0146
24181W        W40075  12.175   8.293   4.510  0.0737  0.0017 -0.0469
24182W        W40076  14.276   9.435   0.650  0.0409  0.1942  0.3086
24183W        W40077   4.486   5.758   4.921 -0.1974  0.2631  0.0816
24184W        W40078  12.618  10.326  16.604 -0.2275 -0.1473  0.2348
24185W        W40079   2.601   1.267  16.010  0.1606  0.2156 -0.0505
24186W        W40080  12.596  11.449   1.602 -0.0781 -0.1153 -0.0579
24187W        W40081   4.638   9.134  13.086  0.0744  0.0384 -0.4629
24188W        W40082   8.695  16.546   5.904 -0.0844 -0.1157 -0.0960
24189W        W40083   3.310  16.118  13.699 -0.0096  0.0622 -0.3249
24190W        W40084   7.024  17.260   0.365  0.2078  0.0301 -0.3910
24191W        W40085   3.723   3.070  12.569 -0.0954 -0.2143  0.0181
24192W        W40086   0.185   3.113  12.272 -0.1569 -0.2580 -0.0208
24193W        W40087  10.210   0.065   0.755 -0.1470  0.1560  0.0959
24194W        W40088  13.961   0.448  13.041  0.0853 -0.0495  0.0684
24195W        W40089   7.343  12.607  15.689 -0.2113 -0.0526 -0.0053
24196W        W40090  13.062   1.942  12.601 -0.0111 -0.2840  0.1056
24197W        W40091   0.059  12.433   4.414 -0.2802 -0.3501  0.1155
24198W        W40092  16.703   2.531  16.548  0.1958 -0.2510  0.0419
24199W        W40093  15.842   1.760   4.576  0.2029  0.0573  0.1808
24200W        W40094  16.055  10.913   3.083  0.0062  0.4733  0.2783
24201W        W40095   0.109   4.999   2.405  0.3469 -0.0506  0.1986
24202W        W40096   3.837   3.456   4.806 -0.1386 -0.0904 -0.1334
24203W        W40097   3.181   7.753  11.259  0.0105 -0.2003  0.0602
24204W        W40098   1.219   0.225   3.601  0.2965 -0.2618 -0.0515
24205W        W40099   9.771   0.452   2.864  0.4026  0.0306 -0.0882
24206W        W40100  10.122  13.923  15.456 -0.0286 -0.0280 -0.3174
24207W        W40101   5.066  12.546   1.859  0.1528  0.0930 -0.2897
24208W        W40102   7.080   4.926   4.340  0.2967 -0.4154 -0.0213
24209W        W40103  16.561   9.630  13.466 -0.0258  0.0404 -0.0147
24210W        W40104   6.049  12.835   2.118 -0.1731  0.0773 -0.0912
24211W        W40105   4.231  14.481  12.153 -0.2703  0.2002 -0.1310
24212W        W40106   9.364   7.597   3.870 -0.1422  0.0892  0.3078
24213W        W40107   7.098  14.698  13.631 -0.2981  0.1114 -0.1350
24214W        W40108   9.741   4.553   6.188  0.3269  0.0279  0.3600
24215W        W40109   1.794  16.623  11.338  0.0316 -0.0505 -0.1945
24216W        W40110  14.078   7.063   1.701  0.0682 -0.1505  0.1064
24217W        W40111   1.006  14.204   0.438 -0.1285 -0.1342 -0.2918
24218W        W40112   9.207  12.412  12.717  0.1195 -0.0384  0.0307
24219W        W40113   7.389  11.764   6.182 -0.1763  0.1079  0.1034
24220W        W40114  11.914   9.572  14.806 -0.0811 -0.1385  0.0409
24221W        W40115  11.879  14.467  12.012 -0.0312 -0.0287  0.2954
24222W        W40116   8.831   9.055   5.451  0.1165 -0.0543 -0.2262
24223W        W40117   0.030   7.121   5.220 -0.1855  0.5042 -0.0090
24224W        W40118   4.816   6.090  16.432  0.2459 -0.0437 -0.4289
24225W        W40119  12.579  11.606   0.594  0.0609  0.1556  0.3174
24226W        W40120  12.686   8.219   5.357 -0.2843  0.3228 -0.0421
24227W        W40121  16.931  14.914   4.826 -0.1125  0.0604 -0.0562
24228W        W40122  16.480  11.952   4.562  0.1914  0.2021 -0.2186
24229W        W40123  14.828  12.772   4.836 -0.0133 -0.1224  0.0918
24230W        W40124   5.690   9.253   2.577 -0.2158  0.0726  0.1898
24231W        W40125   4.421   1.902   1.526  0.1278  0.2700  0.1620
24232W        W40126  15.116   8.545   3.452 -0.3517  0.0622 -0.2113
24233W        W40127   0.864  16.130   1.798  0.3596  0.2123 -0.2327
24234W        W40128  12.703   0.163   4.122 -0.2397  0.0875  0.0883
24235W        W40129   7.528  17.174   2.634 -0.0316 -0.1591  0.0303
24236W        W40130   4.025   5.821   5.051 -0.0805 -0.0940 -0.0482
24237W        W40131   7.171   5.335   3.982 -0.0036  0.1838  0.3395
24238W        W40132  13.439  12.675   2.596  0.1185 -0.0598  0.4266
24239W        W40133  12.744   3.314   4.763 -0.0682  0.0367 -0.0806
24240W        W40134   0.486   6.308   5.143 -0.0481 -0.0576 -0.0445
24241W        W40135   1.133  14.102  12.201 -0.1873  0.0031 -0.0640
24242W        W40136  13.676   7.819   0.133 -0.3439 -0.2590 -0.0898
24243W        W40137   5.997  17.009  14.609 -0.0017  0.1169 -0.0338
24244W        W40138  12.116   6.335   4.204  0.2834  0.0110  0.0324
24245W        W40139  15.014  16.677  12.770  0.1924 -0.1601 -0.3580
24246W        W40140   7.829   2.508  14.509 -0.0897  0.2406 -0.1758
24247W        W40141  11.584   3.383  14.638  0.0993  0.2051  0.0499
24248W        W40142   4.386  11.985  12.395  0.4487  0.1609 -0.1144
24249W        W40143   7.461   7.690  14.024  0.3612  0.2180 -0.1134
24250W        W40144   3.082   0.709  10.110  0.0572  0.1823  0.2571
24251W        W40145   0.144  14.066   6.122  0.0577  0.0889 -0.2745
24252W        W40146  17.399   6.487  15.157 -0.4559  0.0043  0.0100
24253W        W40147   8.945   5.446   2.479 -0.3861 -0.0994  0.1698
24254W        W40148  11.654  11.202  10.937 -0.0323 -0.2375  0.4055
24255W        W40149   0.804  13.905   2.261  0.0015 -0.2345  0.2571
24256W        W40150  15.513  14.163   4.917  0.0887  0.1488 -0.0946
24257W        W40151   8.811   5.935  16.003 -0.0712 -0.0283 -0.2767
24258W        W40152  13.753  13.294   1.236 -0.0258 -0.2249 -0.0045
24259W        W40153  14.289   8.562   0.230  0.1806 -0.0043 -0.0584
24260W        W40154  15.183   5.096  13.516 -0.2536 -0.2669  0.3218
24261W        W40155  11.549   8.962  12.030  0.0791  0.0896  0.0919
24262W        W40156   7.865   2.969  16.038 -0.3512  0.2405 -0.0642
24263W        W40157  14.695  11.119   2.991 -0.0324 -0.1663  0.1915
24264W        W40158   9.547   1.646   2.140  0.2746  0.2156 -0.0219
24265W        W40159   2.229   9.567  15.576 -0.1140  0.0413 -0.0587
24266W        W40160  10.313  11.184  16.322 -0.0146 -0.0547  0.2643
24267W        W40161  14.846   5.628  13.714 -0.0618  0.0680  0.1403
24268W        W40162   1.167  13.246  16.202 -0.2014 -0.1804  0.0229
24269W        W40163  12.711   5.861  16.766 -0.2401  0.0822 -0.0525
24270W        W40164  17.384   1.772  14.129  0.0851 -0.2011 -0.0641
24271W        W40165   9.664  10.137   1.814 -0.1889 -0.1179 -0.0064
24272W        W40166  14.376   8.774  14.327  0.0252 -0.0943  0.0857
24273W        W40167   9.529  10.636  13.149  0.1569 -0.1938  0.3826
24274W        W40168  15.596  15.641   0.493  0.4069  0.2517 -0.0465
24275W        W40169   8.414  15.705  13.785 -0.0670 -0.1481 -0.1615
24276W        W40170  10.337   1.255   4.030  0.1091  0.0560 -0.3152
24277W        W40171   6.118  15.804  16.046 -0.1323  0.1024  0.2086
24278W        W40172   6.866   8.957   4.926 -0.0980  0.3817  0.3645
24279W        W40173   7.700   7.752  15.644 -0.0092  0.1908 -0.1326
24280W        W40174  15.961   6.578  16.838 -0.0347  0.1326 -0.3903
24281W        W40175  13.559   6.873   2.293  0.1831  0.1229 -0.2103
24282W        W40176  12.869   7.387  14.138 -0.0799 -0.0527 -0.0270
24283W        W40177   2.633  15.084  12.624 -0.3062 -0.0413  0.0121
24284W        W40178   0.860   8.737   5.588  0.2615  0.1436  0.1301
24285W        W40179   1.446  12.604   3.747 -0.1472 -0.1768 -0.1254
24286W        W40180   4.556  16.577  13.365 -0.0709  0.2260  0.0608
24287W        W40181   8.368   4.755   3.318 -0.2201  0.2826  0.0907
24288W        W40182   7.702   0.930  16.876 -0.2825  0.0444  0.4062
24289W        W40183  14.540   3.645   3.691 -0.0165 -0.1500 -0.0848
24290W        W40184  10.088   4.162   4.875 -0.2153  0.1296 -0.3509
24291W        W40185  17.848   4.944  16.867  0.0377 -0.1591  0.0045
24292W        W40186  11.893  17.338  14.329  0.1951 -0.0159  0.0715
24293W        W40187  13.796   8.605  14.190  0.1072 -0.1980  0.3344
24294W        W40188  11.843  12.705   4.756 -0.0976  0.1988 -0.0652
24295W        W40189  14.118   4.700   4.684  0.2569 -0.2151 -0.2539
24296W        W40190   2.307  17.049   2.602 -0.0768  0.1511  0.0677
24297W        W40191  15.351  16.353   0.198  0.0480 -0.0109 -0.0635
24298W        W40192  16.651  11.203  16.716 -0.3034  0.1363  0.0849
24299W        W40193   0.686   1.525  11.563 -0.3248  0.1148 -0.4503
24300W        W40194  16.882   2.875   2.388  0.0864  0.4711  0.1325
24301W        W40195   4.457  11.469   0.840 -0.0348  0.2130 -0.2284
24302W        W40196   9.974   7.203  12.463  0.1624 -0.3876 -0.2175
24303W        W40197  17.763   4.204   3.360 -0.0952  0.0880 -0.0057
24304W        W40198  17.271  15.350  11.104 -0.0481  0.2098  0.0497
24305W        W40199   5.080   0.543   5.032  0.0017  0.1415  0.0314
24306W        W40200  11.472   5.432   3.023 -0.1463 -0.0636  0.1748
24307W        W40201   6.173   8.189   5.022  0.0165 -0.2132  0.3379
24308W        W40202  13.425  13.053   3.170 -0.2313  0.1149 -0.2135
24309W        W40203   6.367  11.767   3.795  0.0873  0.2092 -0.4304
24310W        W40204  15.095  17.294  11.932  0.0658 -0.3352 -0.2743
24311W        W40205  11.652  10.357   5.155 -0.1025  0.0227 -0.1846
24312W        W40206   6.068   1.061   2.937  0.1443  0.2058  0.0979
24313W        W40207  16.469   0.934  12.529  0.1017  0.2546  0.1091
24314W        W40208   9.816  11.659  16.105  0.1302 -0.0144  0.2057
24315W        W40209   8.047   2.700  14.924  0.2724  0.0267 -0.0323
24316W        W40210  14.197  11.345   3.262  0.1289 -0.0714 -0.1573
24317W        W40211  11.775   9.509   5.428 -0.0395  0.0455 -0.1147
24318W        W40212  15.241   8.001   3.405 -0.2877  0.1266  0.3669
24319W        W40213  12.529  10.548   6.551 -0.2302 -0.1538 -0.1045
24320W        W40214  16.389  11.767  12.163 -0.0211  0.3496  0.1453
24321W        W40215   0.176   6.934  13.862  0.0949  0.2218 -0.0344
24322W        W40216  11.827   1.629   2.641  0.0906  0.1078 -0.1851
24323W        W40217   1.920  14.340  15.778  0.0787  0.0655  0.3366
24324W        W40218  16.540  12.880   6.145  0.0210  0.3520  0.0103
24325W        W40219   0.999  11.347  14.769 -0.1675  0.0949  0.0096
24326W        W40220   0.084   0.464   1.132 -0.1126 -0.0972  0.1023
24327W        W40221   2.625  10.984  16.428  0.1149 -0.1116  0.1845
24328W        W40222  11.303  11.802   1.091 -0.3799  0.0223  0.1369
24329W        W40223  14.724  17.356   1.538 -0.0991 -0.0283 -0.3760
24330W        W40224  13.182   3.938  11.799 -0.0628  0.0255 -0.1123
24331W        W40225  13.239   0.018  16.102  0.3457  0.0455 -0.1504
24332W        W40226  13.181  12.102   3.441 -0.2451 -0.1366 -0.0960
24333W        W40227  15.982   0.804   5.374  0.0002 -0.2039 -0.2738
24334W        W40228  15.883   9.931   5.521  0.1481 -0.1666  0.3074
24335W        W40229   9.263   1.465   2.603  0.3416  0.0409 -0.1653
24336W        W40230  13.091  12.671   1.619  0.3356  0.1042  0.2202
24337W        W40231   0.452   9.333   4.819 -0.2077  0.2012  0.0022
24338W        W40232  12.646  11.672   4.039 -0.4292  0.0699 -0.1052
24339W        W40233   8.053   8.076  13.375 -0.0656  0.1908  0.2593
24340W        W40234   4.496   9.381   4.244  0.2783 -0.0392  0.1613
24341W        W40235   5.077  12.884  14.393 -0.3162 -0.0517 -0.0124
24342W        W40236   9.989   6.071   4.532 -0.1958 -0.1372 -0.0171
24343W        W40237   1.035  14.501  15.999  0.2342  0.2850  0.1725
24344W        W40238  11.846  16.166   1.852 -0.2279 -0.3211 -0.0453
24345W        W40239  17.666  13.109   0.410  0.0460 -0.2160 -0.0960
24346W        W40240   1.232   7.439   2.772 -0.0870 -0.0362  0.3888
24347W        W40241   2.687  10.208   2.860  0.0240  0.1682  0.2384
24348W        W40242  16.951  16.858   0.799 -0.1412  0.2502  0.1375
24349W        W40243   8.084   1.513   5.242 -0.3900 -0.2076 -0.2229
24350W        W40244   7.576  10.181   2.639 -0.0659 -0.0451 -0.1196
24351W        W40245  16.534   7.484   0.980  0.0312 -0.0608  0.0001
24352W        W40246  13.280  16.710   2.274 -0.1659 -0.0313 -0.1330
24353W        W40247  10.719   6.683   4.597  0.1746  0.1341  0.0458
24354W        W40248  17.517  13.610  13.810 -0.1409  0.0450 -0.3379
24355W        W40249  12.949   0.894  16.360 -0.0757 -0.2544 -0.0433
24356W        W40250  13.553   7.116   3.752 -0.3299 -0.1638  0.0655
24357W        W40251   5.449  11.404   5.530  0.2790  0.2515  0.1001
24358W        W40252  12.865   5.024   4.578 -0.1588 -0.2341 -0.0655
24359W        W40253  17.761   0.808   1.411 -0.0887 -0.0155 -0.2956
24360W        W40254  13.137   5.575  16.031  0.3167  0.0550  0.1871
24361W        W40255   2.672   4.006  14.934 -0.3891  0.0223  0.0122
24362W        W40256  13.781  14.121   2.649 -0.0168 -0.2002  0.3048
24363W        W40257   8.685   7.787   2.139  0.0347  0.2945 -0.1860
24364W        W40258  14.766   1.671  15.551 -0.2296 -0.3013  0.2384
24365W        W40259   5.720   4.887   1.966 -0.1700 -0.1684  0.2605
24366W        W40260  14.071  14.964   4.772  0.1268 -0.0979 -0.1316
24367W        W40261  13.822   0.369  13.491 -0.1690  0.1090  0.0527
24368W        W40262  15.907  11.837   3.796 -0.1658  0.1759  0.1815
24369W        W40263   7.525   4.540  13.304  0.2322  0.0817  0.0247
24370W        W40264   8.082  13.036   1.979 -0.3221  0.0831 -0.3278
24371W        W40265  16.843   0.536  15.659 -0.0996 -0.0649 -0.2806
24372W        W40266   3.422   7.752  14.854  0.0731  0.0080  0.2238
24373W        W40267   1.325   8.721  13.709  0.0662 -0.2834 -0.1176
24374W        W40268  10.904   2.600   1.752 -0.0395 -0.1397  0.1231
24375W        W40269  12.453  15.136  11.745  0.2624  0.0772  0.2469
24376W        W40270   2.690   5.772   2.431  0.1749  0.2778  0.0383
24377W        W40271   5.892   4.521  16.290 -0.0496 -0.0368  0.2044
24378W        W40272   8.137   4.576   5.667 -0.3258  0.1169  0.1521
24379W        W40273   8.644  15.044   4.361 -0.1766  0.0184 -0.0526
24380W        W40274  16.862   7.729   4.506  0.0951 -0.0800 -0.0298
24381W        W40275   3.183  12.431   3.790  0.3273 -0.0332 -0.2656
24382W        W40276   3.404  17.000  13.569 -0.1239 -0.0471 -0.1108
24383W        W40277  10.153  12.351  11.820 -0.5344  0.2001 -0.1603
24384W        W40278   1.099   6.022   1.782  0.2556  0.2038  0.2971
24385W        W40279  12.949  12.193   2.977 -0.1691  0.1672 -0.3125
24386W        W40280   6.972   5.198   2.538 -0.3047 -0.1604  0.3252
24387W        W40281  17.655  15.050  15.555  0.1616 -0.0719  0.0687
24388W        W40282   9.611   7.069   1.013 -0.1269  0.2768 -0.0042
24389W        W40283   1.677  11.507   0.854  0.1750  0.0845  0.1558
24390W        W40284   8.017  16.551   2.317  0.2984 -0.0400 -0.2764
24391W        W40285  17.816  14.418  13.581  0.1982  0.3186  0.1872
24392W        W40286   5.371  16.147   4.456  0.2369  0.0153 -0.1291
24393W        W40287   3.969  10.804  14.253 -0.1239 -0.1927  0.0462
24394W        W40288   4.296  16.594  16.757 -0.0621 -0.1468 -0.1784
24395W        W40289   7.654  17.542   0.882  0.3929 -0.0861  0.4190
24396W        W40290   0.628   5.332  13.917 -0.1420  0.0462  0.0777
24397W        W40291   6.356   4.865  11.946  0.0224  0.3632 -0.1299
24398W        W40292   2.063  10.283  14.439 -0.0986 -0.1507  0.1266
24399W        W40293   7.608   4.651   2.784 -0.0456  0.3918 -0.0718
24400W        W40294   1.216  10.815   3.947  0.0034  0.0827  0.0532
24401W        W40295   2.699  15.944   0.314  0.1630  0.0043  0.1345
24402W        W40296   0.831   2.550   3.205 -0.0010 -0.1124  0.2062
24403W        W40297   8.285   3.113  15.806 -0.0034 -0.5213  0.1959
24404W        W40298   1.305   2.717   3.171 -0.0445  0.1691  0.1801
24405W        W40299   3.170  12.615  15.090  0.0058 -0.3202 -0.2592
24406W        W40300   2.361  11.571  14.304 -0.1605 -0.0994 -0.0018
24407W        W40301  11.313   7.481  15.751 -0.2492  0.1333 -0.2089
24408W        W40302  10.500  12.223   3.445  0.2671  0.0229 -0.3641
24409W        W40303   9.385  17.849   4.224 -0.0652 -0.1092  0.3520
24410W        W40304   3.699  10.459   0.439 -0.0508 -0.1175 -0.0542
24411W        W40305  17.834   8.408  16.188 -0.3344 -0.0298 -0.1875
24412W        W40306  10.329  10.936   0.467  0.1385 -0.0767 -0.1900
24413W        W40307   7.775  15.404   1.047  0.1352 -0.0695 -0.0097
24414W        W40308  11.347  13.969   0.120 -0.4576 -0.3337 -0.0360
24415W        W40309  12.431  10.368   3.563  0.0886 -0.1073 -0.0253
24416W        W40310   0.830   4.254   5.150 -0.0552  0.1689  0.0059
24417W        W40311   5.909   1.281  15.335 -0.0178  0.0426 -0.0733
24418W        W40312  15.805  16.212   3.121  0.0712  0.1151  0.0287
24419W        W40313   8.204   8.594  13.428  0.0744 -0.2188  0.0023
24420W        W40314   4.281  16.126  16.499 -0.0561  0.0574  0.1420
24421W        W40315   6.619   8.185   2.693  0.0232  0.1873 -0.0789
24422W        W40316   9.764   8.625  12.301 -0.1641  0.0043 -0.0278
24423W        W40317   8.610   1.213  13.206 -0.0067  0.2469  0.0585
24424W        W40318  12.044   1.449   0.109  0.0530 -0.1014 -0.0284
24425W        W40319   4.969   0.658   3.226  0.2005  0.1552 -0.0974
24426W        W40320  11.056  16.959   5.236 -0.0825  0.1405 -0.0953
24427W        W40321   9.736  13.907   4.865  0.0271 -0.0394  0.1959
24428W        W40322  14.622  17.102   2.525 -0.0077 -0.0741  0.1083
24429W        W40323  15.985   4.500   1.596  0.1158 -0.2470  0.3059
24430W        W40324  12.167  15.424   2.016 -0.2651 -0.2345  0.0185
24431W        W40325  13.092  16.593  12.113  0.0483 -0.0314  0.1111
24432W        W40326  11.134  15.601  16.897 -0.0192 -0.0566 -0.1978
24433W        W40327   2.834   6.782  13.094 -0.1659 -0.2079  0.1140
24434W        W40328  16.674  14.220   1.914 -0.1866 -0.1337  0.0301
24435W        W40329   9.996  12.152   3.570  0.0812 -0.0092  0.0550
24436W        W40330   7.394   1.142  13.544 -0.4244  0.1156 -0.0087
24437W        W40331  10.913   3.207  14.435 -0.1235  0.1672  0.1533
24438W        W40332  15.286  10.776  13.358 -0.0023  0.0161 -0.0835
24439W        W40333   7.060   1.363   5.224 -0.2670 -0.3589  0.2074
24440W        W40334  10.156   9.815   2.816  0.2952 -0.1886 -0.1483
24441W        W40335  11.473  13.084   1.556  0.2278 -0.1452  0.1485
24442W        W40336   0.471   3.607   0.909 -0.2425  0.0842  0.0586
24443W        W40337   9.165   1.105   3.292 -0.2648 -0.1006  0.3673
24444W        W40338   8.558   7.428   5.463  0.1828 -0.2121  0.0455
24445W        W40339   3.664  10.058  14.504 -0.0779  0.0691  0.3962
24446W        W40340  12.283   7.962  13.240  0.4469  0.0974 -0.2006
24447W        W40341  16.908  12.694   5.851  0.4878 -0.1017 -0.0925
24448W        W40342   3.435  11.019  14.225  0.0396 -0.1466  0.1392
24449W        W40343  11.560   5.341  14.907 -0.1755  0.0201 -0.2006
24450W        W40344   6.517   7.758  12.882 -0.0545 -0.0578 -0.2123
24451W        W40345   8.924   7.573  14.534 -0.1114  0.4022  0.2788
24452W        W40346   1.790   1.573   6.189 -0.2290  0.1495  0.1863
24453W        W40347  16.324   9.624   1.875  0.0731 -0.1567 -0.0141
24454W        W40348  17.630   3.547   1.025  0.0608  0.0962  0.0313
24455W        W40349  17.159  11.720   0.406  0.0292 -0.0646  0.2070
24456W        W40350   6.221   8.881  12.127 -0.3057 -0.1662  0.0638
24457W        W40351   6.003  14.542   0.809 -0.2678 -0.3379  0.2556
24458W        W40352  14.194  13.251  15.265 -0.3093 -0.0767 -0.3097
24459W        W40353   4.785   4.774  15.855 -0.0806 -0.0064  0.1337
24460W        W40354   5.743  12.262  15.475 -0.0283 -0.0929 -0.0576
24461W        W40355  10.712   1.215   3.664  0.1429  0.0928  0.1656
24462W        W40356   9.683   4.817   6.670  0.2116  0.0670  0.2236
24463W        W40357   9.352   6.290  13.938  0.0291  0.0948  0.1755
24464W        W40358  16.084  17.176  16.306 -0.2513  0.0142 -0.0866
24465W        W40359   6.317  11.418   2.402  0.0325 -0.2514  0.1326
24466W        W40360   6.506   2.383   4.052 -0.1942  0.0636 -0.0349
24467W        W40361   3.330  11.826   0.431 -0.3328 -0.3388  0.2648
24468W        W40362  16.351   9.392  12.932  0.0263  0.0936  0.0011
24469W        W40363  10.181   8.598   2.072  0.3808 -0.0940  0.0784
24470W        W40364   8.617  10.483   4.561  0.0178 -0.0327 -0.3865
24471W        W40365   7.791  11.327   4.622  0.0729 -0.1811 -0.0340
24472W        W40366   6.940   7.724   5.311  0.1669  0.0489  0.1309
24473W        W40367  10.028   1.391   2.462 -0.0963 -0.1867 -0.3582
24474W        W40368  15.714   9.424  12.490 -0.3617  0.1353 -0.0799
24475W        W40369   7.433   2.409   1.316  0.0361 -0.2651 -0.2443
24476W        W40370   9.390   4.664   3.963  0.2807 -0.0859 -0.0346
24477W        W40371  14.838  13.197  14.135 -0.0931 -0.2957  0.2557
24478W        W40372   2.273   7.748  13.527  0.2069  0.1734 -0.0501
24479W        W40373   7.763  10.819   4.375 -0.2166  0.1456 -0.0168
24480W        W40374   4.895  11.265  15.110  0.0940  0.0915 -0.2244
24481W        W40375  15.675  13.419  13.628 -0.2070 -0.2697 -0.0600
24482W        W40376   1.626   6.094   3.204  0.0063 -0.0022 -0.0622
24483W        W40377  14.868   4.840  14.403  0.4297 -0.3326  0.2948
24484W        W40378  12.035  15.162  12.529 -0.0848 -0.0815  0.2663
24485W        W40379   1.509   6.616   0.511 -0.1519  0.0360 -0.0460
24486W        W40380   6.450  16.022   4.893 -0.1473 -0.2594  0.0122
24487W        W40381   0.542   0.120   2.505 -0.0369 -0.2297 -0.0501
24488W        W40382  14.927  11.898  14.771  0.0478  0.1116  0.0246
24489W        W40383  14.724   4.011  12.515 -0.0607 -0.1254  0.1863
24490W        W40384   1.501   2.988   4.270  0.2874  0.0515 -0.0523
24491W        W40385   5.972  16.945  12.663  0.0133  0.3650 -0.0151
24492W        W40386  14.569   3.566  15.661  0.1642  0.0550  0.1987
24493W        W40387   2.847   4.560   0.499 -0.1209  0.3926 -0.0227
24494W        W40388   0.320  15.312   3.306 -0.1202  0.1196 -0.3780
24495W        W40389  13.873  11.930   1.190 -0.3137  0.0731 -0.2694
24496W        W40390  10.864   2.896   0.042 -0.2982  0.2068  0.2047
24497W        W40391  11.343   2.141  15.312 -0.3469  0.2091 -0.2240
24498W        W40392   2.897   3.424  15.636  0.0302  0.2115 -0.2406
24499W        W40393  14.453   2.739   0.233  0.1337 -0.0390  0.1519
24500W        W40394   3.575  11.985  12.005 -0.1163 -0.0088  0.0300
24501W        W40395   4.622   7.877  12.413 -0.0798  0.3858  0.2994
24502W        W40396   5.230  16.808  15.591 -0.2596 -0.0272 -0.3461
24503W        W40397  16.287  12.698  12.289  0.2241 -0.0075  0.1263
24504W        W40398   1.184   4.224   2.971  0.2792 -0.0971 -0.1793
24505W        W40399  16.977  16.492   2.912  0.0207  0.1958  0.2540
24506W        W40400  12.043   5.449  14.719 -0.3508  0.1625 -0.1142
24507W        W40401  12.296  12.364  16.009 -0.0093  0.2512 -0.2014
24508W        W40402   5.336   0.368  14.801  0.2615  0.1935 -0.3134
24509W        W40403  16.032   8.200   1.987  0.3796  0.0453  0.0548
24510W        W40404  13.325   8.087  13.008  0.1072 -0.0450 -0.0981
24511W        W40405   5.844   9.292   3.984 -0.1211  0.3612  0.0243
24512W        W40406  13.502   9.727  16.900 -0.0394 -0.1319  0.2765
24513W        W40407  10.170   8.608  16.339  0.1991  0.2128  0.1986
24514W        W40408   4.378   9.728  11.802  0.2070  0.1247 -0.0741
24515W        W40409  10.891   6.913   5.591  0.4981  0.2233  0.0614
24516W        W40410   0.894   6.281  14.297 -0.1956 -0.1739  0.0497
24517W        W40411   6.834   9.626   1.729  0.0408  0.0345 -0.0111
24518W        W40412  11.612   4.604  15.139  0.1609 -0.0241 -0.2021
24519W        W40413   4.986  14.141   4.643 -0.2775  0.2396  0.3390
24520W        W40414  13.362   0.433   0.035  0.1984 -0.1094  0.1624
24521W        W40415   0.751  11.416   4.671 -0.1537  0.0202  0.2023
24522W        W40416  15.937  11.955  14.930 -0.0959 -0.0332 -0.0937
24523W        W40417  10.816   4.961  11.591 -0.0455 -0.0629 -0.0357
24524W        W40418   9.755   9.310   3.671 -0.1406  0.1979 -0.0110
24525W        W40419  17.112  16.350   3.496 -0.2022 -0.1847  0.1429
24526W        W40420  10.879   0.989  14.666 -0.3724  0.2307 -0.0622
24527W        W40421   7.630  11.516  12.056  0.1757 -0.0510 -0.3596
24528W        W40422  12.790  11.440   2.610 -0.0554 -0.2125 -0.0731
24529W        W40423   0.842   2.106  14.243 -0.0448 -0.1508 -0.1314
24530W        W40424   9.005   4.040   4.749  0.3723 -0.0162  0.0757
24531W        W40425  13.510  13.953  14.092 -0.2300  0.2144 -0.0547
24532W        W40426   4.222  11.419   4.521 -0.4936 -0.2345 -0.2411
24533W        W40427   5.371  12.907  15.961 -0.3456 -0.0904  0.1203
24534W        W40428   5.681  16.531   2.019  0.0903 -0.2580 -0.1414
24535W        W40429  17.209  13.416  14.188 -0.0660 -0.0127  0.1645
24536W        W40430  16.012  14.366   3.935  0.2611 -0.1692  0.0139
24537W        W40431  15.076  10.105  13.696 -0.1985 -0.0780 -0.0744
24538W        W40432   9.292   8.795   5.484 -0.1153 -0.1104 -0.0344
24539W        W40433  13.138  11.232   1.018 -0.0796  0.0920 -0.1881
24540W        W40434  14.186  17.483  15.949  0.0264  0.2572  0.0031
24541W        W40435  10.928   3.730  14.432  0.1422  0.0824  0.0042
24542W        W40436  11.873  17.518  16.076  0.2144  0.1228  0.0689
24543W        W40437   3.734  15.451  13.515  0.1062  0.1304 -0.0255
24544W        W40438   8.344  12.719  15.691  0.1389  0.1995 -0.0076
24545W        W40439   5.788   3.069   5.150  0.3621 -0.3600 -0.0670
24546W        W40440   1.998   6.686  12.674 -0.1787 -0.1748  0.2511
24547W        W40441  16.066   8.260   1.499  0.2590  0.3444 -0.0022
24548W        W40442   2.771   7.925  16.404 -0.0154 -0.2440  0.2475
24549W        W40443   7.868  13.796   1.513  0.1217  0.1424 -0.2576
24550W        W40444  17.028   5.927  13.944  0.0836  0.0079 -0.2868
24551W        W40445   5.801   6.958  15.182  0.2790  0.2561 -0.0143
24552W        W40446   6.601  13.487  13.000 -0.0327 -0.0299  0.0070
24553W        W40447  11.869   8.392   1.436 -0.2289 -0.0601 -0.1512
24554W        W40448  15.438   1.359  14.459 -0.0435 -0.4067 -0.0830
24555W        W40449   3.929   5.489   0.077 -0.0044 -0.0381  0.0300
24556W        W40450   9.709   1.086   1.667 -0.2114 -0.2088 -0.4389
24557W        W40451   4.776   2.222   2.083  0.1986 -0.0177  0.1006
24558W        W40452  10.659   9.182   0.969  0.1154  0.1663 -0.2272
24559W        W40453   1.003   9.939  16.510 -0.1335 -0.1641  0.0157
24560W        W40454   0.115  14.852  13.880 -0.0659  0.2202  0.0440
24561W        W40455  16.906   6.621  12.778 -0.1457 -0.1770 -0.0646
24562W        W40456  17.222   3.182  15.485  0.1177 -0.0494  0.2311
24563W        W40457   6.302   4.782   0.748 -0.1473 -0.2308  0.3503
24564W        W40458   9.655   5.428   1.918  0.1647 -0.1075  0.2276
24565W        W40459  15.353  10.466   3.230  0.2303 -0.0101  0.3624
24566W        W40460   2.473   8.115   0.333 -0.0536 -0.1877  0.2172
24567W        W40461  14.872  14.268  11.795 -0.2648  0.1316 -0.2760
24568W        W40462   6.387   2.481  13.445 -0.2225  0.0157 -0.1641
24569W        W40463   2.342   7.365   3.351 -0.1666  0.0946 -0.4540
24570W        W40464  13.754  14.770   3.349 -0.1609 -0.0183  0.0421
24571W        W40465  13.785  13.783   1.485  0.0680  0.1319  0.1253
24572W        W40466   6.757   1.012   4.950  0.1462 -0.1276 -0.2339
24573W        W40467   4.721   5.947  15.294 -0.0522 -0.0403 -0.1557
24574W        W40468  17.034  11.338   6.296 -0.1815 -0.1005  0.2083
24575W        W40469   9.441   4.033   4.010  0.0354  0.1543 -0.0904
24576W        W40470   1.030   3.746   5.147  0.0916  0.4163 -0.0367
24577W        W40471   4.529  16.121   0.019 -0.2000 -0.1293 -0.3194
24578W        W40472  17.382  12.745   3.131 -0.3203  0.2457 -0.0926
24579W        W40473   2.409  16.025  12.267  0.0315 -0.0099 -0.2517
24580W        W40474   7.027  12.661   6.308 -0.2668 -0.0107  0.0862
24581W        W40475   6.801  17.779   4.589  0.2081  0.0868 -0.0682
24582W        W40476  12.500   5.326   3.592 -0.0732 -0.4180  0.2469
24583W        W40477   2.308  17.190  16.616  0.2427 -0.0619 -0.0263
24584W        W40478   6.849  15.368  13.595 -0.1420  0.1034  0.0436
24585W        W40479   0.299  12.145   1.948 -0.0480 -0.1330 -0.0237
24586W        W40480   8.124  17.178  15.878 -0.0506 -0.0417 -0.4473
24587W        W40481   0.174   3.326  15.168 -0.0264 -0.4561 -0.1668
24588W        W40482   8.095   2.504   1.829  0.0889  0.0194  0.0905
24589W        W40483  12.645   0.603  15.668 -0.0926 -0.2941 -0.3338
24590W        W40484   0.040   5.439   0.047  0.0385 -0.2140  0.1560
24591W        W40485   0.667   6.629   1.046 -0.2758  0.0805 -0.0197
24592W        W40486   3.399  16.324   0.780 -0.1081 -0.0747  0.3021
24593W        W40487   8.551   2.480   3.536 -0.0522  0.0026  0.1053
24594W        W40488   4.738   9.242   3.061  0.1111 -0.0562  0.1428
24595W        W40489  16.830   0.592   4.030  0.2839  0.0795  0.0239
24596W        W40490   4.887   1.854  15.846  0.2094  0.0379 -0.1128
24597W        W40491  12.044  15.324  16.363  0.1156  0.0482  0.1608
24598W        W40492   5.527   5.208  11.565  0.0622 -0.0758  0.1179
24599W        W40493  15.976  12.945  15.761 -0.1063  0.0135  0.0234
24600W        W40494  13.937  14.047  16.851 -0.1353  0.1345 -0.0082
24601W        W40495  13.568   5.873  14.087  0.2144  0.1345  0.1924
24602W        W40496   6.232   3.215   5.220  0.0949  0.0278  0.1154
24603W        W40497  11.608   5.357  13.124 -0.3072 -0.0510  0.1640
24604W        W40498   3.214   1.097   2.733 -0.1348 -0.1279 -0.0363
24605W        W40499  10.687  15.054   5.395 -0.4907 -0.0463 -0.1069
24606W        W40500   1.572   0.240   3.997  0.3039  0.0076 -0.1699
24607W        W40501  13.764  15.036   1.308  0.0012  0.2068 -0.1385
24608W        W40502  16.454   7.937  13.092  0.1423  0.2161 -0.0421
24609W        W40503   2.181  14.506   1.109 -0.1108 -0.2241  0.2663
24610W        W40504   8.925   6.929  13.271  0.2238  0.3176 -0.1946
24611W        W40505  17.790   9.991   2.008  0.0878 -0.2861  0.3545
24612W        W40506  11.163   2.778   1.327  0.0937 -0.2895 -0.1118
24613W        W40507   0.007  17.387  15.712  0.1531  0.1674  0.1309
24614W        W40508   1.191  12.460  14.047  0.0979  0.1561 -0.0562
24615W        W40509  15.693  17.764   5.231 -0.1820  0.0929  0.1399
24616W        W40510   9.712   4.419  10.951  0.0571 -0.2140  0.1596
24617W        W40511  10.825   3.889  12.871 -0.0301  0.1683  0.3450
24618W        W40512   7.902   8.914  12.291  0.3587 -0.0674  0.2166
24619W        W40513   0.420   2.870   3.205  0.0198 -0.0835  0.0222
24620W        W40514  16.625   9.074  13.529  0.4714  0.1715 -0.1679
24621W        W40515   3.048   5.677   0.064  0.2342  0.0961  0.1645
24622W        W40516  11.458  15.190  13.036  0.2347  0.2650  0.1473
24623W        W40517   0.351   6.212   2.893  0.2064  0.0240 -0.2976
24624W        W40518  11.228  13.358  15.959 -0.0442 -0.2960 -0.1815
24625W        W40519   2.208   6.876   3.744  0.0956 -0.2387  0.3122
24626W        W40520  14.226   3.000   0.668  0.0256  0.1615  0.0817
24627W        W40521   3.761   2.691   4.462 -0.2395 -0.0986  0.2468
24628W        W40522  15.603   7.000   5.165  0.2669  0.2298 -0.0598
24629W        W40523   2.759  10.144   1.504  0.2099 -0.0606  0.1339
24630W        W40524  16.893  14.974  15.788 -0.3760 -0.2369  0.1802
24631W        W40525   1.381   4.279  14.327  0.3369  0.2015  0.0550
24632W        W40526   7.786  12.197   4.598  0.1282  0.0061 -0.4789
24633W        W40527   5.622  13.507  15.304  0.2503  0.2646  0.0175
24634W        W40528  14.347  16.803   4.484 -0.0437  0.0219  0.0425
24635W        W40529   3.534  14.651   3.886  0.1775 -0.1341 -0.0666
24636W        W40530   3.343   4.600   1.686  0.2550 -0.2189 -0.2013
24637W        W40531   1.318   0.669   2.032  0.0371  0.0089 -0.1973
24638W        W40532   0.258  15.740   5.047 -0.0940 -0.2656  0.2295
24639W        W40533   3.497   2.702  12.127 -0.2899 -0.0430 -0.0274
24640W        W40534   4.865  13.222   2.515 -0.0878  0.0921 -0.0107
24641W        W40535  17.038   3.833   2.372  0.0103  0.1706 -0.2653
24642W        W40536   3.390   1.081  10.927  0.0468 -0.0788  0.3251
24643W        W40537   6.683  13.426   2.537 -0.1822 -0.1247 -0.2142
24644W        W40538   9.232   0.710   3.723 -0.2012 -0.1580 -0.0528
24645W        W40539   4.016   0.168   0.014  0.1030  0.0221 -0.3153
24646W        W40540  11.784  13.642  12.416  0.0196  0.0636  0.1792
24647W        W40541  15.147  14.765   1.231  0.4390 -0.1302  0.3532
24648W        W40542   6.327  14.064  13.478  0.1814  0.0659  0.3955
24649W        W40543  14.832  17.489   4.704 -0.0333  0.1214  0.4211
24650W        W40544  11.611   4.029  15.963 -0.1170 -0.1325 -0.2243
24651W        W40545   6.177  17.845  14.820 -0.2351  0.1632  0.1574
24652W        W40546   5.754   2.955  14.965  0.0802 -0.0626 -0.0083
24653W        W40547   4.348  15.535  16.431 -0.0548 -0.2569  0.0861
24654W        W40548   5.755   2.001   4.414 -0.2273  0.1488 -0.0038
24655W        W40549  13.318  13.440   2.184 -0.2034  0.2768  0.1117
24656W        W40550   8.139   1.435   0.999  0.0070  0.0676 -0.0193
24657W        W40551   0.503   3.690  15.596 -0.0357 -0.3476  0.0755
24658W        W40552  10.605   6.923  16.136 -0.1302 -0.0897  0.1600
24659W        W40553   1.939  16.930   3.969 -0.1732 -0.1709  0.0640
24660W        W40554   4.652  15.881   1.342  0.0192 -0.2201  0.1057
24661W        W40555  10.198   4.296   6.254  0.0607  0.2538 -0.0751
24662W        W40556   6.418  14.035   6.015 -0.0245  0.4958  0.2896
24663W        W40557  11.385  14.455   1.605 -0.0791 -0.0291 -0.2193
24664W        W40558  15.691   5.014  13.306 -0.2468 -0.0892 -0.0517
24665W        W40559   5.939   0.264   5.728  0.1518  0.0067  0.0534
24666W        W40560   1.935  11.216  12.845  0.0645 -0.0845  0.0178
24667W        W40561   4.000   6.888   2.368 -0.0425 -0.2732  0.1924
24668W        W40562  11.895  17.317   2.054 -0.0007  0.4992  0.0445
24669W        W40563   9.275   4.423  12.455  0.2216 -0.2972  0.1670
24670W        W40564   1.382  17.741  15.586  0.1827  0.1421  0.1097
24671W        W40565   4.152  17.175  14.029 -0.1463 -0.2453  0.0177
24672W        W40566  14.283   6.977   1.264 -0.2524  0.0100 -0.0179
24673W        W40567   1.397   2.550   2.196  0.0808  0.2160 -0.0822
24674W        W40568  11.345  12.605   4.532 -0.1094  0.1348  0.0003
24675W        W40569  13.953   8.131   3.029  0.2234  0.2799  0.2073
24676W        W40570   0.725   6.628   2.574  0.1889 -0.1197 -0.0309
24677W        W40571   3.606  11.127  13.308 -0.2286  0.1727  0.1628
24678W        W40572  16.492  17.026   4.952 -0.2527  0.1228 -0.1013
24679W        W40573   4.446   5.003  14.926 -0.0954  0.0984 -0.2961
24680W        W40574   0.345   7.554  16.067  0.0025 -0.1898  0.0101
24681W        W40575   7.570   6.948   6.888 -0.0092  0.2289  0.0542
24682W        W40576   2.863   4.911  16.479 -0.0625  0.0166 -0.2004
24683W        W40577  10.477   2.944   1.667 -0.2753  0.2398  0.0843
24684W        W40578   8.934  17.326  11.766 -0.0830 -0.0515  0.0179
24685W        W40579   6.143   7.135   5.005 -0.0321 -0.1461 -0.0628
24686W        W40580  10.255   1.630  13.511  0.1882  0.3350 -0.0757
24687W        W40581   9.987  13.441   2.840 -0.1190  0.1055 -0.3565
24688W        W40582   5.431   2.894   5.515 -0.0496 -0.0476  0.1571
24689W        W40583   6.832  12.102  12.229  0.1992  0.0129 -0.2381
24690W        W40584   1.651   3.639  13.553  0.1767  0.2413 -0.0013
24691W        W40585   6.833   7.985   4.445  0.2887  0.0362  0.0895
24692W        W40586   7.282   3.364  12.658 -0.0976  0.0144  0.1411
24693W        W40587   3.543  10.811   2.827 -0.2822  0.0701  0.0377
24694W        W40588   9.362  14.869  13.111  0.1084  0.2023  0.0753
24695W        W40589   2.688  10.059  16.334  0.3138 -0.1968 -0.1084
24696W        W40590   0.835   5.939   0.457  0.0803  0.1601 -0.1975
24697W        W40591  13.731  14.317   6.487 -0.1354 -0.2552  0.0871
24698W        W40592   7.110   8.004   4.036  0.2624  0.1174  0.3657
24699W        W40593   5.057   4.205  12.332  0.0892 -0.0450  0.0007
24700W        W40594   1.542   7.674  12.898 -0.0046 -0.0367 -0.1580
24701W        W40595   5.203   9.388   4.629  0.0314  0.0857 -0.0726
24702W        W40596   7.777   2.643  15.410 -0.0621 -0.1857  0.1747
24703W        W40597   8.864   8.213   1.171 -0.0554  0.1401 -0.0623
24704W        W40598  13.335  10.796  15.702 -0.4568 -0.1634  0.0485
24705W        W40599   8.436   9.533   6.120  0.2085  0.2454  0.3063
24706W        W40600  16.702  14.464   5.621 -0.3996 -0.1031  0.3537
24707W        W40601  15.916   2.085   2.060 -0.1982 -0.0306 -0.0532
24708W        W40602  12.547  13.947  14.948  0.1142  0.0723 -0.0539
24709W        W40603   0.457  16.752   4.506 -0.2062  0.2568  0.0247
24710W        W40604   3.088   7.587   1.432 -0.0408 -0.0558 -0.0737
24711W        W40605  17.645   4.533  15.947 -0.1891  0.1478 -0.0101
24712W        W40606  11.457  13.375  13.053  0.0648  0.1933  0.0899
24713W        W40607  13.598  16.595  13.629 -0.4013 -0.1037 -0.0251
24714W        W40608   6.118   1.867  12.774 -0.2532 -0.0430  0.1130
24715W        W40609   1.134   9.419   2.879 -0.0123  0.0770 -0.2490
24716W        W40610   2.777   0.060  15.493 -0.1454 -0.1258  0.3082
24717W        W40611   7.247  16.396  12.067 -0.1492 -0.0892  0.4292
24718W        W40612  14.585  10.218  16.892  0.0621  0.0817 -0.0344
24719W        W40613  11.547   7.512  14.944  0.0287 -0.0711  0.0718
24720W        W40614  13.362   9.534   0.564 -0.0486  0.1899 -0.0532
24721W        W40615  16.175  12.818   4.082 -0.1464  0.0191  0.2465
24722W        W40616   9.575   3.700  15.174  0.3139  0.0034 -0.1358
24723W        W40617   5.301   2.304  13.671 -0.0417 -0.3329 -0.1140
24724W        W40618   7.042  15.573   4.314 -0.0549  0.1410 -0.1458
24725W        W40619   9.760   6.883  15.663 -0.0960 -0.0104  0.3059
24726W        W40620  13.297   2.520   4.369 -0.0497 -0.2599 -0.1236
24727W        W40621  10.436   3.183   0.943  0.3445 -0.0056 -0.3372
24728W        W40622  15.732   9.429   2.056 -0.1496 -0.0519  0.1502
24729W        W40623   0.543  13.025   4.098 -0.0274 -0.1862  0.0535
24730W        W40624   0.427   5.044   4.606 -0.1350 -0.0465 -0.1296
24731W        W40625   4.913   4.445   4.993 -0.0296  0.0662 -0.1668
24732W        W40626  11.805   7.763  13.067  0.1281  0.2530  0.0918
24733W        W40627  17.231   4.022   4.279  0.2230  0.1268  0.0098
24734W        W40628  10.083   7.721  16.912  0.0145 -0.3517  0.0273
24735W        W40629   6.795  12.725  11.046 -0.3192 -0.3460  0.0975
24736W        W40630   5.026  15.539   2.447 -0.2014  0.2378 -0.4502
24737W        W40631   1.918   9.499   5.960  0.1723  0.3559 -0.1045
24738W        W40632  11.709   4.453  12.703  0.2183 -0.1897 -0.2551
24739W        W40633   7.523   9.532   4.839  0.0116  0.3574  0.1938
24740W        W40634  16.184   3.709  16.786 -0.1854  0.1501 -0.0137
24741W        W40635   7.859   1.870   2.476  0.1778  0.2065  0.1813
24742W        W40636   7.274  12.701  14.639  0.4686  0.0264  0.1474
24743W        W40637   4.240   8.759  13.158  0.1024  0.1088  0.0912
24744W        W40638  12.680  12.289  16.360 -0.1152 -0.0005 -0.0033
24745W        W40639   2.735   7.344  11.840  0.2087 -0.1072  0.2051
24746W        W40640  13.500  16.065  13.633 -0.1755  0.0934  0.0773
24747W        W40641   5.115   7.417  15.214  0.3713  0.0358  0.1803
24748W        W40642  10.806   1.574  16.591  0.2006 -0.0525 -0.2243
24749W        W40643  11.552   3.489  13.700 -0.1135 -0.2407  0.1469
24750W        W40644  12.406   3.509  11.948 -0.1556  0.1977 -0.3706
24751W        W40645   3.566  14.072  14.730  0.0433 -0.4264 -0.0965
24752W        W40646   5.048   0.267  16.124 -0.3853 -0.0792 -0.0590
24753W        W40647   4.822   2.744   4.251 -0.1244  0.2069  0.1189
24754W        W40648   9.064   7.548  13.986 -0.1650 -0.1205  0.1097
24755W        W40649   4.612   9.608  16.916 -0.0695  0.1543 -0.2569
24756W        W40650  11.502   9.102   5.436 -0.1621 -0.0808  0.0408
24757W        W40651  16.282   1.952   0.633 -0.0509 -0.0309 -0.2579
24758W        W40652  12.110   0.172   0.091 -0.1147 -0.2337 -0.0919
24759W        W40653  11.573   7.598  14.385 -0.2670  0.3156 -0.1041
24760W        W40654   4.744  13.779   4.912 -0.0297  0.1740 -0.0074
24761W        W40655   5.131  14.422   3.269 -0.1227 -0.1036  0.2721
24762W        W40656  14.727   9.001   0.620  0.2778  0.1693  0.0400
24763W        W40657   1.623   0.867   2.498  0.2467 -0.0484  0.1629
24764W        W40658  15.207  10.356   3.669 -0.0119  0.0797  0.1958
24765W        W40659   2.909  10.134  12.902  0.0854 -0.0762 -0.1425
24766W        W40660  14.021  17.458   4.458 -0.2814  0.0389 -0.0816
24767W        W40661   2.879   3.133   4.046  0.0676 -0.1095 -0.0371
24768W        W40662   9.900   4.183  16.897 -0.1797  0.2398 -0.3833
24769W        W40663   7.787  17.079  12.399 -0.0919  0.0085  0.0830
24770W        W40664   0.003  16.348   2.030  0.1287 -0.0895 -0.1573
24771W        W40665   5.396   9.412  15.381  0.2330  0.2150 -0.0570
24772W        W40666  10.664  17.374  13.095 -0.0975 -0.2601  0.1991
24773W        W40667  15.860   5.349   0.992  0.0447  0.0213  0.0011
24774W        W40668  14.871  10.698  14.641 -0.3468  0.1965  0.0493
24775W        W40669  15.715  16.255   2.323  0.0122 -0.0606  0.1544
24776W        W40670   3.244   9.088  14.141 -0.3644  0.0453  0.1822
24777W        W40671   8.212   5.451   4.301  0.0096  0.1120 -0.2052
24778W        W40672  14.920   7.448   1.233 -0.1655  0.1840 -0.2526
24779W        W40673   1.740  13.100  16.206 -0.2409 -0.2873  0.1113
24780W        W40674   8.702   1.915  14.447 -0.0568  0.3139  0.0298
24781W        W40675   0.880   2.414   0.846  0.0164  0.1113  0.1448
24782W        W40676  15.437  13.500  16.256 -0.0366 -0.0299  0.0334
24783W        W40677   3.008  13.938   3.872  0.0220  0.1522 -0.5463
24784W        W40678  17.599   6.317   0.532  0.2822 -0.0279  0.0959
24785W        W40679  13.510   5.111  16.111  0.3672 -0.4139 -0.1786
24786W        W40680   5.791  15.642   5.819  0.1814  0.1749  0.0525
24787W        W40681  16.358   1.721   3.829  0.0046 -0.1314 -0.1174
24788W        W40682   3.046   7.558  16.694  0.1589  0.0116 -0.0504
24789W        W40683  11.938   9.173   1.788 -0.3430 -0.0775 -0.1158
24790W        W40684  16.673   5.333  15.113 -0.0297  0.1069 -0.1091
24791W        W40685  11.376  15.520   2.496  0.1739 -0.1143  0.0870
24792W        W40686   1.535  16.644   2.938 -0.0159 -0.0136 -0.2195
24793W        W40687  17.761   1.656   2.574  0.0210  0.0576  0.1751
24794W        W40688   4.529   0.307  12.988  0.1543 -0.0059 -0.1049
24795W        W40689  10.135   8.568   4.303  0.1628 -0.1777 -0.0839
24796W        W40690   0.428  13.683  12.273  0.0506 -0.3086  0.0184
24797W        W40691  14.973  14.993  16.908 -0.0720 -0.1467 -0.0682
24798W        W40692  10.798   6.836  12.956 -0.1232  0.1719  0.5409
24799W        W40693  13.577  16.730  12.468 -0.1082  0.0083  0.1400
24800W        W40694  10.838   0.313  13.888 -0.0646 -0.0010  0.2765
24801W        W40695   1.604  10.878  14.277  0.3149  0.1101 -0.0116
24802W        W40696   7.362   7.098  12.280 -0.5465  0.2816 -0.0085
24803W        W40697  11.159   7.447  14.118  0.0014 -0.0416 -0.1314
24804W        W40698   7.315  11.041   4.453  0.0424  0.1377 -0.3362
24805W        W40699   2.821  16.231  16.411 -0.1446  0.0614 -0.0645
24806W        W40700   8.191  14.918   0.565  0.1336  0.1632 -0.0633
24807W        W40701  17.594   8.145   6.265 -0.0827  0.1450  0.1245
24808W        W40702  16.645   9.920  15.156  0.6359  0.0428 -0.0457
24809W        W40703  16.186   1.451  16.472  0.0073 -0.1763  0.0726
24810W        W40704  13.515   6.489  16.564  0.1380  0.0888 -0.2176
24811W        W40705   3.087   8.254  12.456 -0.1523 -0.3468 -0.1608
24812W        W40706   3.501   1.094   0.040  0.1758 -0.2398  0.1221
24813W        W40707   6.303  15.745  14.368  0.2496  0.1972  0.0997
24814W        W40708  13.012  11.917   4.279  0.2333  0.0945 -0.0685
24815W        W40709   0.427   2.268   0.697  0.0754  0.0641 -0.0967
24816W        W40710   7.829   7.207  14.616 -0.0828 -0.1698 -0.0827
24817W        W40711  17.040   2.883   5.169 -0.1752 -0.1645  0.1571
24818W        W40712   6.130  11.951   5.746  0.2223  0.0116  0.3670
24819W        W40713  13.471  14.758   4.472  0.0007  0.2049  0.3072
24820W        W40714   3.137  13.918  11.689 -0.1025 -0.1199 -0.1425
24821W        W40715  16.099   0.032  14.656  0.0982 -0.3601 -0.0480
24822W        W40716  14.231   5.353   5.450  0.0016  0.3389  0.1028
24823W        W40717   3.156  14.731   3.354 -0.2868  0.0208 -0.2118
24824W        W40718   7.598  12.353  11.935 -0.1262  0.0449 -0.0404
24825W        W40719   8.813  10.195  15.381  0.1246  0.0251  0.1044
24826W        W40720   5.610   7.416  13.160  0.0845  0.1741  0.1882
24827W        W40721   1.331   1.238  12.105 -0.2326 -0.0616 -0.0422
24828W        W40722  15.111   4.179   2.118 -0.0500  0.0221 -0.1193
24829W        W40723  12.659   7.646   4.452 -0.2013 -0.3470  0.0526
24830W        W40724   4.906   7.953   0.734 -0.2834  0.1069 -0.2716
24831W        W40725  11.836   5.081   2.436  0.3694  0.0901 -0.1227
24832W        W40726  16.735   1.991   3.559  0.2154 -0.1919 -0.5170
24833W        W40727  14.807  16.491   5.539  0.0513 -0.0014  0.1456
24834W        W40728  12.260  13.788  14.417  0.1547 -0.2648  0.1285
24835W        W40729   6.865  12.431  13.021  0.1872 -0.2978  0.2029
24836W        W40730   5.070   3.229  11.575  0.1418  0.3946 -0.0106
24837W        W40731  16.746  16.980  14.156 -0.3516  0.2423 -0.1918
24838W        W40732  12.983  17.353  16.684 -0.0558  0.2343 -0.0035
24839W        W40733   6.864  12.510  12.517 -0.0316  0.0200 -0.0291
24840W        W40734  12.990  11.711  15.868 -0.1185 -0.0915  0.0078
24841W        W40735  11.843   1.179  14.791  0.1120  0.1720 -0.2564
24842W        W40736   2.937  11.569   5.222 -0.2788 -0.0633  0.0081
24843W        W40737  10.794  16.896  13.952  0.0726 -0.1333  0.1605
24844W        W40738  14.879  15.105  12.079  0.0650 -0.0578  0.2382
24845W        W40739   7.946   4.327   0.841  0.2308 -0.1594  0.0947
24846W        W40740  13.030   0.757   2.045  0.1738  0.0529 -0.5804
24847W        W40741   1.668  12.895  11.690 -0.1991 -0.3384  0.2312
24848W        W40742  12.236  14.328   0.565 -0.0730  0.2096 -0.0100
24849W        W40743  16.824   9.527   3.551  0.1910  0.1424  0.0762
24850W        W40744   6.925   3.225  16.824  0.0959  0.0148 -0.1702
24851W        W40745   8.830   7.607   4.610 -0.3468  0.0702  0.1182
24852W        W40746   4.732   8.152  14.749  0.0186  0.1466 -0.0222
24853W        W40747   2.098   7.804   2.083 -0.2590  0.1147 -0.0118
24854W        W40748  17.388   3.826   0.719 -0.0936  0.3207  0.1694
24855W        W40749  11.174  16.551  15.460  0.0767  0.1244 -0.2940
24856W        W40750  11.771  11.623   4.613  0.1447  0.2079  0.2029
24857W        W40751  16.969   3.598  11.651 -0.0921  0.1502 -0.1711
24858W        W40752   3.945   2.802   1.190 -0.0392  0.0988 -0.1579
24859W        W40753   7.797   4.392  16.023 -0.0733  0.2255  0.0313
24860W        W40754  14.287  16.079  14.688  0.1261  0.0486 -0.0514
24861W        W40755   3.662  13.024   4.227 -0.0542  0.1342  0.0753
24862W        W40756  13.300  15.511  16.014  0.1756  0.0311  0.0817
24863W        W40757   0.496  15.474   1.606 -0.2346 -0.0710 -0.0625
24864W        W40758   0.720   9.824  13.900  0.2234  0.0105 -0.1052
24865W        W40759  12.317  17.535  15.473 -0.2692 -0.0477  0.2663
24866W        W40760  14.768  15.690   0.801  0.0296 -0.2794 -0.0678
24867W        W40761  10.145   0.037  15.506 -0.0888 -0.0524 -0.0012
24868W        W40762  11.804   1.647   1.193 -0.0241 -0.3910 -0.4155
24869W        W40763  14.460   0.957   0.768  0.0869  0.1466 -0.1066
24870W        W40764   7.903  16.834  14.811  0.1158  0.0675 -0.1148
24871W        W40765   6.538   2.171  10.647 -0.1413  0.0998 -0.1391
24872W        W40766  10.756   8.964   2.860 -0.0107 -0.3330 -0.0424
24873W        W40767   8.254   4.979  12.232 -0.1411 -0.2148 -0.0984
24874W        W40768  10.081   5.116   2.518  0.1657  0.1694 -0.1398
24875W        W40769   4.471  10.395  13.716 -0.1540  0.0232  0.0491
24876W        W40770  13.166   6.366   3.062 -0.3300 -0.0303 -0.2670
24877W        W40771   9.537   2.589  16.078 -0.3244  0.2579 -0.1207
24878W        W40772   1.218   2.880  15.093 -0.2061  0.0315 -0.0523
24879W        W40773   5.390   9.746   3.675 -0.1544 -0.1867 -0.1585
24880W        W40774   7.484   0.101  13.413 -0.0979  0.0945  0.3616
24881W        W40775  17.688   3.818  13.367 -0.3124  0.3883  0.2224
24882W        W40776   6.052  15.480  15.696  0.0330  0.1721 -0.3715
24883W        W40777   4.340  13.820  14.898  0.0393  0.3274 -0.1761
24884W        W40778  14.634   2.164   3.121  0.1388  0.1488 -0.5095
24885W        W40779  12.138  16.797  13.290  0.2019  0.0111  0.1391
24886W        W40780  15.396  15.796   5.511 -0.1890 -0.1235  0.0565
24887W        W40781   5.667  12.457  11.286  0.0459 -0.0709 -0.1095
24888W        W40782   8.267  12.596   1.079  0.0577 -0.1930 -0.0244
24889W        W40783   6.762   4.558   2.338  0.5020  0.2450  0.0856
24890W        W40784  13.045  16.852  16.576  0.2194  0.0333  0.4020
24891W        W40785   7.726  12.458  16.139  0.0771  0.0336 -0.1304
24892W        W40786   0.190  10.892  13.324 -0.0123  0.0012  0.3023
24893W        W40787   3.909  13.094   5.119  0.1650 -0.2995 -0.0183
24894W        W40788  14.093   4.871  13.203  0.2371  0.0143  0.0341
24895W        W40789   4.252  16.710  13.735 -0.0059 -0.0383 -0.1361
24896W        W40790   4.114  15.445  14.736 -0.0447 -0.4161  0.0788
24897W        W40791   1.732   8.086  12.595 -0.2583 -0.4944 -0.2623
24898W        W40792   2.879  14.072  16.889  0.1022 -0.1562 -0.0017
24899W        W40793   4.359   4.536   4.154 -0.2863  0.1714 -0.1980
24900W        W40794   6.853   2.779   0.084 -0.1119  0.0254  0.2650
24901W        W40795   6.678  14.628   1.318  0.3770 -0.0359  0.1112
24902W        W40796   0.459   9.548  11.607  0.2736  0.1412  0.0936
24903W        W40797  17.555  17.690  11.680 -0.2731 -0.2946 -0.0784
24904W        W40798   4.928  14.793   2.878 -0.0916 -0.1121  0.0552
24905W        W40799   8.955   4.282  12.054  0.1892 -0.0901  0.1233
24906W        W40800  11.699   2.072  14.405 -0.0760  0.0954  0.0205
24907W        W40801   9.922   1.052   0.531  0.1716 -0.1118 -0.1008
24908W        W40802   9.791  12.518   4.410 -0.0010 -0.0714  0.0166
24909W        W40803   1.972   9.321  12.678 -0.0797  0.0411 -0.0324
24910W        W40804  13.950   7.535  12.886 -0.0076 -0.1976 -0.3551
24911W        W40805  14.274  16.602   1.282  0.0748 -0.0816 -0.1799
24912W        W40806   6.162  12.698   4.161 -0.1848 -0.0074 -0.1691
24913W        W40807  17.253   1.981   3.459  0.1262  0.3978 -0.0213
24914W        W40808   7.404  12.598  16.546  0.0560 -0.1124  0.0646
24915W        W40809   7.881   5.923   1.937  0.2398  0.2539  0.1230
24916W        W40810  16.699  15.283   1.748 -0.3794  0.1228  0.0741
24917W        W40811  10.360  10.670   2.845 -0.0230 -0.3469 -0.0442
24918W        W40812   3.887   7.909  11.917  0.0648 -0.0545 -0.1586
24919W        W40813   3.151  12.938  13.906 -0.1447  0.1175 -0.0097
24920W        W40814   7.671   9.485   6.093 -0.0805 -0.1811  0.1613
24921W        W40815   4.977  16.046  16.743 -0.0913 -0.1597 -0.6197
24922W        W40816   4.373  11.640  13.274 -0.0309  0.1659 -0.1411
24923W        W40817  15.814   1.107   0.840  0.1376  0.0264  0.0329
24924W        W40818  14.814   0.213  14.992  0.1037  0.0165 -0.1602
24925W        W40819  16.828   1.176  11.614  0.1182 -0.1345  0.1857
24926W        W40820   9.124  12.459   1.130 -0.0911  0.0565 -0.3068
24927W        W40821  11.137   1.763  12.206  0.1596  0.1994 -0.1182
24928W        W40822   1.275  17.001  11.727 -0.1039  0.0285  0.1675
24929W        W40823   1.978  13.677   5.757 -0.1052  0.0738 -0.0247
24930W        W40824  10.893  13.999   3.373 -0.4255  0.0634 -0.4823
24931W        W40825   5.949   4.991   3.997 -0.0168  0.0131 -0.0209
24932W        W40826   2.252   9.813  13.595  0.1254 -0.1932  0.0946
24933W        W40827   4.387  10.320  12.743  0.0498 -0.3889 -0.0723
24934W        W40828   5.712  14.983   3.040 -0.0102 -0.0046 -0.0702
24935W        W40829  15.321  14.925  14.170  0.2508  0.0011 -0.1982
24936W        W40830  11.078  15.940  15.311 -0.0561 -0.2362 -0.1882
24937W        W40831  10.421   8.883   6.343 -0.0994 -0.1433  0.1410
24938W        W40832   0.442  14.637   3.205  0.0953 -0.0831  0.0938
24939W        W40833   8.361   2.929   2.514  0.1697  0.2072 -0.0152
24940W        W40834   1.715  16.616  12.582  0.2675  0.2451  0.0183
24941W        W40835   2.135   0.300   4.940  0.4276  0.1197  0.1016
24942W        W40836   7.716  10.696   5.327  0.2340  0.0207  0.1144
24943W        W40837  17.410  14.319  12.935 -0.0891 -0.1361 -0.0321
24944W        W40838  12.450   5.864  14.958  0.2329  0.0573  0.2728
24945W        W40839  16.787   4.622   2.287 -0.0027 -0.1014 -0.2919
24946W        W40840   4.419  13.327   0.831  0.0244 -0.0467  0.2507
24947W        W40841  13.085   9.419  14.462 -0.1606 -0.1554  0.2249
24948W        W40842   7.048  10.297  14.469 -0.1326  0.3229  0.0141
24949W        W40843   0.152   4.486  16.793 -0.0697 -0.1725  0.3248
24950W        W40844  15.265   0.454  11.852 -0.1398 -0.0926 -0.2472
24951W        W40845   1.855   7.382   0.704 -0.2184 -0.1403 -0.0845
24952W        W40846  17.730   1.449   0.648  0.0602 -0.0145  0.1420
24953W        W40847   7.432   1.996   2.783  0.1363  0.0190  0.0683
24954W        W40848   0.625  11.671   4.232 -0.0772 -0.0342 -0.0758
24955W        W40849  13.248   3.890   5.348  0.0666  0.0116  0.1343
24956W        W40850  12.276   4.606   0.770  0.0863  0.1350 -0.0779
24957W        W40851   9.801  14.334   2.204 -0.0275  0.1898 -0.2335
24958W        W40852  14.429   5.750   0.392  0.0625  0.0016  0.2951
24959W        W40853   8.331  12.300   3.026 -0.0351 -0.1457  0.5138
24960W        W40854  14.487  11.035  14.776 -0.0372  0.0305 -0.0787
24961W        W40855   2.102   1.450   2.149  0.1441 -0.2097 -0.1759
24962W        W40856   7.432   2.472   2.506 -0.0792  0.2264  0.0856
24963W        W40857  15.985  17.302  12.476 -0.0469 -0.1902 -0.2537
24964W        W40858  10.756   8.775   0.248 -0.3812  0.0612 -0.4269
24965W        W40859  13.039  12.620  13.612  0.1017  0.1506  0.1554
24966W        W40860   7.002  17.693   2.145 -0.2732 -0.1652 -0.1381
24967W        W40861  10.279  12.322   3.958  0.0244  0.0280  0.1561
24968W        W40862   8.436   9.938  15.572 -0.0742  0.2117  0.3155
24969W        W40863  11.071   7.394   0.000  0.0905  0.2327 -0.0308
24970W        W40864   6.308  17.604   1.049  0.0723 -0.0993  0.1298
24971W        W40865  10.834   0.380   0.863  0.1799  0.4005 -0.3642
24972W        W40866   8.297   6.904  12.563 -0.2648  0.1614 -0.0097
24973W        W40867   1.624  14.130  16.132  0.2131 -0.0475  0.3546
24974W        W40868   9.661  13.515  13.466 -0.1641 -0.1500 -0.0476
24975W        W40869  16.901  15.778  16.352 -0.3870  0.1715 -0.3861
24976W        W40870  16.378   6.173  13.243  0.2391 -0.0049 -0.0593
24977W        W40871   8.091   3.542  15.185  0.1143 -0.3739  0.1636
24978W        W40872   6.674   4.462   0.645 -0.3376  0.1160 -0.1129
24979W        W40873  13.651   9.118  14.596 -0.0581  0.1275 -0.2014
24980W        W40874  17.011   9.067   5.023  0.2226  0.0058  0.2580
24981W        W40875   9.945   3.643   0.627  0.0814 -0.6160 -0.1892
24982W        W40876   8.146  14.883   1.556 -0.4793 -0.2717 -0.0437
24983W        W40877   7.468   3.725  16.574 -0.2848 -0.1787  0.3045
24984W        W40878   8.102   7.522  15.301 -0.0083 -0.1515 -0.0948
24985W        W40879   1.315  13.232   0.566 -0.0562  0.2077  0.0670
24986W        W40880   7.325   0.605  13.748 -0.0510  0.1655 -0.2225
24987W        W40881  14.463   0.859   3.383  0.1293  0.0957 -0.1013
24988W        W40882  13.762  12.520   5.997  0.2542  0.3395  0.0762
24989W        W40883  14.680   0.732  16.235 -0.0935  0.0897  0.2160
24990W        W40884   0.356  16.265  14.911 -0.0306 -0.2135  0.0077
24991W        W40885   4.007  10.067   6.164 -0.1096  0.0106  0.0258
24992W        W40886   2.067   0.322  14.811  0.0590 -0.0043 -0.1217
24993W        W40887   1.153   3.678  13.486  0.0865  0.2335  0.2314
24994W        W40888   7.652   7.717   3.373  0.3072 -0.2010 -0.0231
24995W        W40889   9.001   8.655   4.672 -0.2388  0.1952  0.1351
24996W        W40890  10.576   9.746  11.921  0.1282  0.0565 -0.0924
24997W        W40891   2.359  11.110  13.052  0.3121 -0.0295  0.2423
24998W        W40892  15.858  12.569   6.330  0.1728 -0.0369 -0.1108
24999W        W40893   2.486  11.152   6.382  0.0530  0.1811  0.3115
25000W        W40894  16.423  10.891   1.054  0.0722  0.0300 -0.0978
25001W        W40895  10.757   1.616   3.973  0.1181  0.0129 -0.2098
25002W        W40896  14.613   6.019   4.758  0.1047  0.2418  0.2296
25003W        W40897   9.988   3.537  12.419 -0.1800 -0.0501  0.0304
25004W        W40898  12.825   4.806   2.887 -0.0515 -0.1192 -0.0849
25005W        W40899   3.718   4.370   1.336 -0.1907  0.0550  0.0654
25006W        W40900  15.823  10.676  15.780 -0.1604 -0.0169 -0.0277
25007W        W40901   0.740   5.779   1.428  0.0929 -0.1977 -0.1727
25008W        W40902   7.760  10.757  15.752 -0.1191  0.1505  0.2526
25009W        W40903   9.710  17.640  11.912  0.2265 -0.1144  0.1046
25010W        W40904  12.459  16.007  12.796 -0.0760  0.0136 -0.1335
25011W        W40905  17.382   1.023  11.498  0.1094 -0.2470 -0.1296
25012W        W40906  12.665   8.084   1.775  0.0816  0.1567  0.0997
25013W        W40907  16.132   5.755  16.289  0.2661  0.2153 -0.1819
25014W        W40908   5.109  12.321   5.762  0.0582  0.1340 -0.0239
25015W        W40909   3.186   3.105   5.306 -0.2603 -0.0873 -0.1371
25016W        W40910  16.534  10.707  16.733  0.3088  0.0968 -0.0663
25017W        W40911   0.335   1.114  16.489  0.1779  0.0396 -0.1727
25018W        W40912   5.341  17.539  11.394  0.0449 -0.1869 -0.1274
25019W        W40913   4.407   6.511  12.157  0.2243 -0.3335  0.0237
25020W        W40914  16.216  12.663  12.932 -0.0665 -0.0182 -0.1137
25021W        W40915   0.411   4.851  12.595 -0.2173 -0.4465 -0.4118
25022W        W40916   1.756   8.509   2.181 -0.0979  0.1049  0.2588
25023W        W40917   0.720  12.018   0.635 -0.0201 -0.1634  0.0465
25024W        W40918  10.839  14.662  15.699  0.0457  0.0968 -0.2786
25025W        W40919  14.702  16.644  16.155  0.1479  0.1797 -0.0886
25026W        W40920   2.549  15.825   6.102 -0.1589  0.1203 -0.1334
25027W        W40921  12.807  15.492  16.088 -0.0770  0.0828 -0.1264
25028W        W40922   8.154  14.569   5.851 -0.0482  0.0075 -0.0042
25029W        W40923  13.275   7.144  12.343  0.0429 -0.0363 -0.1345
25030W        W40924   7.756   2.317   2.176  0.0249 -0.0918  0.1726
25031W        W40925   5.892  15.839   2.701 -0.1377 -0.1205  0.2228
25032W        W40926  12.610  10.014   0.192  0.0214 -0.1693 -0.4354
25033W        W40927   1.889  17.143  16.866  0.5632 -0.1465  0.0157
25034W        W40928   3.354   9.417  15.506 -0.0044  0.0226 -0.0361
25035W        W40929   0.123  12.620   1.010  0.0217 -0.2825 -0.1318
25036W        W40930   1.817  15.815  13.755 -0.2858  0.2805  0.0435
25037W        W40931   2.348   6.835  13.040 -0.1929 -0.3785 -0.1628
25038W        W40932   8.699  10.473   5.128  0.2416 -0.0638  0.1631
25039W        W40933   6.162  10.490   0.456 -0.2471  0.1631  0.0986
25040W        W40934   6.184   5.616  13.685  0.0024  0.1739 -0.0779
25041W        W40935  12.917   9.558  14.956  0.0073 -0.2690  0.0252
25042W        W40936  17.074  14.260  16.901  0.0761 -0.1815  0.3412
25043W        W40937   4.067  17.045  16.537  0.0990  0.1141 -0.0989
25044W        W40938   2.824   9.619  13.658  0.1251 -0.0242  0.0864
25045W        W40939   3.293   6.392   4.373  0.0827 -0.1706  0.1533
25046W        W40940   8.933   4.191   2.714 -0.1038  0.0126  0.0918
25047W        W40941  14.006  13.387  12.777 -0.1777 -0.2563 -0.3067
25048W        W40942   8.022  17.113  13.449 -0.1412 -0.1170  0.2827
25049W        W40943   6.630  16.038   6.383 -0.2198  0.0333  0.2113
25050W        W40944   0.473   4.721   4.962  0.0432  0.1199 -0.1351
25051W        W40945  13.191   3.938  16.908 -0.0092  0.0246 -0.0754
25052W        W40946   9.877  15.920   5.793 -0.1088  0.2527 -0.2744
25053W        W40947   8.162   0.792   3.587 -0.0293  0.1786 -0.1016
25054W        W40948  15.202   6.270  14.081  0.0543 -0.1954 -0.2137
25055W        W40949   7.043  17.699   0.129 -0.0218 -0.1219  0.0847
25056W        W40950   7.415  11.091  13.715 -0.0195  0.0913 -0.1694
25057W        W40951   3.633  15.502   0.354 -0.3662  0.1052  0.2200
25058W        W40952   5.871  12.308  12.803 -0.0325  0.1455  0.0051
25059W        W40953   6.657   5.871  14.914  0.2963 -0.0525 -0.0505
25060W        W40954  17.263   6.891  16.775 -0.1210  0.0041  0.1450
25061W        W40955  16.501   6.974   5.008  0.1129 -0.0621 -0.0462
25062W        W40956   7.426   4.864   1.792 -0.2490 -0.0690 -0.0618
25063W        W40957   9.142   8.411  13.406  0.0093  0.1228  0.2515
25064W        W40958   3.696   8.721   1.221 -0.1820 -0.2927 -0.2956
25065W        W40959  14.604  11.234   0.085 -0.2797 -0.2517 -0.2092
25066W        W40960   3.111  10.394   4.728  0.0347  0.2979 -0.1701
25067W        W40961   2.346  11.816  15.869 -0.1982 -0.1681 -0.0707
25068W        W40962  14.872   9.393  12.917  0.2204 -0.3628 -0.1431
25069W        W40963   9.976  11.800  13.552  0.1723 -0.0682 -0.0476
25070W        W40964  13.560   0.829   2.654 -0.0997 -0.1692 -0.1525
25071W        W40965  10.240  13.976   0.295  0.0420  0.0316 -0.0110
25072W        W40966   6.177  10.666  15.444 -0.1382 -0.0511 -0.0372
25073W        W40967   9.668   5.202   3.419 -0.2554 -0.0639 -0.0130
25074W        W40968   6.914  16.710  12.277 -0.0416  0.0676 -0.0073
25075W        W40969   6.100   6.976   2.348 -0.3117 -0.0042 -0.1452
25076W        W40970   6.483  14.578   5.371  0.0910 -0.0720 -0.3850
25077W        W40971   2.061  12.439  15.157  0.1083  0.2013  0.2076
25078W        W40972   0.745  14.708   0.238 -0.0477  0.0143 -0.3190
25079W        W40973  10.221   7.938   3.611  0.2369  0.0223 -0.2696
25080W        W40974   9.257   8.559   3.710  0.2185  0.2017  0.1151
25081W        W40975   0.886   6.329  16.289  0.2309  0.1960 -0.0407
25082W        W40976  13.116   2.481  16.081 -0.1264 -0.1561 -0.0414
25083W        W40977  10.949   8.562   4.185 -0.1170  0.0785 -0.1388
25084W        W40978   9.480   0.230   3.703  0.0693  0.0989 -0.1672
25085W        W40979   6.427   2.493   2.366 -0.0149  0.2274 -0.3236
25086W        W40980   9.356   6.075  12.635 -0.0409  0.3109 -0.0931
25087W        W40981  11.303  16.616  13.931  0.0939 -0.0925  0.0571
25088W        W40982   8.615   3.788  13.553 -0.0287  0.2773 -0.0469
25089W        W40983   9.874   1.266  14.183  0.2444  0.1839  0.0087
25090W        W40984  11.130  14.714  14.808  0.1719 -0.1866  0.2892
25091W        W40985  17.793   7.317   4.260 -0.1004  0.1497  0.1214
25092W        W40986  13.815  10.107   1.354  0.1760 -0.0855 -0.1366
25093W        W40987   9.857   1.122  16.669  0.4256  0.1868 -0.1357
25094W        W40988  10.397   2.513  14.393  0.1590 -0.2859 -0.0317
25095W        W40989   9.218  10.495  12.254 -0.0199 -0.2283 -0.0417
25096W        W40990   3.894  16.217   0.681 -0.2175  0.0264 -0.0570
25097W        W40991  12.863  16.004   0.905  0.3733  0.1862  0.2430
25098W        W40992  16.208   0.091   3.299 -0.0688 -0.1503  0.0928
25099W        W40993  10.072   5.505  14.700  0.0229 -0.2196  0.3076
25100W        W40994  16.355   2.199  12.206 -0.1353 -0.1848  0.0390
25101W        W40995  16.231   1.133  16.014  0.0674  0.0891  0.0058
25102W        W40996   8.415   8.017   3.844  0.0609 -0.0952 -0.1937
25103W        W40997  13.054   4.870   5.992  0.3068  0.1472  0.0598
25104W        W40998   9.379   0.855  16.651  0.1156  0.1584 -0.3274
25105W        W40999  16.361  10.877   2.070  0.0312 -0.0991  0.0856
25106W        W41000   2.159  12.767  13.494  0.1356  0.0697 -0.2625
25107W        W41001   0.611  14.905   1.386  0.0135 -0.2175 -0.0952
25108W        W41002  16.104   9.769  16.657  0.1156  0.0311  0.0190
25109W        W41003   2.245  17.144   4.753  0.0292  0.2325 -0.1283
25110W        W41004   6.914   5.675   2.240  0.3002  0.1213  0.0735
25111W        W41005  15.402   8.873  13.016  0.0016 -0.1065  0.1603
25112W        W41006  12.569   0.298   0.911  0.0291 -0.1930  0.0009
25113W        W41007   2.870   6.555   1.954  0.3170  0.0696  0.2834
25114W        W41008   6.743  15.327  12.544 -0.1614 -0.1806 -0.2811
25115W        W41009   3.303   8.524  13.352  0.0384 -0.0189 -0.1230
25116W        W41010   8.937  15.640   4.894 -0.1622 -0.0512 -0.1074
25117W        W41011   2.085  15.543   2.029 -0.2167 -0.0380  0.0466
25118W        W41012  11.149  10.011   5.851 -0.2404  0.0535 -0.2646
25119W        W41013  10.236   6.493  14.410 -0.0939 -0.0854  0.3822
25120W        W41014  10.928   5.792  15.835 -0.0892 -0.0423  0.0418
25121W        W41015   6.167   6.737  14.905  0.3030 -0.0631  0.1532
25122W        W41016  13.466   8.108   2.927  0.1638  0.1319  0.1034
25123W        W41017   1.694   1.509  13.492  0.1168  0.0215 -0.4678
25124W        W41018   9.525  12.402   3.634  0.0509  0.0714 -0.0397
25125W        W41019  11.967  10.010   3.852  0.3082 -0.1101  0.2937
25126W        W41020  10.542  15.675   3.793 -0.2942 -0.0526  0.2436
25127W        W41021   1.078   9.025   3.189  0.3630  0.3036 -0.2881
25128W        W41022   5.645   8.419   4.868  0.0957  0.0163  0.0322
25129W        W41023  14.635  16.085  16.066  0.0613  0.1434  0.1073
25130W        W41024   5.701  11.901   0.782  0.4535 -0.1676  0.2620
25131W        W41025  11.645  12.294  13.450  0.0588 -0.0450 -0.0802
25132W        W41026   9.180   8.840  15.236  0.1779 -0.0518 -0.1681
25133W        W41027  16.700   6.565  13.190 -0.2076  0.1044 -0.0082
25134W        W41028   6.165  10.598  12.853 -0.2328 -0.0707 -0.0146
25135W        W41029  13.698   3.503  13.286  0.0063  0.2048 -0.1205
25136W        W41030  15.054  12.444   1.184 -0.0915  0.0576  0.1698
25137W        W41031   6.387   7.978   1.618 -0.3574  0.0807  0.0539
25138W        W41032  14.563   0.500   4.720 -0.3870  0.4141 -0.0457
25139W        W41033   7.228  16.737  16.694 -0.1254 -0.2930  0.0372
25140W        W41034  14.032   6.645   0.991  0.0715 -0.2275 -0.3213
25141W        W41035  12.110   4.945   0.453 -0.1381 -0.3142  0.3090
25142W        W41036  16.184   0.409   5.585 -0.0601  0.2020 -0.1761
25143W        W41037   2.267   9.089   0.425 -0.1650  0.2136  0.0939
25144W        W41038   2.887  10.128   0.956 -0.0756  0.0114 -0.4913
25145W        W41039  15.332  16.945  11.565 -0.0262 -0.1102  0.1567
25146W        W41040   8.703   8.287  13.329  0.0871  0.0767  0.0762
25147W        W41041   2.593  17.241  13.197  0.0527  0.0181 -0.0782
25148W        W41042   6.745  14.839   5.714  0.3814 -0.0830 -0.0353
25149W        W41043  11.115  15.004   4.335  0.1575 -0.1618 -0.3847
25150W        W41044  11.704   8.714   0.313 -0.0337 -0.0540 -0.0284
25151W        W41045   5.815   9.524  12.750  0.0577  0.1980  0.4614
25152W        W41046   5.899   8.354  13.200  0.4143  0.1017  0.1263
25153W        W41047   9.814  16.782  11.788  0.1760 -0.1255  0.0199
25154W        W41048   6.199   9.584  15.633  0.4656  0.1597 -0.3274
25155W        W41049  16.838   6.284  11.922  0.0819 -0.2517 -0.0167
25156W        W41050  17.230   7.588  14.936  0.1426 -0.1229 -0.0700
25157W        W41051   0.220   7.980   0.451  0.1352 -0.0417  0.0171
25158W        W41052  13.298  15.227  16.723  0.3150  0.0958  0.1890
25159W        W41053  14.122  10.909   1.301 -0.4724 -0.0798 -0.0856
25160W        W41054   6.991   3.144  13.572  0.0360  0.0542 -0.3154
25161W        W41055   1.999  10.519  14.857 -0.0594 -0.1009 -0.0416
25162W        W41056  17.319   7.944  12.193  0.1072 -0.2049 -0.0331
25163W        W41057  12.480  15.805  16.878 -0.2187 -0.2994 -0.1062
25164W        W41058  14.396  14.677   3.961 -0.1425 -0.2080  0.0073
25165W        W41059   4.456  11.014   2.265  0.0258  0.3940 -0.2197
25166W        W41060   6.364   0.225   4.645  0.1886  0.1232 -0.1646
25167W        W41061   1.822   4.011  16.589 -0.2016  0.0717  0.0508
25168W        W41062  13.928   5.921  11.713  0.0626 -0.0571  0.1091
25169W        W41063   2.839   5.451   1.638  0.3125  0.2123  0.2542
25170W        W41064   7.439   5.503   5.100 -0.1673  0.1611  0.1543
25171W        W41065   8.348  14.246   2.826 -0.0799  0.3383 -0.3618
25172W        W41066  16.386   7.051   4.500 -0.1537  0.3130  0.1780
25173W        W41067   8.284  14.140  16.858 -0.0367 -0.0326  0.1607
25174W        W41068  16.423  12.516   5.543 -0.3541 -0.1391  0.2465
25175W        W41069   2.698   2.175   1.124 -0.0681  0.1314 -0.1133
25176W        W41070  17.393   3.477  16.509  0.0218  0.3131  0.2647
25177W        W41071   0.039  14.528   2.868 -0.2077 -0.1575  0.0158
25178W        W41072  10.395   7.490  15.078 -0.0195  0.0409  0.2074
25179W        W41073   3.452   4.306  12.057  0.0759  0.0561  0.1542
25180W        W41074  10.075   8.742  13.609 -0.2763  0.2990  0.1595
25181W        W41075   8.088   3.196   3.484  0.0531  0.3133 -0.2539
25182W        W41076  16.956   4.710  10.948 -0.1654 -0.0262 -0.2679
25183W        W41077   2.711   6.643   2.427  0.1183 -0.1088  0.0994
25184W        W41078   7.529  11.775   5.001  0.2117 -0.0919 -0.3894
25185W        W41079   2.404   9.196  15.271 -0.0254 -0.1751  0.2347
25186W        W41080   2.407  14.592  12.721 -0.1918  0.3184  0.0247
25187W        W41081  13.487  11.570  15.528  0.1326 -0.0741 -0.0610
25188W        W41082  10.009   8.350   3.886 -0.1994  0.0133 -0.4227
25189W        W41083  16.395  14.423  16.573 -0.1628  0.2982  0.1072
25190W        W41084  11.257   2.745  11.911 -0.0797 -0.1556  0.0070
25191W        W41085   2.014  12.802   5.515 -0.0052 -0.1864  0.0240
25192W        W41086   3.623   7.026  16.468  0.0842 -0.1030 -0.3151
25193W        W41087  17.657  15.670   3.149 -0.2849 -0.2845  0.3031
25194W        W41088  11.018   8.247  12.466 -0.0383  0.0550 -0.0601
25195W        W41089   0.183   5.567  14.062  0.0298  0.0405  0.0842
25196W        W41090   7.921   6.205  12.473  0.1353  0.0570 -0.2745
25197W        W41091   3.316  13.651   4.731 -0.1175 -0.1109 -0.2104
25198W        W41092   0.942   2.650   1.804  0.1357  0.0585  0.1922
25199W        W41093  13.678   9.985   6.494 -0.1414 -0.2581  0.0521
25200W        W41094   5.769   5.762  12.204  0.0551 -0.2861 -0.3401
25201W        W41095   2.304   6.588  16.392  0.0979  0.0393 -0.4431
25202W        W41096   5.697  12.004  13.586  0.1908  0.0765 -0.5722
25203W        W41097   3.892  17.273   4.391 -0.2027 -0.0390 -0.3869
25204W        W41098   6.616   0.300  16.745  0.2240 -0.2739  0.6577
25205W        W41099  12.115   7.605   2.891  0.2251  0.1359 -0.4803
25206W        W41100   7.761   3.740   1.563 -0.2323 -0.1163 -0.0646
25207W        W41101  14.366   6.031  16.013 -0.1469 -0.0619 -0.0539
25208W        W41102   1.163   5.596   3.709 -0.0028 -0.1533  0.1655
25209W        W41103   6.872  16.765   0.139  0.1571  0.1027 -0.2018
25210W        W41104  17.696  13.551  14.993 -0.1088  0.1833  0.2897
25211W        W41105   3.257   4.084   1.565 -0.0132  0.1847  0.0005
25212W        W41106  16.630  13.436  13.895  0.3139 -0.1065 -0.0384
25213W        W41107  11.306  11.609   3.825 -0.2937 -0.1889 -0.0072
25214W        W41108  15.044   5.510   0.711 -0.2603 -0.0971  0.3832
25215W        W41109  13.616   9.269   3.945 -0.0184 -0.1019 -0.1801
25216W        W41110  10.424  12.845  13.448  0.6215 -0.0665 -0.0641
25217W        W41111   0.427   3.515   5.340  0.0531  0.0531 -0.1011
25218W        W41112   8.750   4.780   6.172  0.1824  0.2702 -0.1132
25219W        W41113  10.222   9.162  14.067  0.3417  0.2693  0.0777
25220W        W41114   6.870   8.849   4.409  0.0222  0.0764  0.1528
25221W        W41115  17.238   7.766   4.923 -0.0081 -0.1321  0.2372
25222W        W41116   4.243   4.421   1.880  0.1424 -0.2175 -0.0636
25223W        W41117  10.557   3.487  14.187 -0.2025  0.0201 -0.0878
25224W        W41118   6.562  14.235   0.440  0.0002 -0.0090  0.2343
25225W        W41119   6.636  11.084   5.352 -0.0346  0.0776 -0.0534
25226W        W41120  15.950   1.711   3.041 -0.2795  0.2120 -0.4079
25227W        W41121  12.773   8.293  16.168 -0.1393 -0.3431  0.0164
25228W        W41122  16.081   0.392   0.234 -0.1528 -0.0768  0.0103
25229W        W41123   4.547   8.738   3.986 -0.0440  0.0369 -0.0107
25230W        W41124   8.469  14.742  12.989 -0.1608 -0.0852 -0.3548
25231W        W41125  11.816   9.612  14.315  0.0534  0.0536 -0.1311
25232W        W41126   5.676  10.729   3.430  0.2388 -0.1068  0.1793
25233W        W41127  13.401   3.884   1.328 -0.1410 -0.0628 -0.2070
25234W        W41128  10.574   5.023   1.008 -0.2843  0.1097 -0.2031
25235W        W41129   8.492  15.106  16.772  0.3607 -0.0369  0.2794
25236W        W41130   3.336  10.771   0.532  0.1346 -0.0804  0.0743
25237W        W41131  17.544  11.277  12.376 -0.2241  0.0844  0.0722
25238W        W41132   4.169   8.944   3.160 -0.1225  0.1214 -0.1951
25239W        W41133   8.251   9.469   1.811 -0.0721  0.0897  0.0804
25240W        W41134   9.510  12.080   5.067  0.1922  0.2340  0.3186
25241W        W41135   2.359   3.190  14.930 -0.1834  0.0599  0.3974
25242W        W41136  17.561   1.020   0.904 -0.1591 -0.2591 -0.2099
25243W        W41137  14.012  12.605   4.222  0.0564  0.0883  0.1043
25244W        W41138  15.608  11.660   4.682 -0.3839  0.2992 -0.0122
25245W        W41139   3.539   2.529   4.909  0.0248 -0.0204 -0.3136
25246W        W41140  16.718  11.861   1.079 -0.1495 -0.0133  0.0751
25247W        W41141   4.045  17.514   5.291 -0.0872 -0.2410  0.0353
25248W        W41142  17.148  17.177  14.537 -0.0526 -0.0547 -0.2599
25249W        W41143  17.612   5.211  13.682 -0.1673  0.1174 -0.0436
25250W        W41144   0.458  15.542   1.140 -0.1823 -0.2495  0.0251
25251W        W41145   8.740  13.443   3.256  0.2151  0.0654 -0.1828
25252W        W41146   9.908  10.087  14.792 -0.2547  0.1001  0.1099
25253W        W41147   1.198   8.653  14.178 -0.0309 -0.2753  0.0741
25254W        W41148  14.911  13.908  15.799  0.2126 -0.0400 -0.1592
25255W        W41149  16.331  13.624   3.975 -0.0904  0.0576 -0.0183
25256W        W41150   8.030   6.401  16.104  0.0897  0.0284  0.0516
25257W        W41151   3.450  11.665  16.024  0.1756 -0.0183  0.1008
25258W        W41152   7.181   1.920   1.733  0.1170 -0.3263  0.1735
25259W        W41153  13.792  13.997  14.500  0.1968 -0.2439 -0.0818
25260W        W41154   0.866  12.162  14.882 -0.1317  0.2340 -0.0627
25261W        W41155  13.968   1.125   4.236  0.1125 -0.0031  0.0817
25262W        W41156  11.052  16.589   1.619 -0.3796  0.0714  0.0589
25263W        W41157  15.374   9.351   0.630 -0.1013  0.4135 -0.0114
25264W        W41158  17.140  17.358  11.812 -0.0238  0.0903  0.0168
25265W        W41159  17.469   4.840   1.454 -0.1007 -0.0961 -0.3095
25266W        W41160   6.316   4.652  15.124  0.0861  0.0735 -0.0189
25267W        W41161   6.472  16.717  12.066  0.0083 -0.1157  0.3294
25268W        W41162   3.596   7.107   3.795 -0.0413 -0.0709  0.2617
25269W        W41163   2.623   0.965   4.128 -0.0835 -0.1097 -0.0590
25270W        W41164   2.944   5.400  15.415 -0.1609 -0.0859 -0.3136
25271W        W41165  10.499   7.254   4.683 -0.1928 -0.0150 -0.2302
25272W        W41166   8.394   7.686  16.467  0.1199  0.3282  0.2381
25273W        W41167   7.301  11.734  12.375 -0.4199  0.0567 -0.1029
25274W        W41168   2.464  14.243  13.109 -0.0055 -0.1656 -0.1181
25275W        W41169  16.197   7.156  15.562 -0.1287  0.1231  0.1434
25276W        W41170  15.813  12.553   4.337 -0.1230  0.2027 -0.1023
25277W        W41171   6.185  11.807   1.929  0.0780 -0.1394 -0.3005
25278W        W41172  17.120  16.958  14.970  0.2246 -0.0544 -0.2451
25279W        W41173   7.597   5.640   0.715  0.2515 -0.2364 -0.1892
25280W        W41174  16.021   3.443   5.582 -0.2527  0.2369  0.1494
25281W        W41175   1.743   5.043   4.078  0.2915 -0.2579 -0.0737
25282W        W41176   5.941  13.747  15.607 -0.1325 -0.0158  0.0417
25283W        W41177  13.990  12.608   1.189 -0.1798 -0.2516 -0.0509
25284W        W41178  17.215  15.584   0.848  0.0216 -0.0020  0.0190
25285W        W41179  10.392  14.830   1.310 -0.2462  0.2232 -0.0253
25286W        W41180   5.628   2.800   3.537 -0.3308 -0.1381  0.1400
25287W        W41181  10.122   4.994   5.364  0.3174  0.3352 -0.1467
25288W        W41182  15.776   2.566   0.949  0.1971 -0.1017  0.1334
25289W        W41183  13.060  11.992   5.672  0.1781 -0.1493 -0.1392
25290W        W41184   6.408   0.576  11.990  0.2278  0.0330 -0.1960
25291W        W41185  17.171  16.944   4.007 -0.0600 -0.0373  0.1258
25292W        W41186   9.259   5.650  13.529  0.2439  0.5114 -0.2177
25293W        W41187  12.488   9.189  15.983  0.0905 -0.2720  0.2424
25294W        W41188  12.802  15.215   0.686 -0.1726  0.0831 -0.2891
25295W        W41189  12.036  12.923  16.468 -0.0603  0.1053  0.4510
25296W        W41190  15.062  13.419  12.168 -0.0037  0.0515 -0.0201
25297W        W41191  15.117  10.743  11.753  0.0118  0.1149 -0.3430
25298W        W41192  13.981   2.560   2.735  0.0384  0.3004  0.2426
25299W        W41193  10.919  14.903   1.607  0.0706 -0.2907  0.2086
25300W        W41194   2.302   3.918  10.857 -0.2155  0.1876 -0.0203
25301W        W41195  14.701   8.177  13.260 -0.0323 -0.1915 -0.1794
25302W        W41196   0.544   0.336  15.887  0.0083  0.1704 -0.0420
25303W        W41197   8.159   4.131  14.471 -0.1723 -0.1870  0.1524
25304W        W41198   8.769   1.971  11.461  0.1476 -0.0524 -0.4589
25305W        W41199   8.663  16.809  13.981 -0.0061 -0.0839  0.3079
25306W        W41200  16.054   1.000   3.832  0.1008  0.0400 -0.1607
25307W        W41201   8.838  11.006  14.296 -0.0793 -0.3506 -0.0704
25308W        W41202   0.021   3.419  16.129 -0.1068 -0.3397 -0.2834
25309W        W41203   7.223  13.184   1.665 -0.4007  0.1428 -0.3311
25310W        W41204  11.428   8.888   3.224 -0.3488  0.1571 -0.1945
25311W        W41205   1.030   5.567   5.294  0.0023  0.0991  0.0661
25312W        W41206   7.414   3.754  13.003 -0.1295  0.0553 -0.1695
25313W        W41207  15.148  12.921   4.062 -0.1628  0.1355  0.0124
25314W        W41208  12.831   2.603  14.850 -0.0105 -0.3366 -0.2218
25315W        W41209   9.777  12.388  15.616  0.0442  0.1456  0.3162
25316W        W41210   9.631   1.452   2.877 -0.3026 -0.0810 -0.1772
25317W        W41211  13.441  16.928  13.314  0.1080  0.0685 -0.4431
25318W        W41212   0.164  11.153   2.800 -0.0376  0.1216  0.1054
25319W        W41213   9.756  17.376  16.653 -0.1052 -0.2932  0.4341
25320W        W41214   5.617  13.380  16.910  0.3175  0.1885  0.1567
25321W        W41215   4.024   1.427  15.032  0.0657  0.2054 -0.1695
25322W        W41216  13.266   9.898  13.260 -0.0634  0.0579 -0.2151
25323W        W41217  11.641  16.151  13.902 -0.0682 -0.1982  0.2043
25324W        W41218   3.067   0.601  13.848 -0.2010 -0.2763  0.0783
25325W        W41219  17.364  13.767  16.730 -0.2888  0.3889 -0.0099
25326W        W41220   7.835  10.819   2.045 -0.1239 -0.1746 -0.2844
25327W        W41221  16.925   5.952  16.897 -0.2396  0.1758 -0.0008
25328W        W41222  16.531  15.318   0.313 -0.1695  0.1429  0.3857
25329W        W41223   6.689   9.253   4.055 -0.1735  0.0936  0.1808
25330W        W41224  13.616   4.705   3.916 -0.0104 -0.0303  0.2534
25331W        W41225  16.417   8.103  14.400 -0.4534 -0.0845  0.1717
25332W        W41226   9.695  12.641   5.804  0.0319 -0.1933  0.1153
25333W        W41227  11.270   7.903  13.265 -0.2255 -0.0635 -0.1130
25334W        W41228   0.136  11.612   0.095  0.3252 -0.2188  0.1720
25335W        W41229   4.767   7.508   0.602  0.0261  0.1673 -0.2302
25336W        W41230   2.440  13.896   4.903  0.0616  0.3028  0.2118
25337W        W41231   4.749   2.681  16.417 -0.2524  0.2057  0.0392
25338W        W41232  14.192  11.975  15.982 -0.3888 -0.0096 -0.1037
25339W        W41233   9.655  11.398  12.112  0.2604  0.3600 -0.0295
25340W        W41234  16.450   8.270   5.708  0.0124 -0.2504  0.2247
25341W        W41235   5.988   6.854   1.163  0.0785  0.0960  0.1967
25342W        W41236  10.195  16.682   6.338  0.0222 -0.0237  0.1762
25343W        W41237   6.740   5.570   3.876 -0.3113  0.1140  0.0445
25344W        W41238  12.721  10.188   1.685 -0.3641 -0.3456  0.0920
25345W        W41239  12.115   5.500  14.224 -0.1906 -0.0476 -0.4258
25346W        W41240   6.396   8.370   1.938  0.2454 -0.1222 -0.2588
25347W        W41241  12.815   6.395   4.568  0.0356  0.0208  0.3090
25348W        W41242   8.992   0.891   4.096  0.4580  0.3096  0.1977
25349W        W41243  10.652   1.739  14.676 -0.0377 -0.1875  0.1596
25350W        W41244   1.237   7.444   4.652  0.1272 -0.0123 -0.1429
25351W        W41245   9.493   6.733  11.811  0.0425 -0.0589 -0.0463
25352W        W41246   1.091   7.789  11.697  0.0357 -0.1607 -0.0907
25353W        W41247  10.987   3.992  16.138  0.1397  0.0173  0.0995
25354W        W41248   1.256  16.835  14.942  0.0113  0.3009  0.3972
25355W        W41249   8.643   4.634  16.744 -0.1871 -0.0550  0.0525
25356W        W41250   2.852   6.458   3.355 -0.2333  0.4142 -0.1950
25357W        W41251   4.591   2.743  13.078  0.1996  0.0197 -0.1148
25358W        W41252  13.458   0.580  13.081  0.0546  0.2414 -0.4216
25359W        W41253  11.866  16.936  15.985  0.1880 -0.3660 -0.1449
25360W        W41254   3.121   7.559   0.260  0.0485 -0.0099  0.1401
25361W        W41255   3.445   4.785  15.925 -0.2089  0.0731 -0.2794
25362W        W41256  11.594   7.669  11.828  0.3277 -0.0263  0.2127
25363W        W41257  14.851   6.957   2.108 -0.0078  0.0619  0.1503
25364W        W41258  15.987   2.120  15.384 -0.1127  0.3209 -0.0515
25365W        W41259   5.016  13.804  16.242  0.1774 -0.3226  0.2770
25366W        W41260   0.632  10.390  15.475 -0.1545 -0.1437  0.0040
25367W        W41261   3.482   7.847  12.451 -0.1225 -0.3955  0.1211
25368W        W41262  11.282  17.016  13.700 -0.0630 -0.0942  0.1290
25369W        W41263   0.533   4.191  15.490  0.0908  0.0167  0.0290
25370W        W41264   5.407  16.694   0.414  0.0520 -0.1641  0.0772
25371W        W41265  14.127  13.852  13.039  0.1114 -0.0069  0.0340
25372W        W41266  16.045  15.062  15.406 -0.1936  0.0820 -0.0161
25373W        W41267   3.054  14.011  10.834  0.1850 -0.2375 -0.1182
25374W        W41268   0.581  11.139   4.007 -0.0008 -0.1202  0.2101
25375W        W41269   5.352   8.903  15.260  0.1069  0.1188  0.4165
25376W        W41270   7.039   9.084  15.072 -0.1382 -0.1219 -0.1213
25377W        W41271   3.382   3.585   5.057 -0.0456  0.1109 -0.0149
25378W        W41272  13.601  14.031  13.083  0.0250  0.3577 -0.0584
25379W        W41273   7.110   1.911   5.430 -0.3717  0.0877  0.2295
25380W        W41274   0.118  12.123  16.283  0.2053 -0.0501  0.0262
25381W        W41275  15.300   9.139  14.857  0.1619  0.1127  0.2577
25382W        W41276   3.568  14.911  13.614 -0.0540 -0.0768 -0.1060
25383W        W41277   4.174  15.695  13.846 -0.0013 -0.1072  0.1631
25384W        W41278   5.599  17.231  12.781  0.4332 -0.2022  0.0141
25385W        W41279  11.403  15.482   1.555 -0.0512  0.1840  0.0743
25386W        W41280   7.949   4.308   6.537  0.0724 -0.1249 -0.0661
25387W        W41281  10.702  11.168   3.629  0.0600  0.2390 -0.1993
25388W        W41282   8.522  13.247   2.745  0.0505  0.0360 -0.0629
25389W        W41283   6.091  17.087  14.148  0.1524 -0.0190 -0.0074
25390W        W41284   0.601  14.044  16.001 -0.3101 -0.1241  0.0906
25391W        W41285  16.969   4.256   4.704 -0.1070  0.0202  0.3126
25392W        W41286   7.352   7.765   5.011  0.0867  0.2257 -0.0993
25393W        W41287  12.580   5.271   2.897 -0.3607  0.1172  0.2602
25394W        W41288   2.561   5.109   3.055 -0.1124  0.0583 -0.0042
25395W        W41289  10.275   5.649   1.779  0.0278  0.0267  0.1545
25396W        W41290  16.957  16.401  15.164 -0.2545 -0.0078 -0.2511
25397W        W41291   9.107   3.008   3.925 -0.0349 -0.1112  0.3491
25398W        W41292  10.485  13.401  12.811  0.1709 -0.3016 -0.2757
25399W        W41293  14.650  14.589   0.209  0.3294  0.3042  0.1108
25400W        W41294   3.091   0.642  16.230  0.0219  0.2460  0.0265
25401W        W41295   3.194   5.479   5.079 -0.0336  0.2657 -0.0346
25402W        W41296  17.641   6.262   4.697 -0.1551 -0.1412  0.0248
25403W        W41297  14.499  17.573   2.536  0.2404 -0.0089  0.1372
25404W        W41298  10.774  10.109  13.015  0.1862 -0.1600 -0.3762
25405W        W41299  11.297   2.142   4.720  0.2583  0.0891  0.0190
25406W        W41300  16.777  10.559   2.893  0.2700 -0.2583 -0.0022
25407W        W41301  14.446   8.698   4.789  0.1973 -0.4027  0.1927
25408W        W41302   0.157   4.935   2.906 -0.0783  0.2336  0.1561
25409W        W41303   9.161  13.673   3.457 -0.0532  0.0043 -0.0856
25410W        W41304   0.776   6.936   3.400 -0.2713 -0.2641 -0.2455
25411W        W41305  15.028   8.332  16.864  0.3473  0.1280 -0.4293
25412W        W41306  15.437  10.314  11.103  0.0034  0.2560 -0.1898
25413W        W41307   9.938   2.228  15.295 -0.0790 -0.3109  0.1002
25414W        W41308  14.602  16.116   0.592 -0.0226 -0.2320 -0.1117
25415W        W41309   4.643   0.899   3.662  0.0522  0.0882 -0.2224
25416W        W41310  11.066  16.156   4.680  0.1127 -0.0403 -0.0541
25417W        W41311   6.430   8.177   0.743 -0.1417  0.0392  0.0125
25418W        W41312   7.258   6.668  14.986  0.2949  0.2430 -0.0253
25419W        W41313  11.649   3.958   4.752 -0.0553 -0.2797 -0.0913
25420W        W41314  16.374  13.260   0.629  0.0757  0.0802 -0.0439
25421W        W41315  12.912   5.068   2.464  0.2505  0.0900  0.0782
25422W        W41316   3.450  11.298  13.781 -0.1405 -0.1477  0.2112
25423W        W41317   8.322   0.565  12.913  0.1157  0.1082  0.1217
25424W        W41318   1.887  14.263   3.556 -0.0097 -0.0495 -0.1577
25425W        W41319  16.474   5.930   2.044 -0.1314 -0.0775  0.2254
25426W        W41320   8.660  12.865  14.915  0.1717  0.1191  0.0185
25427W        W41321  16.644  16.271   1.625 -0.1487 -0.1104  0.2437
25428W        W41322   9.395   8.337  14.903 -0.1730 -0.1141 -0.2769
25429W        W41323   0.417   5.323   2.658 -0.2713 -0.2829  0.3170
25430W        W41324  13.023   6.755   4.324 -0.1725 -0.1480  0.0357
25431W        W41325  17.548  16.321  12.271  0.2362  0.2701 -0.2239
25432W        W41326   6.487  13.653  15.480 -0.0705  0.2397  0.0007
25433W        W41327   8.090  15.028  13.063  0.2330 -0.2578 -0.1506
25434W        W41328  13.444   5.565   0.113  0.1692 -0.1388 -0.0132
25435W        W41329   6.595  11.800  15.525  0.0204  0.1009  0.0337
25436W        W41330   4.413  10.682   3.893  0.0501 -0.3660  0.1074
25437W        W41331   3.798  13.722  13.087  0.2704  0.1420 -0.0339
25438W        W41332  15.924  10.773   4.908  0.1607  0.0740 -0.0215
25439W        W41333   9.844  11.114  13.081 -0.0929  0.0799 -0.0391
25440W        W41334  13.490  17.117  16.548 -0.2152 -0.2098 -0.1516
25441W        W41335  11.504  13.154  16.312 -0.0416 -0.0224  0.0514
25442W        W41336   6.695  13.311  13.884  0.0244 -0.2248 -0.0326
25443W        W41337  17.107  10.627  16.479 -0.0155  0.0900 -0.3108
25444W        W41338  17.831   7.307  14.107 -0.2715 -0.1632  0.1175
25445W        W41339  16.898   1.476  15.436  0.2189  0.1167 -0.0547
25446W        W41340   5.082  13.889   1.839 -0.0632  0.1854 -0.2152
25447W        W41341  13.893  17.624  15.580  0.0152  0.1196  0.1287
25448W        W41342  13.819  13.333   2.425 -0.2704 -0.1857  0.0948
25449W        W41343   9.886  11.889  14.522  0.0848  0.1749 -0.0619
25450W        W41344  16.914  13.240   4.477 -0.2295 -0.0330  0.0956
25451W        W41345  17.488   6.184  13.932 -0.4779 -0.2096 -0.1282
25452W        W41346   8.852  15.336   0.177  0.0890  0.0525 -0.2990
25453W        W41347   4.777  16.606  11.921  0.2169  0.6077  0.1296
25454W        W41348   6.928   3.653  12.994  0.3256  0.0052 -0.0326
25455W        W41349  16.354   0.526  13.444  0.1661 -0.2393  0.2032
25456W        W41350  15.827   2.302   4.458 -0.3281 -0.1204  0.1120
25457W        W41351  16.112   8.084   3.888  0.0961  0.0791 -0.0954
25458W        W41352   5.204  17.683  12.657  0.0102 -0.1448  0.4541
25459W        W41353   6.521   5.456   3.333 -0.4245 -0.1454 -0.0239
25460W        W41354  13.292   3.490  14.811 -0.0015 -0.1659  0.0517
25461W        W41355   8.022   2.190  11.347 -0.0395 -0.1909  0.2483
25462W        W41356  14.915  14.624  12.230 -0.1131  0.0568 -0.1244
25463W        W41357  13.502  11.602   5.753  0.1253  0.2493  0.2229
25464W        W41358   2.012  16.668  10.888  0.0254  0.2742 -0.0452
25465W        W41359   2.814   7.165   1.031 -0.1042  0.1024 -0.1854
25466W        W41360   6.695   3.864  13.922  0.1274 -0.1294  0.0932
25467W        W41361   3.644  12.360  12.409  0.0309  0.1565  0.0718
25468W        W41362   8.690   8.649  15.531 -0.0177  0.0008 -0.3430
25469W        W41363  14.619   9.451  14.430 -0.0117  0.0670  0.1559
25470W        W41364   6.344   4.754  13.976  0.0848 -0.1736 -0.0165
25471W        W41365  11.423  17.283  15.880 -0.1306  0.2216  0.0575
25472W        W41366  16.128   3.709  12.840 -0.0489 -0.1773  0.2470
25473W        W41367  12.840   4.317  14.712 -0.0424 -0.3358 -0.2209
25474W        W41368   6.117   5.466  14.939  0.1291  0.0185  0.2407
25475W        W41369   7.944  15.190   5.424  0.1241 -0.1070  0.2076
25476W        W41370   0.033   1.676   4.544  0.1499 -0.0201  0.4819
25477W        W41371  11.564  15.687  13.666 -0.3433 -0.0898  0.0313
25478W        W41372   7.191   9.722  12.790  0.3451  0.1498  0.0633
25479W        W41373   5.685   5.266  15.753 -0.0241  0.2458  0.1233
25480W        W41374   0.385  15.822   4.225 -0.0178 -0.1162 -0.1052
25481W        W41375   6.634  11.270  15.609 -0.1994  0.1210 -0.1690
25482W        W41376  13.259   9.168   3.487 -0.0548  0.2408 -0.3524
25483W        W41377   6.412  11.123  16.851  0.2452  0.0650  0.0881
25484W        W41378  13.707  15.784  16.078  0.2192  0.0175  0.0691
25485W        W41379  10.058  15.908  14.619 -0.1602 -0.2304  0.0005
25486W        W41380   7.537  12.079  16.422  0.4163 -0.1013  0.0694
25487W        W41381  11.506   2.205  13.196  0.1421 -0.1431 -0.0855
25488W        W41382  15.228  13.479   2.217 -0.0000  0.0343 -0.0966
25489W        W41383   7.560   7.105   3.231 -0.0876 -0.0025  0.1716
25490W        W41384  14.343  16.752  15.432  0.0992 -0.2669 -0.0156
25491W        W41385  10.692   9.320  14.072  0.0702 -0.4027 -0.2761
25492W        W41386  12.066   3.172   2.118 -0.1540  0.0661  0.1425
25493W        W41387   4.880  13.893  14.481  0.1407 -0.2668 -0.4059
25494W        W41388  14.636   4.372   4.858 -0.0257 -0.1602  0.0933
25495W        W41389   5.481  13.687  15.904 -0.1767  0.2701  0.0193
25496W        W41390  10.092   4.456   5.356  0.1280  0.0118  0.0188
25497W        W41391   3.259   2.969   2.929  0.2320 -0.0180 -0.1856
25498W        W41392   3.847   1.520  13.586  0.2258  0.2885 -0.2600
25499W        W41393  13.756  10.112   3.485 -0.2875 -0.0216  0.1885
25500W        W41394  11.396  14.395  16.155  0.2953 -0.0170  0.1498
25501W        W41395   8.309  15.438  13.342  0.0458 -0.0194  0.3018
25502W        W41396   3.606   1.785   5.431  0.2296 -0.1289  0.2649
25503W        W41397  15.644   2.379  11.244 -0.0326  0.1991 -0.0835
25504W        W41398  11.366   5.718  16.385  0.0863  0.1773 -0.0185
25505W        W41399   1.972   5.310   3.701 -0.0239 -0.2108  0.1433
25506W        W41400   7.051   9.450   1.279  0.0873  0.0606 -0.4578
25507W        W41401   4.386   6.737   2.630 -0.0312 -0.0488 -0.1277
25508W        W41402   6.798   9.323   5.343 -0.1429  0.0554 -0.0144
25509W        W41403   6.074  12.740   3.656 -0.0107  0.2484  0.1178
25510W        W41404   5.930  10.080   1.861  0.0558 -0.0598  0.1146
25511W        W41405  13.485  17.490  16.169  0.2025 -0.2610 -0.0450
25512W        W41406  11.840   4.152   4.212  0.0411  0.2775 -0.2084
25513W        W41407  10.077   6.805   1.627  0.0750 -0.3294  0.2848
25514W        W41408   0.766  12.604   6.418 -0.2201 -0.0062  0.0499
25515W        W41409  16.464   2.703  14.308  0.0829  0.1373 -0.1501
25516W        W41410  15.749  13.196  15.360 -0.2112 -0.0708  0.3261
25517W        W41411   2.895  13.906   0.420  0.0284 -0.0691 -0.1426
25518W        W41412   6.852  12.259   3.082  0.0389 -0.2359 -0.3485
25519W        W41413  11.774   5.105  14.218 -0.0800 -0.1787 -0.1635
25520W        W41414  15.529  11.658  15.668  0.0329  0.2379  0.2338
25521W        W41415  10.594  11.397  12.886 -0.2661 -0.3815 -0.2611
25522W        W41416   6.025   9.268  16.057  0.0231  0.0837 -0.3137
25523W        W41417  14.122  16.354  12.151  0.4099  0.1313 -0.0231
25524W        W41418  12.703   5.324   6.041 -0.2123 -0.1352  0.0621
25525W        W41419  14.821   6.195   2.576 -0.0441 -0.2054  0.0765
25526W        W41420  10.248   5.421  12.042 -0.0537 -0.0555 -0.0507
25527W        W41421   5.199  10.215  14.254 -0.0945  0.2834  0.1402
25528W        W41422   9.806   7.512  16.018 -0.2431  0.2964 -0.3831
25529W        W41423   1.725   3.297  16.878  0.0609  0.0426  0.0538
25530W        W41424   8.820  14.058   3.270 -0.0402  0.4321  0.0534
25531W        W41425  13.510   3.767  12.188  0.0536  0.2181  0.2199
25532W        W41426   3.648  13.048   1.289  0.0216  0.0955 -0.1011
25533W        W41427  12.531   5.640   0.267  0.0958  0.0557  0.1750
25534W        W41428  16.101   8.916  12.562 -0.0801  0.0615  0.3948
25535W        W41429   1.922   3.847   1.729  0.0970 -0.0273 -0.0404
25536W        W41430   9.427   4.196   5.991 -0.1784  0.0044  0.0666
25537W        W41431   0.613   8.595   1.063  0.1073  0.0319 -0.2888
25538W        W41432   0.908   2.672  14.211  0.1976  0.1638  0.1422
25539W        W41433   4.545   5.519  15.041 -0.2566  0.3285  0.1239
25540W        W41434   2.041   3.649   5.065 -0.2131  0.1601  0.0695
25541W        W41435   7.874   3.300  16.873  0.1506 -0.0655 -0.0215
25542W        W41436  13.185  14.686  14.188  0.1820  0.1566 -0.0143
25543W        W41437  16.902  13.017  15.505  0.0550 -0.3428  0.0940
25544W        W41438   2.228   8.131  14.616 -0.1353 -0.2895  0.2934
25545W        W41439   6.315   7.213   6.444 -0.1021  0.2678  0.0721
25546W        W41440  10.589  16.405   1.939 -0.0506  0.1334 -0.1603
25547W        W41441  15.943   2.747  12.893  0.3012  0.2545  0.1441
25548W        W41442   3.294  16.833   0.458  0.0138  0.0134  0.1999
25549W        W41443   0.097   2.850   3.592  0.0045 -0.0591  0.0103
25550W        W41444   1.021   6.709  15.003 -0.1534  0.1051 -0.1108
25551W        W41445  10.575   8.137   1.176 -0.2076  0.2638  0.1711
25552W        W41446  16.250  13.620  12.880 -0.0254 -0.1982 -0.3620
25553W        W41447  12.750   3.598  13.042  0.3168  0.1751  0.0379
25554W        W41448  10.032  12.680  16.922 -0.0728  0.2065  0.0831
25555W        W41449   8.023   8.725  11.755 -0.1610  0.2171  0.1028
25556W        W41450  10.567  11.617   5.815 -0.2568 -0.0579  0.0016
25557W        W41451   4.328  15.809  14.429 -0.1014 -0.3080 -0.0966
25558W        W41452   3.115   2.792  13.174 -0.0620  0.1652 -0.2659
25559W        W41453  14.121   7.987  15.586  0.0536 -0.1520 -0.0085
25560W        W41454  14.674   1.261   3.597  0.1919 -0.1691 -0.0942
25561W        W41455   9.522  16.950   4.747  0.0119 -0.0368  0.6380
25562W        W41456   2.685   4.153   3.698  0.0158 -0.1122  0.1021
25563W        W41457   4.320   7.249  12.693  0.1812 -0.2667  0.2889
25564W        W41458   6.096   8.349  14.460 -0.3120  0.1175 -0.2007
25565W        W41459   4.292   0.220  15.552 -0.2286 -0.0452 -0.0338
25566W        W41460   0.023   9.064   2.211  0.0409 -0.0891  0.0141
25567W        W41461   5.470  15.454  13.543  0.1709  0.0776 -0.0649
25568W        W41462  14.056   0.640   0.741 -0.0358 -0.0548 -0.3175
25569W        W41463   7.224   0.413  16.302 -0.0117  0.2271  0.2708
25570W        W41464   6.791  11.640   0.982 -0.1479  0.3116 -0.1063
25571W        W41465   3.580   6.933  12.685 -0.1427  0.1604 -0.0002
25572W        W41466  16.552  15.192   4.079  0.1718 -0.0451 -0.0183
25573W        W41467   6.349   5.768   0.421  0.0929 -0.0818 -0.0157
25574W        W41468   0.373  13.894   3.848 -0.3760 -0.3708 -0.0637
25575W        W41469  13.107   8.113   2.592  0.1880 -0.1667 -0.0242
25576W        W41470  16.814   1.706   3.201  0.2031  0.4943  0.0378
25577W        W41471   8.358  12.423  15.317  0.0705  0.1776 -0.2706
25578W        W41472  12.953   0.576  13.286 -0.0036 -0.2543  0.0247
25579W        W41473   6.820  15.981  15.840  0.0243 -0.0424 -0.0405
25580W        W41474  11.452  11.212   1.362  0.3135 -0.2900 -0.2657
25581W        W41475   3.466   9.062   0.270  0.0377 -0.0973 -0.0367
25582W        W41476   2.781   3.610   0.458 -0.2150 -0.1183 -0.1063
25583W        W41477  12.612   1.238   2.441 -0.0203 -0.0754 -0.3570
25584W        W41478   5.908   7.157  14.667 -0.3139 -0.1492  0.0382
25585W        W41479  17.408   5.282  15.752 -0.1224 -0.0281  0.1073
25586W        W41480  10.842  10.238   2.196 -0.0834 -0.0210 -0.0429
25587W        W41481   9.792  17.284  14.364 -0.0979 -0.2330 -0.0409
25588W        W41482   4.523   6.992   1.858 -0.0058  0.2319  0.2659
25589W        W41483   6.185   0.203  12.252  0.1702 -0.2772 -0.0528
25590W        W41484  13.520   6.905   0.661  0.1090 -0.0663 -0.0639
25591W        W41485   3.301  12.884   2.800  0.1489  0.0026 -0.1356
25592W        W41486   0.140   7.042   2.787  0.0795  0.3051  0.0036
25593W        W41487   6.999  10.608   3.158 -0.2150  0.2287 -0.1154
25594W        W41488   6.173  15.649   1.727  0.2587 -0.0245 -0.0812
25595W        W41489  13.858  14.702   2.754  0.1351 -0.1938 -0.1900
25596W        W41490   4.343  16.697   4.939 -0.0795  0.1769 -0.0229
25597W        W41491   1.264   9.882   3.647  0.1546  0.1579  0.1148
25598W        W41492  11.058   8.721  14.567 -0.3161 -0.1359 -0.0354
25599W        W41493   4.828   9.871   0.923 -0.1072  0.1596 -0.3527
25600W        W41494   1.299   2.350  12.063  0.0078 -0.1408  0.0960
25601W        W41495   2.310   9.994  16.661  0.0336 -0.0085  0.2651
25602W        W41496   1.704   9.035   3.922  0.2890 -0.1146 -0.0738
25603W        W41497   4.237  17.273  12.927  0.2772  0.3055  0.0975
25604W        W41498  15.265  14.438  16.360  0.4960 -0.1504  0.2482
25605W        W41499   7.009  13.142   5.224 -0.1131 -0.0324 -0.0019
25606W        W41500   3.035   4.048  16.025  0.1601  0.1661 -0.1915
25607W        W41501   9.294  17.501  15.545  0.1053  0.3125  0.0731
25608W        W41502  12.068  13.683   1.200 -0.0192  0.1018 -0.0490
25609W        W41503   9.730   0.854   5.984  0.0375 -0.2236 -0.1515
25610W        W41504   7.270  13.323  12.438 -0.0569  0.1592  0.0475
25611W        W41505   0.992   9.401  13.121  0.0836  0.0669  0.0386
25612W        W41506  11.023   0.455   2.909  0.1006 -0.1215  0.3630
25613W        W41507  10.503  15.091   4.830 -0.2459  0.4142  0.0548
25614W        W41508   1.773   0.876  16.256  0.1758 -0.3367 -0.4635
25615W        W41509   0.819  10.473  12.735  0.1035  0.3387  0.3141
25616W        W41510  15.241   5.450   1.517  0.0534  0.0609  0.0444
25617W        W41511  11.986   6.263  16.749  0.1140 -0.2400 -0.0376
25618W        W41512  16.603   2.724  13.818 -0.2743 -0.1064 -0.0606
25619W        W41513  14.032  15.994   5.311 -0.0249 -0.1333  0.2459
25620W        W41514  13.709   4.983  12.790  0.0741 -0.3757 -0.0410
25621W        W41515   2.962   6.418  11.647 -0.2032  0.5062 -0.0290
25622W        W41516  10.317  15.654   4.235 -0.1078  0.0595  0.2238
25623W        W41517  12.291  14.226  14.116  0.2581  0.0414  0.0655
25624W        W41518   4.679   7.967  16.808 -0.0224 -0.3451  0.0149
25625W        W41519   3.275  14.176   2.598  0.0151  0.0626  0.3174
25626W        W41520   0.789   2.559   5.857  0.0893 -0.2068  0.2437
25627W        W41521   8.618   1.411  12.734  0.1217 -0.2008 -0.0319
25628W        W41522   7.122  11.450  14.344  0.1133 -0.0367 -0.0409
25629W        W41523  12.459   3.262  16.860 -0.3299  0.0867 -0.0850
25630W        W41524   7.400  13.153   4.876 -0.0159 -0.0720 -0.1629
25631W        W41525   2.604  16.799  16.731 -0.0450  0.3413  0.4081
25632W        W41526  16.312   3.626  13.702  0.0106  0.1843  0.0014
25633W        W41527   2.278  10.297   6.077  0.2751 -0.0987 -0.0178
25634W        W41528   3.788   9.346   4.956  0.4029  0.0391 -0.1126
25635W        W41529  16.403   7.946  16.710  0.1503  0.1203  0.2832
25636W        W41530  15.759  14.075   1.268 -0.1207  0.0126  0.0274
25637W        W41531   9.395   9.394   0.659  0.0992 -0.0914  0.1218
25638W        W41532   2.798   2.452  11.508 -0.1098 -0.4696 -0.0048
25639W        W41533  11.041  14.729   2.051 -0.1752  0.1918 -0.1090
25640W        W41534   9.519  15.057   1.326 -0.0146  0.0164  0.2030
25641W        W41535  16.638   0.838   4.904  0.0043 -0.2577  0.0789
25642W        W41536   2.209   5.422  16.762 -0.0993  0.0402 -0.0607
25643W        W41537  11.671   7.311  15.422 -0.0923 -0.0140  0.1117
25644W        W41538  14.120   0.360  13.893 -0.0555 -0.0176 -0.1347
25645W        W41539   7.274  13.891   0.253 -0.0597  0.0073  0.1068
25646W        W41540   0.940   4.346   4.536  0.0879  0.0869  0.2706
25647W        W41541  13.672  13.188  13.410  0.0657  0.3162 -0.1368
25648W        W41542  13.640   8.084  15.267  0.5074 -0.2773  0.1022
25649W        W41543  11.865  10.024   0.014 -0.0280  0.0911 -0.0876
25650W        W41544  12.269  13.835   5.519  0.0179  0.1205 -0.3439
25651W        W41545  10.964   4.200  14.635  0.1903  0.2567  0.2898
25652W        W41546   5.253  10.898   1.844 -0.2939 -0.1140  0.2982
25653W        W41547   3.016   9.067   4.941  0.0251  0.0151 -0.0499
25654W        W41548   1.854  11.324  12.202 -0.4877 -0.0820  0.0927
25655W        W41549   4.128  16.040   3.368  0.0066 -0.2704 -0.1438
25656W        W41550   1.028   1.756   5.479  0.1859  0.1335  0.3330
25657W        W41551  17.037   7.135   1.749  0.3211 -0.0875 -0.0098
25658W        W41552  16.295  17.643  14.257 -0.1570 -0.0539 -0.0873
25659W        W41553   7.272  10.891   0.454 -0.0450  0.0462  0.1654
25660W        W41554  13.487   0.522  11.757  0.2179 -0.2551  0.2407
25661W        W41555   1.323  15.893   3.404 -0.1113 -0.0009  0.0571
25662W        W41556  14.988   9.835   3.696 -0.1536 -0.0413 -0.0756
25663W        W41557   9.042  16.417  15.904  0.1102  0.0249 -0.4126
25664W        W41558   3.810   8.210   1.385  0.1516 -0.1118  0.0952
25665W        W41559  16.310   8.308  10.970  0.0207  0.1578 -0.1939
25666W        W41560  14.830  12.300  13.954  0.1345 -0.1026  0.1221
25667W        W41561  12.925   0.117  14.433 -0.2448 -0.0157  0.1459
25668W        W41562  11.223   6.257   0.878  0.0724 -0.0693 -0.0214
25669W        W41563   7.644  15.719   5.886 -0.0069  0.2768  0.2174
25670W        W41564   6.895  12.025   3.554 -0.1926 -0.0607 -0.0060
25671W        W41565   0.622   7.098   0.626 -0.0633 -0.1929  0.2287
25672W        W41566  17.765  15.560   0.980  0.1118 -0.0308  0.0982
25673W        W41567  14.649  17.399  16.263  0.1093 -0.0086 -0.1910
25674W        W41568   3.967   8.737   3.600 -0.2532 -0.0753  0.2049
25675W        W41569   2.615   2.602   3.410 -0.0249 -0.0631  0.0467
25676W        W41570   5.476   8.828  13.699 -0.0929 -0.2248  0.0368
25677W        W41571   3.159   0.581   4.806  0.2826  0.0351  0.0933
25678W        W41572   5.241  16.945  16.853 -0.1343 -0.0408  0.2815
25679W        W41573  13.086   3.044  11.940 -0.3097 -0.0683  0.0690
25680W        W41574   7.474  14.205   1.473  0.2232 -0.0812  0.0320
25681W        W41575   5.913   4.997  12.748  0.1138 -0.0144 -0.1544
25682W        W41576   5.780   1.190   0.763  0.1311 -0.0969  0.1252
25683W        W41577   9.889  17.491   2.408  0.0252  0.0414 -0.0301
25684W        W41578   7.142   9.812  11.674 -0.1178 -0.1333  0.0106
25685W        W41579   5.169   1.404  16.541  0.0925 -0.3989 -0.1856
25686W        W41580  11.618   0.715  14.903  0.0496 -0.1836  0.2786
25687W        W41581   3.768  14.186  16.658 -0.1843  0.1009  0.1971
25688W        W41582  11.971   0.348  12.500  0.0522 -0.0003 -0.1724
25689W        W41583   2.882  12.115  13.706  0.4241 -0.1405  0.0505
25690W        W41584  16.117  10.245  12.416 -0.2617  0.1935  0.2707
25691W        W41585  14.801   8.851  12.474  0.2469  0.3795 -0.1937
25692W        W41586   8.492   0.337   3.349  0.0654 -0.1184  0.0189
25693W        W41587   3.354  14.593   1.996 -0.0453  0.0851  0.3049
25694W        W41588  13.423   0.993   4.009  0.0040 -0.2554 -0.0075
25695W        W41589  11.995  10.292  14.190  0.0987 -0.0691  0.0009
25696W        W41590  10.627   6.484   2.350 -0.1085  0.1025  0.1460
25697W        W41591   9.537  10.475   0.924  0.3051  0.0862 -0.0115
25698W        W41592   9.194   9.347   0.124  0.0907 -0.1343 -0.1514
25699W        W41593  11.518   5.400   3.511  0.2351 -0.1048  0.0177
25700W        W41594  13.372  10.111   4.289  0.1578 -0.0296 -0.0071
25701W        W41595   6.457  17.613   5.035  0.1388 -0.1210  0.0484
25702W        W41596  13.845   6.170   0.323 -0.1286 -0.2085 -0.0002
25703W        W41597   3.179  12.836   0.611 -0.1412 -0.0707 -0.0758
25704W        W41598  11.832   1.117   6.211  0.1517  0.2035  0.1639
25705W        W41599   5.385  15.753  13.959  0.0231 -0.1958  0.1850
25706W        W41600   4.173   8.797  16.598 -0.1838 -0.0625  0.0760
25707W        W41601   1.449   6.389  16.858 -0.0672  0.2029 -0.0919
25708W        W41602   2.313   8.607   0.588  0.0581 -0.0765 -0.1503
25709W        W41603  16.296   6.319   2.550  0.1159 -0.1529 -0.3301
25710W        W41604  10.483   7.557   6.066  0.0754  0.0317 -0.0115
25711W        W41605  12.191   9.698   2.452  0.2970 -0.0872  0.1650
25712W        W41606  14.388  14.628  15.414 -0.1322 -0.0988  0.0741
25713W        W41607  16.694  13.322  15.187 -0.0337  0.2191  0.0532
25714W        W41608  15.710  12.200   2.130  0.2796  0.1993  0.0208
25715W        W41609   2.276  13.874   3.439 -0.0840  0.1541  0.0159
25716W        W41610  13.805  17.273   0.436  0.0865 -0.3200  0.2597
25717W        W41611   5.439  10.617  14.111 -0.2549  0.3425 -0.0390
25718W        W41612  15.547  17.515  13.890  0.1943  0.0567 -0.0298
25719W        W41613  15.599  11.322   5.157  0.0176  0.0776  0.2158
25720W        W41614  15.309   4.252  14.767 -0.0112 -0.1901  0.0847
25721W        W41615   8.949   2.198   1.439 -0.1374  0.2170  0.2423
25722W        W41616   1.765  14.855  15.629 -0.1210 -0.2621  0.4030
25723W        W41617   4.563  12.063   3.996  0.1785 -0.0787  0.3590
25724W        W41618  10.027   6.474  13.955  0.0357 -0.2488  0.1012
25725W        W41619  11.779  14.260   0.270  0.1859 -0.0492 -0.0743
25726W        W41620   6.529   3.410  13.687  0.2200  0.0947  0.0287
25727W        W41621   0.830   3.651  14.649  0.2540  0.0530  0.2531
25728W        W41622  14.968  14.854  16.399 -0.2588 -0.2028 -0.2531
25729W        W41623   9.180   1.899  15.270 -0.3760  0.2776  0.0156
25730W        W41624  14.733  15.203   5.999  0.0490  0.0201 -0.0028
25731W        W41625  11.411  17.776  15.025  0.0627 -0.0526 -0.0079
25732W        W41626   6.933   7.992   0.738 -0.0278  0.1291 -0.4317
25733W        W41627  13.328   0.435  14.438  0.2360 -0.0969 -0.0729
25734W        W41628   1.371  10.813  15.893 -0.2494  0.0696 -0.2304
25735W        W41629  14.148  12.127   5.093 -0.2028  0.1797  0.1587
25736W        W41630   6.254  15.656  16.570 -0.1382 -0.1872  0.0025
25737W        W41631  10.922  13.794   1.162  0.3410  0.1019  0.0126
25738W        W41632   7.418  10.670   1.884  0.1984 -0.2627 -0.0545
25739W        W41633  14.955   1.130  14.524  0.0408  0.1060 -0.0718
25740W        W41634   2.867   1.197   1.763 -0.1528  0.2697  0.3801
25741W        W41635   8.027   9.506  12.243 -0.2174 -0.1080 -0.1640
25742W        W41636  15.517   0.188   4.752  0.2029 -0.0483 -0.0932
25743W        W41637  11.197   9.632   0.346  0.1594  0.0846 -0.1116
25744W        W41638   1.487   2.512  13.854  0.3597 -0.2189 -0.0429
25745W        W41639  15.718  10.017  14.167 -0.1227  0.1823  0.0651
25746W        W41640   2.447  10.745  12.198 -0.0112  0.1602  0.1482
25747W        W41641   3.769  11.896   3.721 -0.3268 -0.0904 -0.1646
25748W        W41642  11.909   7.535  16.601  0.1441 -0.0054  0.1258
25749W        W41643  15.773  13.965   6.182 -0.0851 -0.0308 -0.0984
25750W        W41644  16.281   4.166   2.802  0.1332 -0.1782 -0.2809
25751W        W41645   5.710  16.975   0.760 -0.0637  0.1127 -0.0521
25752W        W41646  13.982   6.618   0.479  0.0257  0.0479 -0.0598
25753W        W41647  14.043  12.646   3.731  0.1001 -0.0854 -0.1503
25754W        W41648   1.941   4.934   1.716 -0.0514 -0.0115 -0.4285
25755W        W41649  11.170   5.067  11.262 -0.1222 -0.1322  0.0094
25756W        W41650  14.524  16.575  12.295  0.1222  0.1330  0.2668
25757W        W41651  12.752  11.714  16.378 -0.0605 -0.0170 -0.2466
25758W        W41652   8.401   5.521   2.401 -0.1667 -0.1573  0.1578
25759W        W41653   9.027  11.163   2.712 -0.1207  0.1509 -0.2318
25760W        W41654  13.908  10.461   5.643  0.0344 -0.1456 -0.0146
25761W        W41655   5.165   8.038   4.167  0.1631  0.0518 -0.2728
25762W        W41656  16.760  17.210  12.480  0.1782  0.1524  0.2758
25763W        W41657   1.907   9.820   5.052 -0.1721  0.2180 -0.1473
25764W        W41658  17.114  10.205   4.147  0.1589 -0.0549 -0.1834
25765W        W41659   0.529   1.079   3.949 -0.1463 -0.0578  0.2758
25766W        W41660  12.174   2.046   1.152 -0.0887  0.1485  0.0507
25767W        W41661   5.605  15.051  13.879  0.0346 -0.0093  0.2479
25768W        W41662   9.031  13.241  12.029  0.1739 -0.1847  0.1657
25769W        W41663  17.434   5.007   4.279  0.0145 -0.2926  0.0320
25770W        W41664   6.405  12.725  15.778  0.3101 -0.3084  0.1897
25771W        W41665   9.604   0.193  15.625 -0.0250 -0.4119  0.1872
25772W        W41666   1.519  17.203  15.804 -0.2089 -0.2445 -0.0540
25773W        W41667   7.954   0.556   1.161 -0.2428  0.0391 -0.0161
25774W        W41668   1.173   8.818  15.054  0.0187 -0.1544 -0.1534
25775W        W41669  16.315  12.593  16.606 -0.0024 -0.1377 -0.1964
25776W        W41670  11.778  15.698   1.921  0.1495 -0.0105  0.1727
25777W        W41671   3.874  11.692   4.703 -0.0063 -0.1805  0.1051
25778W        W41672   9.678  13.734  16.685 -0.3013 -0.0987  0.2271
25779W        W41673   7.267   4.801  15.141 -0.0019  0.0424 -0.0858
25780W        W41674  12.520   5.892   3.546 -0.0010 -0.0494 -0.2569
25781W        W41675  13.594  10.358   6.096  0.0191  0.1076  0.1790
25782W        W41676   9.400   0.152   1.322  0.0641 -0.1184  0.0120
25783W        W41677   5.949   8.307  16.175  0.0339 -0.3543  0.2264
25784W        W41678   0.885  12.772  12.163 -0.2122  0.0199 -0.3808
25785W        W41679  11.207  12.165  16.581 -0.0281 -0.2045  0.1348
25786W        W41680   2.954  17.427  16.248  0.0159  0.0189 -0.0834
25787W        W41681  16.728   8.646   1.627  0.2745 -0.1651 -0.1394
25788W        W41682  14.001  15.015  12.264  0.0934 -0.1287  0.0416
25789W        W41683  16.241   0.197  15.895  0.3143  0.0509 -0.5517
25790W        W41684  16.715   1.405   5.058  0.0043 -0.2523 -0.0393
25791W        W41685   9.528   4.429   1.704 -0.1582  0.2039 -0.0607
25792W        W41686  11.442  15.268  11.895 -0.0259  0.0584 -0.1913
25793W        W41687   7.931  16.117   5.769  0.2941 -0.4555 -0.1860
25794W        W41688   4.465  15.928  11.498  0.3549 -0.0546 -0.1944
25795W        W41689  12.336   6.305  13.161  0.2510  0.0025 -0.0956
25796W        W41690  17.815   4.955   0.941 -0.1265 -0.1242  0.0061
25797W        W41691  16.322  14.260  12.207 -0.2445  0.1510  0.0538
25798W        W41692   9.404   1.649  12.715  0.0744 -0.2413 -0.1773
25799W        W41693  11.172  14.698   2.892  0.2127  0.0005  0.4532
25800W        W41694  15.051   6.586  14.525  0.1821  0.0680  0.2140
25801W        W41695   0.567  15.839  16.292  0.2201  0.6325 -0.0396
25802W        W41696  16.034  11.024  14.000 -0.1278 -0.0650  0.2793
25803W        W41697  12.165   6.351  15.751 -0.2205  0.0246 -0.2175
25804W        W41698   8.634  12.661  13.414 -0.0786 -0.2522  0.0431
25805W        W41699   3.547   0.526  13.825  0.0867  0.2356  0.3240
25806W        W41700  13.180   6.503  13.691  0.1037 -0.0289  0.2998
25807W        W41701  15.185   0.057   5.560 -0.0450 -0.0395  0.1089
25808W        W41702  10.233   2.686  15.674 -0.0321  0.0300  0.1325
25809W        W41703   6.673   6.729  12.781 -0.0800  0.0544  0.2653
25810W        W41704  17.192   3.475   3.631 -0.2497 -0.1937 -0.1655
25811W        W41705   6.673   5.685  13.749  0.0062  0.2720  0.0202
25812W        W41706   4.224  15.707   1.226 -0.1396 -0.0652  0.2420
25813W        W41707   1.374   8.333   3.653 -0.0414  0.1290 -0.3262
25814W        W41708  17.647   8.151   4.910 -0.2344  0.2801 -0.0180
25815W        W41709  12.854   5.540   4.551 -0.1932 -0.1081 -0.1462
25816W        W41710  13.275   1.404  11.082  0.2814  0.0202 -0.1694
25817W        W41711   0.843   7.529  16.732 -0.0045 -0.0175 -0.1621
25818W        W41712   2.667   0.346   4.899 -0.1935  0.1510  0.2508
25819W        W41713  12.910   0.935   3.889 -0.0216 -0.2507  0.0945
25820W        W41714   9.573  16.611   0.737 -0.2494  0.0662 -0.2656
25821W        W41715  14.965   4.777   0.567  0.0033 -0.1693 -0.1629
25822W        W41716   3.974  17.131   5.717 -0.4278  0.0157 -0.0058
25823W        W41717  15.574   7.786  16.124 -0.0669  0.0822 -0.1751
25824W        W41718   6.403   2.100   2.038 -0.0567 -0.1114 -0.1795
25825W        W41719  10.436  11.854   4.833  0.0697 -0.0433 -0.1262
25826W        W41720  12.299   0.533  13.893 -0.0752 -0.1060  0.0085
25827W        W41721   1.723  13.511  14.361 -0.2196  0.1213 -0.1884
25828W        W41722  11.128   0.219  11.510  0.1950 -0.1924  0.1071
25829W        W41723   2.591   1.704   5.652 -0.0389 -0.2628  0.1797
25830W        W41724  14.946   7.673   5.553 -0.1497 -0.3637 -0.0625
25831W        W41725  13.538   8.305   4.053 -0.1816 -0.1759 -0.1106
25832W        W41726   4.718  12.303  13.908 -0.1048 -0.0061 -0.1391
25833W        W41727   8.500  13.896   2.062 -0.0087  0.2063 -0.0062
25834W        W41728   2.050  14.921   1.340  0.1627 -0.1134 -0.0131
25835W        W41729   4.057  13.874  13.449  0.2288 -0.2318 -0.1292
25836W        W41730   3.253   5.762   2.687 -0.2636  0.0710 -0.0603
25837W        W41731   2.979   1.901   2.896  0.2044 -0.2248  0.0407
25838W        W41732  12.239   7.945   1.547 -0.0751 -0.2923  0.0775
25839W        W41733  17.287   7.731  15.681 -0.0316 -0.0551  0.0745
25840W        W41734   7.944   6.759   3.270  0.4155  0.0004  0.2740
25841W        W41735   9.337   7.055  15.430 -0.0709 -0.4003  0.0062
25842W        W41736   0.126   8.906  12.823 -0.2248  0.1104  0.0940
25843W        W41737   3.822   3.652   3.210 -0.1373 -0.4514  0.0824
25844W        W41738  15.311   4.740  15.158  0.0823 -0.2486 -0.2391
25845W        W41739  16.163   3.025   5.177 -0.3427  0.1009  0.0495
25846W        W41740   7.322  11.610  15.538 -0.1103 -0.2022  0.3479
25847W        W41741   3.088  17.541  15.788  0.2157  0.0580  0.0945
25848W        W41742   8.329   4.982   5.381 -0.0968  0.0049 -0.0847
25849W        W41743  17.481   7.227   5.496  0.0454  0.0409  0.2035
25850W        W41744   0.439  10.526   3.696  0.0660 -0.2621  0.3115
25851W        W41745  11.846   8.790   3.442  0.1851  0.0599 -0.1275
25852W        W41746   8.589   1.413  12.178  0.2430 -0.2550  0.0854
25853W        W41747   8.051  13.721   4.787  0.0204  0.2354  0.1366
25854W        W41748  17.310   8.269   2.625 -0.3174 -0.1815 -0.1142
25855W        W41749  13.048   7.706   2.291 -0.1260  0.1969  0.0748
25856W        W41750  14.069   4.561  16.461 -0.0329  0.1776  0.0154
25857W        W41751   5.188   3.415  15.361  0.2000 -0.1283 -0.2802
25858W        W41752   0.483   5.631  15.648  0.0272  0.1655  0.4096
25859W        W41753   8.607   1.271   0.930 -0.1483  0.5648  0.3708
25860W        W41754   2.590   3.598  16.434  0.2241  0.2614  0.1181
25861W        W41755   1.865   6.947   0.219  0.2426  0.4326  0.1925
25862W        W41756   6.634   7.207  14.241  0.0091 -0.1282  0.1129
25863W        W41757   4.902  10.542   4.815 -0.0766 -0.0481 -0.0208
25864W        W41758  13.228   7.557   1.850 -0.2086  0.0992  0.0350
25865W        W41759  16.313   4.518   2.412 -0.2182  0.2718 -0.1336
25866W        W41760   5.755  10.920  13.083  0.0111 -0.0630  0.4898
25867W        W41761   9.144  14.381  12.931 -0.0640 -0.1369 -0.1314
25868W        W41762   5.519  14.144   3.204 -0.1459 -0.0383  0.2180
25869W        W41763   4.516   8.150   1.322  0.1833  0.6424  0.0570
25870W        W41764   5.862  13.532   3.997  0.0339 -0.3198 -0.3192
25871W        W41765   0.117   5.139   0.470  0.1829 -0.2606  0.0297
25872W        W41766   1.197  11.407  15.606  0.0530 -0.2184 -0.2833
25873W        W41767   8.601   1.748   0.678  0.0127 -0.2314 -0.0595
25874W        W41768  10.745   2.252   2.925  0.3428 -0.0213  0.3276
25875W        W41769   3.322  14.611   2.863  0.2803 -0.1829 -0.2218
25876W        W41770  16.001  10.631   0.745 -0.1267 -0.3312 -0.1897
25877W        W41771   4.543   8.913  11.502  0.0320  0.0559 -0.0351
25878W        W41772   4.766   0.351   2.501 -0.0146  0.1120  0.0601
25879W        W41773  17.321   1.806  12.003 -0.1456  0.1230  0.2839
25880W        W41774  13.255  15.661   0.041 -0.2931  0.1049  0.2348
25881W        W41775   8.011  14.297  13.712 -0.0929  0.0745 -0.0502
25882W        W41776   4.471   7.210  13.537 -0.1152 -0.1294 -0.3897
25883W        W41777  15.649   1.872  12.449  0.2839 -0.0483 -0.1042
25884W        W41778   7.002  14.134  12.875 -0.2886  0.2144  0.2275
25885W        W41779   0.002   2.780  12.706 -0.1836 -0.0678  0.4281
25886W        W41780  16.140  13.917  11.168 -0.0634 -0.1733  0.0074
25887W        W41781  10.380   0.604   1.022 -0.1307  0.1281  0.2886
25888W        W41782  10.248  16.638   1.208 -0.2520 -0.0289  0.1600
25889W        W41783  12.079  13.746   5.076 -0.0936 -0.0364 -0.3558
25890W        W41784   6.582   9.879  15.628 -0.2949  0.3606 -0.2748
25891W        W41785   6.390   5.198   1.007 -0.0414  0.0521 -0.1356
25892W        W41786   3.987   3.269   1.821 -0.1820  0.2324 -0.0281
25893W        W41787   8.624   6.727  12.238 -0.2554 -0.1335 -0.0537
25894W        W41788   0.245  12.778  12.847  0.0051 -0.0275  0.0059
25895W        W41789  17.537   9.691  15.383  0.1206 -0.1721 -0.1852
25896W        W41790  13.079  16.918  15.840  0.2773 -0.1803  0.1220
25897W        W41791   8.395   0.151  16.356 -0.1926  0.2150 -0.1267
25898W        W41792  11.220   0.659  11.920  0.2781 -0.1618 -0.0614
25899W        W41793  14.840   8.024  16.340 -0.2942 -0.1740 -0.2005
25900W        W41794  15.223  13.151  11.738  0.0022  0.2032 -0.3806
25901W        W41795   0.806  15.563  15.802 -0.0039 -0.2135  0.0251
25902W        W41796   8.413   7.165  16.482 -0.0349 -0.0376 -0.0505
25903W        W41797  12.040   0.720   1.548 -0.1214  0.1723  0.0571
25904W        W41798   6.353   8.404  14.045 -0.1548  0.3024 -0.3260
25905W        W41799  10.191   1.136   3.595 -0.3049 -0.1449  0.1839
25906W        W41800  11.853   5.529  10.704 -0.2345 -0.0703  0.2386
25907W        W41801   6.582   7.984  13.836 -0.2188 -0.0614  0.2432
25908W        W41802   4.919   4.307   0.190  0.1901  0.0795 -0.0178
25909W        W41803  11.228   3.313   0.868 -0.1456  0.0781 -0.0034
25910W        W41804   0.285  12.984   4.852 -0.0052  0.0615  0.1143
25911W        W41805  10.032  12.625  16.000  0.0540  0.0921  0.2822
25912W        W41806  14.792   8.911   0.100 -0.0406 -0.2336  0.1079
25913W        W41807   3.329  15.151  16.549 -0.1591  0.1243 -0.1159
25914W        W41808  13.282   6.287  12.352  0.2902  0.0576  0.1433
25915W        W41809   7.922   5.841  11.715  0.0257  0.0011 -0.0152
25916W        W41810  17.449   2.211  11.142  0.0705  0.1042 -0.1848
25917W        W41811  16.323   4.879  13.306 -0.2387 -0.3209 -0.3833
25918W        W41812  14.950   0.937   0.617  0.2813  0.1042  0.1555
25919W        W41813   2.421   1.470  12.160  0.0105 -0.0624 -0.0427
25920W        W41814   6.100   8.105   2.842  0.0224 -0.2131 -0.4480
25921W        W41815  10.900  11.440  15.456 -0.0735  0.2455  0.1627
25922W        W41816   1.043   7.295  11.944  0.0160 -0.0179 -0.1910
25923W        W41817  11.183  12.499  13.430  0.2219  0.3394  0.1267
25924W        W41818   8.957   4.388   3.927  0.3285  0.1309  0.3472
25925W        W41819   9.217   1.691   0.030 -0.2811  0.1690  0.0652
25926W        W41820  14.308   8.496  15.600 -0.0285  0.0552  0.0831
25927W        W41821   5.303  16.949   1.824  0.1598 -0.1687 -0.0122
25928W        W41822   9.937  10.942   5.403 -0.4721 -0.0107  0.0336
25929W        W41823  17.820   8.153   3.475 -0.3242  0.0776 -0.0527
25930W        W41824   2.449   6.860  15.895  0.1068  0.1909 -0.0753
25931W        W41825  12.693   9.451   2.351 -0.1097  0.0392 -0.1549
25932W        W41826  11.519  16.034   4.840 -0.2887  0.0707 -0.2239
25933W        W41827   3.005  15.897   2.369 -0.4160  0.0668 -0.0353
25934W        W41828   4.193   4.259   0.399  0.0199 -0.1422  0.0693
25935W        W41829   5.248   9.943  13.800 -0.0036 -0.2689 -0.2583
25936W        W41830   9.441   4.538  12.886  0.0429  0.0103 -0.1480
25937W        W41831   1.175   1.194  15.204 -0.0407  0.4189  0.1072
25938W        W41832  13.595  11.843  15.148  0.0748 -0.0171 -0.0112
25939W        W41833   6.965  12.156   4.431 -0.1375 -0.0125  0.1513
25940W        W41834  16.213   7.045   2.162  0.0355 -0.2930 -0.0711
25941W        W41835   3.033  14.704  12.265  0.1153 -0.0679  0.1788
25942W        W41836   8.986   6.226   3.285  0.2924 -0.0489 -0.3384
25943W        W41837   3.676  15.734  11.809  0.0468  0.3802  0.1168
25944W        W41838   9.348  17.539   0.652 -0.0526  0.0475  0.2457
25945W        W41839  10.542   0.500  12.855 -0.1692  0.0999 -0.0693
25946W        W41840   1.411  10.608  11.946  0.0281 -0.0640 -0.0290
25947W        W41841  10.668  17.254  11.665  0.2346  0.1343 -0.1276
25948W        W41842   3.243   1.304   3.652  0.0885  0.3118  0.1813
25949W        W41843  13.168  17.817   1.018  0.1922  0.0000  0.2200
25950W        W41844   9.334   9.787   5.476  0.0190  0.1844  0.3878
25951W        W41845   2.908   7.899   0.533 -0.1478  0.1416  0.0630
25952W        W41846  13.851  12.618  15.497  0.1141  0.0322 -0.1349
25953W        W41847   7.768  15.946  15.881 -0.0221 -0.0703 -0.0251
25954W        W41848   9.150   2.082   2.829 -0.1122 -0.0025  0.1556
25955W        W41849  16.866   1.187  10.694 -0.4282  0.1044  0.1120
25956W        W41850  10.001  15.386   0.619 -0.1370  0.0201  0.0977
25957W        W41851   9.144   9.927  13.582 -0.0853 -0.0350 -0.0509
25958W        W41852   7.038  14.986   3.135 -0.0995  0.1173 -0.2428
25959W        W41853  15.514  11.210   3.784 -0.4242 -0.0348  0.1295
25960W        W41854   5.542   2.203   3.582 -0.0411  0.1023 -0.5914
25961W        W41855   7.015  12.829  16.380  0.1364  0.1698 -0.3654
25962W        W41856  12.852  15.432  13.716  0.0362  0.0242 -0.0674
25963W        W41857  14.547   6.536   1.262 -0.2222  0.0594 -0.1171
25964W        W41858   5.548  11.073   5.990 -0.3622  0.0328 -0.3392
25965W        W41859   7.307  15.116  13.496  0.2894 -0.2278 -0.1123
25966W        W41860   7.417   9.887   3.376  0.1652 -0.0118  0.3076
25967W        W41861  16.078  15.346  13.636 -0.0109 -0.2283 -0.1605
25968W        W41862  10.345   4.794  13.596 -0.0499  0.3376 -0.1501
25969W        W41863  16.924   9.743  14.713  0.1413  0.2345  0.0776
25970W        W41864  14.897   9.165   5.458 -0.3224 -0.1336  0.1036
25971W        W41865   2.963  17.749   1.694  0.2281  0.1337  0.2350
25972W        W41866  12.188  13.970   2.120  0.0286 -0.1434  0.2491
25973W        W41867  11.577   9.334   1.465 -0.0836 -0.3706  0.0926
25974W        W41868   5.476  16.347  15.644 -0.1455 -0.0807 -0.0968
25975W        W41869  14.261  17.041   5.224  0.4208 -0.0392 -0.4572
25976W        W41870   8.086   2.342  14.067 -0.2641  0.3524  0.1460
25977W        W41871   1.423   4.123   3.910  0.0320 -0.0424  0.0636
25978W        W41872   4.886   0.101   3.998 -0.1363  0.0453  0.1678
25979W        W41873  11.339  10.101  16.887 -0.0574  0.2963 -0.1847
25980W        W41874  11.886   5.708   2.263 -0.1575  0.3455  0.1703
25981W        W41875  16.187   9.750   4.525  0.2237 -0.1984 -0.0464
25982W        W41876  15.057   4.139   0.760 -0.1604 -0.1390 -0.3270
25983W        W41877   2.545   4.283  15.863  0.0064  0.1079 -0.2846
25984W        W41878   8.412   9.462   3.323  0.0736  0.2484  0.0109
25985W        W41879  16.610  17.334   4.459  0.2297  0.0234  0.0175
25986W        W41880   1.481   2.907  11.637 -0.0658 -0.1625 -0.0197
25987W        W41881   2.413   5.561  13.679 -0.1109 -0.0635 -0.0060
25988W        W41882  15.152  10.158   1.392 -0.3461 -0.0866  0.0149
25989W        W41883  16.025  14.709   4.427 -0.1694 -0.1499 -0.2096
25990W        W41884   8.606   6.382  14.872  0.2772 -0.0342 -0.0776
25991W        W41885  16.958  15.983   2.594  0.0519 -0.0054  0.2979
25992W        W41886   9.616  17.821  15.187 -0.2142  0.0331 -0.1456
25993W        W41887  15.479  12.484   2.545 -0.3973 -0.2147 -0.1621
25994W        W41888   4.471   2.365  12.680  0.2784 -0.1834  0.0923
25995W        W41889   1.484   0.390  12.126 -0.0798  0.1282 -0.0726
25996W        W41890   0.449   1.350  14.730  0.2954  0.6630 -0.0747
25997W        W41891   6.157  16.317  11.983  0.3852 -0.0056  0.0515
25998W        W41892  15.441   5.417  16.778  0.1856 -0.1347 -0.1101
25999W        W41893  17.102  15.679  14.408  0.2095  0.0370  0.0259
26000W        W41894   4.639  15.619  13.003 -0.1159  0.2023  0.1220
26001W        W41895   0.879   3.894  15.845  0.1640 -0.0206  0.1547
26002W        W41896  16.325   2.707   1.048  0.3556  0.0517 -0.0022
26003W        W41897  14.476  11.331   3.949 -0.0859  0.3310 -0.1445
26004W        W41898   7.861   0.616  12.038 -0.2038 -0.0470 -0.1770
26005W        W41899  17.798   8.428  14.031  0.0297 -0.1404 -0.1392
26006W        W41900   6.520  15.822   0.040  0.2111 -0.1125  0.2327
26007W        W41901   3.555   6.677  15.225 -0.0813 -0.1572  0.0572
26008W        W41902  11.430  14.173  14.428  0.2786  0.1219 -0.1237
26009W        W41903   8.736  15.481  12.004  0.1409  0.0090  0.1896
26010W        W41904   0.531   0.651   3.051 -0.2327  0.1666  0.0596
26011W        W41905   9.584   9.264   2.579  0.1282  0.0376 -0.0765
26012W        W41906   9.193  10.670  14.461 -0.0491 -0.1054 -0.1835
26013W        W41907   1.134  15.737  11.776 -0.1943  0.2676  0.3608
26014W        W41908   8.516  14.575   4.456  0.0602 -0.0567  0.2966
26015W        W41909  13.017   3.734   0.535 -0.1478  0.1257  0.2727
26016W        W41910   0.087  17.432  14.050  0.2737 -0.1611  0.1652
26017W        W41911   4.237   9.502   4.705 -0.0848  0.1225  0.2262
26018W        W41912  13.938  17.232  12.338  0.1130 -0.1121 -0.0276
26019W        W41913   1.797   0.875   1.974 -0.3599 -0.2112 -0.2863
26020W        W41914   7.363   7.605  11.997 -0.2600  0.1608 -0.0871
26021W        W41915  11.910  15.136  11.989 -0.2140 -0.1868  0.0775
26022W        W41916  15.171  17.519  11.422  0.2867 -0.2812  0.2111
26023W        W41917  17.578   3.026   3.330  0.1271 -0.0312 -0.1103
26024W        W41918  14.186   1.359  15.697  0.3775 -0.1688 -0.0369
26025W        W41919   8.249   0.904  13.321 -0.2528 -0.0161  0.0886
26026W        W41920  13.393   4.903   1.412 -0.2400  0.0377 -0.0218
26027W        W41921  13.623   4.749   1.002 -0.2613  0.0275 -0.0955
26028W        W41922   2.634   7.614   0.954 -0.0548 -0.2644 -0.0401
26029W        W41923  17.848  12.889   1.373 -0.0551 -0.0191 -0.1345
26030W        W41924   2.690  13.202   1.638  0.0019 -0.1341 -0.1289
26031W        W41925  10.463  13.731   3.180  0.0454 -0.3897  0.1013
26032W        W41926  13.008   3.654   4.551  0.2809  0.2007 -0.0885
26033W        W41927   9.948   2.594   1.563  0.1069 -0.1903 -0.0124
26034W        W41928   2.988   9.245   1.192  0.0127  0.0589  0.0602
26035W        W41929  15.854   8.582  13.349 -0.0292  0.1270 -0.0401
26036W        W41930   1.016   7.130   0.229 -0.0384 -0.1156  0.1285
26037W        W41931  10.088  11.818  15.090 -0.0987  0.0299 -0.2268
26038W        W41932   5.470   1.541   0.393  0.1128  0.0903  0.2754
26039W        W41933   5.262   3.616  14.388 -0.0096  0.2556 -0.1633
26040W        W41934  12.047   5.813   3.624 -0.0646 -0.1727  0.2430
26041W        W41935  15.998  12.223  16.433 -0.0733  0.2477  0.0609
26042W        W41936   5.779  15.548   0.437  0.1252 -0.3155  0.0471
26043W        W41937  17.402  16.076   4.466  0.0731  0.1576  0.0592
26044W        W41938   6.301  13.673   2.728  0.0391 -0.1009  0.2569
26045W        W41939  12.391   0.230   3.316 -0.0641  0.0352  0.1055
26046W        W41940   7.430   2.136   4.551 -0.0391  0.4591 -0.1050
26047W        W41941  12.116   3.136   2.653 -0.3200 -0.3747 -0.1333
26048W        W41942  11.969   8.936   0.707  0.1370  0.3083 -0.1250
26049W        W41943  13.037   1.705  12.145  0.1057  0.0848  0.0597
26050W        W41944   9.760   3.979   5.423  0.0428  0.0591 -0.1747
26051W        W41945   2.444   5.743   1.986 -0.2135 -0.0899  0.0971
26052W        W41946   5.144  15.953   4.029  0.1786  0.0833  0.1307
26053W        W41947  15.051   8.952  15.516  0.0493  0.1913  0.3013
26054W        W41948  15.563  17.253   0.067  0.0330 -0.0846 -0.2736
26055W        W41949  17.743   6.296   5.453  0.1273  0.1567 -0.3529
26056W        W41950  17.802  14.522   2.347 -0.0472  0.2158  0.2271
26057W        W41951   7.702   7.747   1.335  0.3510  0.0307  0.1557
26058W        W41952  12.625  16.665  15.418 -0.3357  0.2499 -0.4905
26059W        W41953  14.443  13.306   4.078 -0.1089 -0.4604  0.2670
26060W        W41954  10.829  10.387  15.553  0.0251 -0.4492 -0.0420
26061W        W41955  17.734  13.801   1.497 -0.0171 -0.1526 -0.1491
26062W        W41956  15.600   2.965   3.154  0.1231 -0.2039  0.2559
26063W        W41957   7.762  16.479  13.967  0.1639 -0.3038 -0.0843
26064W        W41958   3.844   6.521   1.743 -0.1957 -0.0102  0.0968
26065W        W41959  16.894   8.051  16.712  0.0085  0.0803 -0.3913
26066W        W41960   5.998  10.555   4.229 -0.2560 -0.0895 -0.2003
26067W        W41961   4.089   9.241  13.200  0.0537  0.1870  0.1600
26068W        W41962   4.173   5.842   3.375  0.1062  0.3698  0.3026
26069W        W41963   4.570   2.751   5.404 -0.0731 -0.1127  0.1880
26070W        W41964  12.374   7.189  12.701  0.0117  0.0603  0.0084
26071W        W41965   0.484   9.085   5.331 -0.0462  0.1441 -0.1463
26072W        W41966   5.440   0.513   0.007 -0.0727  0.0384  0.1543
26073W        W41967  16.957   0.682   4.489 -0.0803 -0.3471  0.1007
26074W        W41968   3.955   5.495   1.116  0.0734 -0.3596 -0.1966
26075W        W41969  16.133  16.771   2.409  0.0739  0.0314 -0.5431
26076W        W41970   4.632  15.684   4.510 -0.2095 -0.0665  0.3925
26077W        W41971  17.124   3.646  15.598  0.0828 -0.0161  0.3722
26078W        W41972   0.355   0.954   0.892  0.1817 -0.0494 -0.1136
26079W        W41973   0.703   6.477  11.931  0.1499  0.2071 -0.1374
26080W        W41974   5.239   3.433  13.896  0.0031  0.2629 -0.2085
26081W        W41975  13.705  11.835   0.688  0.0086  0.0806  0.2437
26082W        W41976   0.575  11.101   3.101 -0.2060 -0.1579  0.0383
26083W        W41977  13.863   9.983  16.272  0.0632  0.1904  0.0416
26084W        W41978   3.143   8.194  13.692  0.0867  0.2515  0.1484
26085W        W41979  15.076   2.522   1.663 -0.0030 -0.1926  0.0874
26086W        W41980   5.885   5.082   5.767  0.0615  0.0623 -0.0540
26087W        W41981   8.334  10.799  14.111  0.1465 -0.1814 -0.1458
26088W        W41982   2.387   2.618  16.792  0.1330 -0.0794 -0.0277
26089W        W41983  10.821   8.179   3.254 -0.0626 -0.5950 -0.2021
26090W        W41984  13.363   4.131   1.810 -0.0855  0.1014 -0.2450
26091W        W41985  12.907   9.430   1.310  0.1690  0.1964 -0.0976
26092W        W41986   1.915  14.049   2.178  0.0273 -0.1823  0.1736
26093W        W41987  16.588   4.438   0.821  0.2097 -0.0427  0.1645
26094W        W41988   8.038  17.270   3.598  0.1472  0.1769 -0.2254
26095W        W41989   6.693   1.778   1.771  0.1523 -0.0042 -0.0009
26096W        W41990  15.510  10.672   0.699  0.1804  0.1366  0.1229
26097W        W41991   3.314  17.441  16.565  0.0749 -0.0169  0.0938
26098W        W41992   1.766   6.183  15.948  0.2272  0.2519 -0.2030
26099W        W41993  14.306  10.899  12.042 -0.0177 -0.0431  0.1797
26100W        W41994   1.552  14.392  12.702 -0.0356  0.0608 -0.0633
26101W        W41995  12.528  14.822  15.494  0.0713 -0.2667  0.0283
26102W        W41996  12.033   5.323   3.357  0.1194  0.0826 -0.1809
26103W        W41997  17.427   7.555   3.941  0.1534 -0.1730  0.1652
26104W        W41998  10.088   7.805   2.781  0.0058  0.0151  0.2757
26105W        W41999   6.850  17.063   3.561 -0.2842  0.0225  0.1116
26106W        W42000  11.284  16.463   2.521 -0.0043  0.0003 -0.0464
26107W        W42001   8.980  11.478   1.391  0.1331 -0.0035  0.0127
26108W        W42002   0.015   0.475  10.257  0.1049  0.2566  0.0432
26109W        W42003  12.571   1.415   0.157  0.1153  0.1860 -0.2120
26110W        W42004   0.645  14.772  15.184  0.0732  0.0535 -0.1556
26111W        W42005  11.330  10.163   3.347 -0.3348 -0.3125 -0.2567
26112W        W42006   3.164  12.678   4.674 -0.0971  0.0348  0.0506
26113W        W42007  14.201   0.732   0.268 -0.2836 -0.1206 -0.0727
26114W        W42008   5.890  16.393   5.315  0.0994  0.2338 -0.1571
26115W        W42009   5.032  17.206  16.467  0.3280  0.0803 -0.0762
26116W        W42010  17.315  16.795  15.922 -0.0169 -0.0406 -0.2753
26117W        W42011   8.554  17.023   5.732  0.0579  0.0696  0.1400
26118W        W42012   4.961  12.351   2.290 -0.1783  0.3134 -0.0186
26119W        W42013  14.301  12.244  14.098  0.1422  0.1099  0.0374
26120W        W42014   6.601  10.280   3.104 -0.0376 -0.5824 -0.0362
26121W        W42015   6.598   7.193   1.035 -0.0957  0.0670  0.1882
26122W        W42016   5.685   1.310  13.537 -0.0908 -0.3187  0.3465
26123W        W42017  11.119  14.531   4.342  0.3723 -0.0187  0.0538
26124W        W42018  12.277   2.287  16.727  0.2293 -0.0756 -0.1100
26125W        W42019   9.742   8.485   3.028  0.3044 -0.1425  0.1073
26126W        W42020  16.900  14.707  14.311 -0.1822  0.2882  0.1247
26127W        W42021  14.166   2.924   3.097 -0.1023 -0.0213 -0.3241
26128W        W42022   5.977  16.891  13.702 -0.1971  0.0528  0.0513
26129W        W42023   5.612   4.296   4.582 -0.0416  0.1987  0.0459
26130W        W42024  13.840   7.495   5.002  0.1994  0.0581  0.0266
26131W        W42025  10.115   1.246   6.168  0.2797  0.2693  0.1054
26132W        W42026  12.031  11.384   3.386  0.0463  0.3020 -0.1991
26133W        W42027   5.328   2.866   1.328 -0.0361 -0.0440  0.2872
26134W        W42028  13.127   6.713   1.586  0.0940 -0.1057 -0.0225
26135W        W42029  11.425   9.954  13.741  0.0691 -0.3509 -0.0186
26136W        W42030   0.817   8.542  13.842  0.0349 -0.1493 -0.1438
26137W        W42031  17.662   1.483  13.206 -0.1603  0.1218 -0.2064
26138W        W42032  10.826   5.269  11.989 -0.1078  0.1371 -0.2301
26139W        W42033   2.749   2.328   0.139  0.4531 -0.0090  0.0121
26140W        W42034  14.589   7.601  13.901 -0.1427  0.2967  0.1340
26141W        W42035   0.177  12.044  12.252  0.1076  0.1041  0.0136
26142W        W42036  13.803   5.085  11.649  0.0580 -0.1087  0.0525
26143W        W42037  10.647   6.368   0.881  0.1075 -0.1066  0.0156
26144W        W42038  15.739   2.839  16.680 -0.0364 -0.0826  0.0482
26145W        W42039   4.583   1.072  15.841  0.5733  0.1228  0.2456
26146W        W42040  15.922   3.797   1.956 -0.2243  0.1390 -0.0320
26147W        W42041  14.425  15.036  16.274  0.0592  0.1454  0.3870
26148W        W42042   8.158   4.520  16.814  0.2151 -0.0572  0.0979
26149W        W42043   6.649  11.976   2.338 -0.1959 -0.0748 -0.0012
26150W        W42044  11.714   2.853   1.871 -0.1969 -0.1624  0.0156
26151W        W42045  13.027   1.062   3.377  0.1797  0.2578 -0.0265
26152W        W42046  17.332   6.151   1.798 -0.2745 -0.1151 -0.2703
26153W        W42047  12.290   1.110   0.800 -0.1725  0.0066 -0.0553
26154W        W42048   8.186   2.835   5.717 -0.1030  0.3412 -0.0524
26155W        W42049   3.854  15.530   4.216 -0.0278 -0.1988 -0.2435
26156W        W42050   0.533  16.116   2.753 -0.0970  0.1875  0.0619
26157W        W42051  15.189   7.793  13.953  0.0655  0.3739 -0.3112
26158W        W42052   0.477   9.856   4.972  0.0481 -0.1488 -0.0460
26159W        W42053   2.473  12.304   0.629 -0.0363 -0.3556  0.1193
26160W        W42054  14.957  10.679   1.685  0.0521 -0.0961  0.0961
26161W        W42055  17.336   4.742  14.905 -0.1677 -0.0056  0.0529
26162W        W42056  11.244   2.577   0.881 -0.1555  0.2154  0.0923
26163W        W42057  17.482   0.304  14.521 -0.1244 -0.0815  0.1551
26164W        W42058   5.888  12.846   0.450  0.1248  0.2491  0.0821
26165W        W42059   0.435   4.488  15.077  0.0760  0.1164 -0.0217
26166W        W42060   7.757   8.889   2.404  0.1427 -0.0777  0.1955
26167W        W42061  11.228   8.016   2.963 -0.0072 -0.0566 -0.0593
26168W        W42062   8.379   2.159   1.581 -0.1125 -0.0340  0.2397
26169W        W42063  16.470  10.850   2.595  0.0987  0.0120  0.1170
26170W        W42064  10.614   9.220   4.895 -0.3429 -0.1356 -0.0986
26171W        W42065   6.031   6.377   1.038 -0.2974  0.2072 -0.0595
26172W        W42066  15.663  15.089  13.331  0.2169  0.1156 -0.3438
26173W        W42067  12.139  11.068  13.386  0.2999  0.0526 -0.1866
26174W        W42068  17.710  13.978   2.300  0.3160  0.1806  0.1014
26175W        W42069   6.568   3.648   1.367 -0.0544 -0.0386  0.0754
26176W        W42070   4.605   1.072  14.033 -0.1875 -0.2350 -0.0517
26177W        W42071  16.115  14.746   2.324 -0.1569  0.0586  0.2014
26178W        W42072  10.731  15.700   3.228 -0.2054  0.0190 -0.0845
26179W        W42073   2.721   4.982  11.758 -0.0174  0.2399 -0.1601
26180W        W42074  15.291   1.487   1.261 -0.1125 -0.2045  0.0589
26181W        W42075   1.812  15.357   0.061 -0.1439  0.1085  0.1025
26182W        W42076   5.692   3.227  16.452 -0.0524 -0.2905 -0.0069
26183W        W42077  16.179   5.091  14.446  0.2678  0.2227  0.2655
26184W        W42078   5.835  14.118  13.655 -0.1629 -0.1000 -0.0884
26185W        W42079  14.655   7.520  13.153 -0.1522  0.2613  0.3145
26186W        W42080  10.359   9.138   0.097 -0.6311 -0.0719  0.1095
26187W        W42081   4.574   6.060  12.375  0.2934  0.4400  0.0706
26188W        W42082  16.402   9.140   0.669  0.0608 -0.1739 -0.2730
26189W        W42083   0.570   5.993  16.709  0.0660  0.0682  0.5496
26190W        W42084   6.201  12.654   0.938 -0.0714 -0.0437  0.0601
26191W        W42085  11.344  16.004   0.296  0.1224  0.0002  0.2044
26192W        W42086   3.581   2.502  15.005 -0.1910  0.2421  0.1744
26193W        W42087  13.460   8.797  12.037  0.0180 -0.2306 -0.2269
26194W        W42088   5.460   3.329   3.578  0.0338  0.3131 -0.1309
26195W        W42089  11.021   1.835   2.933 -0.2290  0.1477  0.1190
26196W        W42090  11.813   9.630   4.630 -0.1554 -0.3061  0.4189
26197W        W42091   8.571   4.762   0.276  0.0581 -0.1394 -0.0968
26198W        W42092   2.002   4.961  12.956 -0.0104  0.3365  0.0968
26199W        W42093   6.386   9.588  16.318  0.0864 -0.2632 -0.1488
26200W        W42094   8.132   8.920   5.822  0.0269  0.1401  0.3760
26201W        W42095  16.294   5.368   2.785 -0.2072  0.2496 -0.1578
26202W        W42096  10.772   5.278   0.154  0.0779  0.1565  0.0785
26203W        W42097   7.271  17.204  12.515  0.0870 -0.1763  0.0089
26204W        W42098   0.507   1.895   2.785 -0.0585  0.0043  0.1358
26205W        W42099   4.776   6.149  13.742 -0.2358  0.1649 -0.1120
26206W        W42100  14.315  12.320   2.455  0.1791 -0.0068  0.1572
26207W        W42101  10.680   9.835  14.054  0.1084 -0.2517 -0.0939
26208W        W42102  11.608   6.789  11.119 -0.0605  0.2033 -0.0227
26209W        W42103   3.930   5.568   2.200  0.1644  0.1423  0.2086
26210W        W42104   0.144   6.609   1.409  0.0860 -0.2017  0.0291
26211W        W42105  10.048  11.783   4.253  0.2946 -0.0458  0.3048
26212W        W42106  16.252   8.156  11.985  0.0574 -0.3388  0.2544
26213W        W42107   0.967  11.689   3.695 -0.0956 -0.0483  0.0511
26214W        W42108  13.870   4.805   0.548  0.1229  0.0550 -0.0361
26215W        W42109  10.632   6.012   1.652  0.2282  0.0177 -0.0114
26216W        W42110  15.991   9.732   1.036  0.0014  0.0480 -0.0693
26217W        W42111  10.962   7.764   3.931 -0.0043 -0.0881 -0.0405
26218W        W42112  17.443   3.808  14.308 -0.0567 -0.0289 -0.0727
26219W        W42113  12.017  11.760  16.756 -0.1810 -0.2581 -0.0913
26220W        W42114  16.617  15.046  12.241  0.1893 -0.0421  0.0408
26221W        W42115   7.689   2.326  16.016 -0.3197 -0.1481 -0.2113
26222W        W42116   8.183  16.843   3.148  0.0331 -0.0722 -0.0855
26223W        W42117  14.032   1.996   4.051 -0.3336 -0.2692  0.1037
26224W        W42118   8.619   0.970  15.069  0.1995  0.0285  0.1257
26225W        W42119   0.625   2.154  15.068 -0.2627 -0.0878  0.0550
26226W        W42120  14.189   4.995   0.031 -0.1956  0.0317  0.1415
26227W        W42121   2.673   3.646  12.880  0.0518 -0.0726 -0.1464
26228W        W42122  12.104  17.757  12.807  0.0011 -0.2713 -0.0001
26229W        W42123   6.730  13.111   1.701 -0.0353  0.1244  0.0663
26230W        W42124  16.195  10.767   6.049 -0.1837  0.1345  0.0109
26231W        W42125  16.383  15.868  12.712  0.0910 -0.0678  0.0147
26232W        W42126  11.470   0.648  13.222  0.0742  0.1120  0.1854
26233W        W42127   8.111  13.607  13.057  0.4260  0.0814 -0.2152
26234W        W42128   9.937  11.761  12.434  0.1468 -0.0374 -0.0501
26235W        W42129  10.626   3.103  16.451 -0.0874 -0.3537 -0.0829
26236W        W42130  13.386   3.424  11.812 -0.3885 -0.2470  0.3722
26237W        W42131   6.231  10.847  16.436  0.1978  0.1394 -0.0442
26238W        W42132  12.303  12.110  14.466 -0.0294 -0.0091  0.2055
26239W        W42133  10.263   1.847   0.082  0.0967  0.0302 -0.2214
26240W        W42134   7.384   1.147   2.804 -0.3131 -0.2430  0.0217
26241W        W42135  15.009  11.680   3.747  0.1222  0.0228  0.0358
26242W        W42136   1.179  13.469   3.902  0.0036  0.0896 -0.4134
26243W        W42137   1.143   0.757  12.065 -0.0914 -0.1712 -0.0494
26244W        W42138  17.094   5.903   2.920 -0.1640 -0.0705 -0.0103
26245W        W42139   6.874   5.054   5.639 -0.3088 -0.1503  0.1711
26246W        W42140   7.223  16.463   4.562  0.5377 -0.2956 -0.2376
26247W        W42141   5.428   2.268  16.677 -0.0779 -0.0655 -0.3378
26248W        W42142  13.977  12.186  15.207 -0.1280 -0.1740 -0.0191
26249W        W42143   1.239  15.813   5.643  0.1535 -0.1838 -0.1433
26250W        W42144   7.266   9.772  12.310  0.0092 -0.1775  0.0814
26251W        W42145  16.777  17.288  13.676 -0.1816  0.1412  0.0606
26252W        W42146   2.368   6.099  16.436  0.1977  0.1130 -0.1341
26253W        W42147  15.660   2.418   2.512 -0.1160 -0.0378  0.0254
26254W        W42148   5.412   6.552  15.893  0.2283 -0.0464  0.2359
26255W        W42149   6.254   1.437  14.080  0.0224 -0.1470 -0.0312
26256W        W42150  11.423   5.821  12.252  0.1767  0.0133  0.1052
26257W        W42151   7.113  11.109  15.624 -0.2393  0.3358 -0.1628
26258W        W42152   8.242   2.352   3.943  0.2813  0.2696 -0.0842
26259W        W42153  10.275   7.952  13.002 -0.2107  0.1042 -0.4383
26260W        W42154   0.891   9.639   4.766  0.1555 -0.0365  0.0846
26261W        W42155  17.817   3.982   0.141 -0.4605 -0.4595 -0.0174
26262W        W42156  12.697   9.263  13.657  0.1963 -0.2576 -0.1089
26263W        W42157   0.265   5.763   1.315  0.2211  0.0360 -0.1588
26264W        W42158   1.036   1.352  14.718 -0.0641  0.3613 -0.2796
26265W        W42159   6.878  13.837  15.675  0.0720 -0.0305 -0.1537
26266W        W42160  15.103  15.303  16.579  0.1041 -0.5463  0.1901
26267W        W42161  15.181   6.557  15.870  0.0713 -0.1527  0.0743
26268W        W42162   0.805  12.278   4.218 -0.0161 -0.1450 -0.2911
26269W        W42163  11.336  13.124  12.602  0.2009  0.0335 -0.0612
26270W        W42164  10.585   2.958   5.279 -0.2580 -0.0174 -0.0068
26271W        W42165   8.443  12.955  12.729  0.0793  0.1242 -0.2999
26272W        W42166  16.586   5.572  15.566  0.0238 -0.2774 -0.2282
26273W        W42167   8.351   1.654  14.728  0.3430 -0.0480 -0.1881
26274W        W42168   6.156   1.033   2.364  0.4328  0.2963  0.0707
26275W        W42169   0.809   2.044   5.883  0.1479 -0.0673 -0.0492
26276W        W42170   2.899  11.811  11.447  0.0682 -0.2284 -0.0607
26277W        W42171  13.354  16.834   4.268  0.2287  0.0204  0.1177
26278W        W42172  16.567   1.762  12.184  0.0516 -0.0165 -0.0408
26279W        W42173   7.303   2.431   5.415  0.0687 -0.0215  0.0469
26280W        W42174  12.422   9.076  12.384 -0.1177  0.2646  0.2170
26281W        W42175  15.682  11.698  16.121 -0.0590 -0.1340 -0.3041
26282W        W42176   8.185  13.066   1.441  0.2019  0.1029  0.1401
26283W        W42177  17.117   2.128  10.755 -0.1392  0.0497  0.2130
26284W        W42178  11.626  12.527  16.827  0.3614 -0.0071 -0.1354
26285W        W42179   1.555  13.807   3.825 -0.0477  0.0970 -0.0337
26286W        W42180  17.669   2.690   4.434  0.0496  0.3742  0.0690
26287W        W42181   8.844  14.363   1.161  0.2141 -0.0222 -0.1882
26288W        W42182   4.675  17.337   2.311 -0.0500 -0.1735 -0.0819
26289W        W42183   8.120  17.239   0.943 -0.2013 -0.1328 -0.0545
26290W        W42184  13.455   0.212   1.337  0.2733  0.1588  0.2982
26291W        W42185   2.726   6.885   0.595 -0.0394  0.2900 -0.2045
26292W        W42186  11.212   1.284  15.875  0.0892  0.0203 -0.0975
26293W        W42187   7.445  17.081   5.822  0.0060 -0.2408  0.3120
26294W        W42188  14.694   0.473   1.934  0.0945  0.0843  0.0057
26295W        W42189  15.330   3.117  12.523 -0.0100 -0.6161  0.1093
26296W        W42190  17.199  13.423   0.511  0.1802 -0.0605 -0.2020
26297W        W42191   2.279   0.150   5.856 -0.0976  0.0840 -0.1977
26298W        W42192   0.291  12.520   4.868  0.0500 -0.0927  0.0411
26299W        W42193  17.224   0.840  15.516  0.2460  0.0803 -0.1455
26300W        W42194   4.179   2.196  11.373  0.0298 -0.2067 -0.0258
26301W        W42195  15.008  12.447   5.891  0.4430  0.0639  0.2231
26302W        W42196  15.105   4.096  10.750  0.0432  0.0142 -0.0310
26303W        W42197   4.100   4.008   4.018 -0.0806  0.1748 -0.1461
26304W        W42198   3.169  16.256   2.754 -0.2364  0.0070 -0.2274
26305W        W42199  15.248   1.364   0.655 -0.0148 -0.2660  0.1285
26306W        W42200   9.854  13.751  14.949  0.2718 -0.0100 -0.0104
26307W        W42201  13.486   9.396   4.861  0.0191  0.1573  0.1145
26308W        W42202  12.489   8.822   2.540  0.0338  0.0777  0.3238
26309W        W42203  12.906   0.279  12.913  0.0785  0.0466  0.4768
26310W        W42204   2.793  14.042   3.435 -0.1386 -0.1014 -0.0920
26311W        W42205   5.777   1.173  12.030 -0.0876 -0.0382  0.2163
26312W        W42206  12.550   1.628  15.252 -0.0955 -0.0316  0.2706
26313W        W42207   7.005   9.556   3.365 -0.0291 -0.3851 -0.1459
26314W        W42208   0.095  14.961  15.139 -0.2082  0.3618  0.3602
26315W        W42209   3.137   1.182  11.358  0.1428  0.0718 -0.1099
26316W        W42210  14.327   2.119  14.941 -0.0887  0.0139 -0.1130
26317W        W42211   0.738  16.132  14.662 -0.1982  0.0914  0.0868
26318W        W42212   8.375   5.490  12.983 -0.3694 -0.2863 -0.2655
26319W        W42213  13.874  13.103   3.375 -0.0024 -0.1213  0.0286
26320W        W42214   4.304  10.028  14.727  0.0671  0.0313  0.1137
26321W        W42215   9.015   7.417  11.220 -0.0415  0.1673 -0.0543
26322W        W42216   0.719  11.707  14.081  0.1423  0.1186 -0.1254
26323W        W42217  14.745   4.228  13.970  0.0590  0.0526  0.2149
26324W        W42218  16.114   4.930   3.975  0.1424  0.1318  0.2273
26325W        W42219  14.817   1.049   3.085  0.2753 -0.1933  0.4164
26326W        W42220  15.131   7.084   5.553 -0.1433  0.1978 -0.1884
26327W        W42221  15.804  12.851  15.056  0.2142 -0.4112 -0.0403
26328W        W42222  14.825  11.094   4.408  0.0343 -0.1011 -0.1486
26329W        W42223  11.264  16.863   1.215  0.2605  0.0309 -0.1419
26330W        W42224  17.481   5.076  15.270  0.0430  0.0835 -0.1265
26331W        W42225   6.694  11.992   1.376 -0.0960  0.0009 -0.3081
26332W        W42226   8.327   6.771  16.265 -0.1696 -0.0241  0.1524
26333W        W42227  15.233   8.363   6.374  0.1562 -0.0441  0.0387
26334W        W42228   0.806  15.232  16.732 -0.1456  0.4511  0.1571
26335W        W42229   1.793   2.285   1.394  0.0202  0.2648 -0.2550
26336W        W42230   3.266   1.731   4.997 -0.1531 -0.3923  0.0175
26337W        W42231  12.776  10.749  16.370  0.0786 -0.0475  0.2533
26338W        W42232   6.199  10.299  16.396  0.4706  0.1867 -0.4919
26339W        W42233  17.235  13.903   0.313  0.1022 -0.0299 -0.0160
26340W        W42234   1.732   5.390  16.598  0.2385  0.1163  0.2843
26341W        W42235   3.964  13.324   2.041 -0.0926  0.3256 -0.0631
26342W        W42236   9.815   7.796   0.448 -0.2836  0.2715 -0.1244
26343W        W42237   1.991  11.660   2.770  0.0322 -0.0300  0.0196
26344W        W42238  16.981   3.196   6.057 -0.1218  0.2418  0.0971
26345W        W42239   1.116  12.517  14.558  0.0134 -0.0474  0.4279
26346W        W42240   8.854   3.718   1.678  0.1515  0.1941  0.3301
26347W        W42241  13.151  14.406   0.932  0.1235 -0.0696  0.2061
26348W        W42242   0.294  10.442  12.825  0.2630 -0.0174  0.1955
26349W        W42243   8.044   1.379   3.118  0.0537  0.1652  0.0189
26350W        W42244   5.812  12.700   1.304 -0.0337 -0.0267 -0.0935
26351W        W42245  10.128   0.424  16.188  0.0410 -0.2431 -0.1576
26352W        W42246   4.330   5.863   1.456 -0.3902  0.2299  0.2328
26353W        W42247  17.100  15.143   1.453 -0.2466 -0.0062  0.3323
26354W        W42248   6.735   4.796  13.584 -0.4441 -0.1092  0.1129
26355W        W42249  17.679  13.227   4.932  0.0452  0.0385  0.1127
26356W        W42250   2.977   3.075   0.360  0.0554  0.0265 -0.2689
26357W        W42251  16.835  15.572   5.055 -0.0776  0.2554  0.1760
26358W        W42252   8.264  12.534   5.735 -0.1545  0.0553  0.1230
26359W        W42253   2.404   7.453  13.861  0.0990  0.3266  0.1281
26360W        W42254   6.889  15.279   1.808  0.3133  0.0748 -0.0586
26361W        W42255   1.144  13.756   0.561  0.1642 -0.1190 -0.0565
26362W        W42256   8.035  11.155   6.292 -0.0099  0.1095 -0.2149
26363W        W42257  16.607  12.866   3.251 -0.1083  0.0492  0.0534
26364W        W42258  15.181  14.523   5.062 -0.1460 -0.0665  0.1691
26365W        W42259  16.472   2.990   3.169 -0.2901 -0.0635  0.3273
26366W        W42260   5.973  14.558  13.477 -0.1375  0.1293  0.0333
26367W        W42261   8.851  17.749   3.455  0.2041  0.0396 -0.0548
26368W        W42262  11.886   7.485  12.530  0.0701  0.1053  0.2033
26369W        W42263  16.741  12.405   4.638  0.2407  0.1671 -0.0774
26370W        W42264  12.708  10.755  12.132  0.0584 -0.2515  0.1777
26371W        W42265   7.197   1.603  16.311  0.0889  0.2232  0.1452
26372W        W42266   8.823  13.998  11.899  0.0971  0.3230 -0.2434
26373W        W42267   7.645   0.559   0.265 -0.1410  0.1541  0.0828
26374W        W42268   0.063   6.872  14.399  0.0939  0.2074 -0.0447
26375W        W42269  14.755  12.865   3.258 -0.1536 -0.0466 -0.0027
26376W        W42270   2.220   7.408   2.810 -0.2402 -0.0414  0.1050
26377W        W42271  10.203  12.428   4.642  0.0881  0.1592  0.1087
26378W        W42272   3.377  10.437   4.070  0.2903  0.1326 -0.1107
26379W        W42273   9.145  16.096   2.459 -0.0832 -0.0799  0.3606
26380W        W42274  10.692  16.830   3.262 -0.0325 -0.0115 -0.1707
26381W        W42275  16.527  14.114   0.595 -0.1435  0.3386 -0.4822
26382W        W42276  13.468   2.593   2.485 -0.2814 -0.1218 -0.0638
26383W        W42277  17.060   1.892   4.005 -0.1362  0.2595 -0.1920
26384W        W42278  15.798   2.445   3.952 -0.2549 -0.0731  0.1588
26385W        W42279   3.220  13.362  14.290 -0.0195  0.2104  0.0208
26386W        W42280  16.024   6.928   0.371  0.1994 -0.0216  0.2268
26387W        W42281   1.829   3.075   0.966  0.2604  0.0360 -0.3462
26388W        W42282  12.788   2.083  11.807  0.1710  0.3314  0.2757
26389W        W42283  15.009   5.861   3.906  0.1144  0.2607  0.2031
26390W        W42284   7.068  13.644   2.912  0.3238 -0.2474  0.0307
26391W        W42285   2.136   8.072  15.381 -0.3781 -0.0640 -0.0382
26392W        W42286  14.006   0.316  15.659  0.1248 -0.2071 -0.2667
26393W        W42287  12.042  17.529   5.181 -0.0540  0.2717 -0.0396
26394W        W42288   4.217   9.204  11.736  0.0484  0.0614  0.2942
26395W        W42289  17.624  13.731   4.021 -0.2849  0.3066  0.2528
26396W        W42290  13.026  11.106  12.089  0.0043 -0.0130  0.0362
26397W        W42291  11.070   4.667  13.246  0.0286  0.1429  0.1324
26398W        W42292   6.189  14.902   2.977  0.0716 -0.0275  0.0892
26399W        W42293  12.283   7.377  12.219  0.3065  0.0529  0.0144
26400W        W42294  17.074   1.932  12.502 -0.1217 -0.1386  0.2005
26401W        W42295  17.509  10.782   4.051  0.0482 -0.0561  0.3610
26402W        W42296  16.064   6.348  13.640 -0.1887  0.1468  0.1193
26403W        W42297   0.781   6.548   3.769 -0.1754  0.3585 -0.1786
26404W        W42298  12.981   0.365  14.855 -0.1592 -0.2614 -0.2832
26405W        W42299  11.637   7.320   0.131  0.0966 -0.2933  0.0226
26406W        W42300   7.934  12.708  16.598  0.1140  0.2874  0.0867
26407W        W42301   2.957  16.019   1.502  0.0513  0.1800 -0.2499
26408W        W42302   2.301   4.890   4.070 -0.0869 -0.2828  0.3207
26409W        W42303   7.349   4.057   3.916  0.2430  0.0791  0.0756
26410W        W42304  10.094  12.329  14.851  0.1101 -0.2965  0.4041
26411W        W42305  13.085   6.910   0.320  0.0445 -0.0514  0.0259
26412W        W42306  12.970   2.122   1.460 -0.0947 -0.2076  0.0789
26413W        W42307   3.071  16.262  12.610 -0.1013  0.3082 -0.1406
26414W        W42308   3.349  17.472  12.297 -0.0995  0.1162  0.2869
26415W        W42309  13.905   5.462  13.977 -0.1820  0.0824 -0.0633
26416W        W42310  15.885  10.518  14.116  0.1476 -0.0719 -0.0505
26417W        W42311   8.139  10.269   0.599 -0.0171 -0.0388  0.1346
26418W        W42312   2.192  12.416   4.182  0.0742  0.1835 -0.0599
26419W        W42313  17.572   0.599  13.394  0.0654 -0.0684  0.1587
26420W        W42314   8.975  13.129   5.735 -0.3533 -0.0378 -0.1245
26421W        W42315  13.629   5.583   3.548  0.1620 -0.0212 -0.1301
26422W        W42316   1.467   3.948   0.793  0.3158 -0.3024 -0.0807
26423W        W42317   3.782  14.135  11.419  0.0672  0.0151  0.0178
26424W        W42318   1.412  15.545   1.322  0.2499  0.2863 -0.1073
26425W        W42319  10.825  15.081  14.850 -0.1111  0.0225 -0.3578
26426W        W42320  11.655  13.104   2.427  0.3883  0.1676  0.5326
26427W        W42321  12.434   8.671  16.557 -0.1923 -0.2742  0.0177
26428W        W42322  13.168  13.775  16.158 -0.1896 -0.1738  0.1532
26429W        W42323   3.928  16.001  14.720 -0.2543 -0.3895  0.1242
26430W        W42324   8.386   2.738  14.481  0.1191 -0.0747  0.2140
26431W        W42325  16.188   7.520   4.107  0.0428 -0.0892 -0.1309
26432W        W42326   6.916  12.095  13.642  0.1428  0.1791 -0.1157
26433W        W42327  11.370   2.009   2.607 -0.0831  0.2835  0.1219
26434W        W42328   4.642  16.833   3.627  0.0824  0.0227 -0.0876
26435W        W42329   0.980  14.982  14.282 -0.1166  0.2164  0.0033
26436W        W42330   9.913   9.463   4.200 -0.2029  0.3117 -0.3507
26437W        W42331   0.835  14.704  12.356  0.1694  0.0196 -0.1070
26438W        W42332  11.146   0.724   2.017  0.0376 -0.4538 -0.2305
26439W        W42333   9.782   6.711   4.484 -0.3662 -0.1915 -0.1492
26440W        W42334   6.876  14.137   3.253 -0.0645  0.0988 -0.0757
26441W        W42335   6.393  13.848  16.530 -0.1207 -0.3841 -0.0465
26442W        W42336  14.397  11.615  15.701  0.3010  0.0515 -0.2243
26443W        W42337  16.552  14.558  12.612  0.0050 -0.3332 -0.0807
26444W        W42338   8.890   4.836  16.369 -0.1428 -0.1002  0.0563
26445W        W42339   7.661   3.995   1.959  0.0541  0.0924  0.1494
26446W        W42340   2.535   5.371  11.482 -0.0719 -0.0904  0.3746
26447W        W42341   5.437   3.227  15.939 -0.0796  0.0756 -0.0325
26448W        W42342   1.019  12.815   0.543  0.2412  0.4922  0.0915
26449W        W42343   7.539   9.015  11.931  0.2523  0.1559  0.1517
26450W        W42344   3.082   5.954   3.533 -0.0127  0.2437  0.1972
26451W        W42345  16.651   9.897  16.590 -0.1842 -0.2223  0.1785
26452W        W42346   3.230   3.192  11.934  0.1378 -0.0007  0.2412
26453W        W42347  16.532   8.297   1.991 -0.1361 -0.0004  0.1522
26454W        W42348   0.666  12.753   2.220 -0.2040 -0.2802 -0.1231
26455W        W42349   2.933  10.218   0.443 -0.1798  0.1060  0.2699
26456W        W42350   4.299  15.168   3.810 -0.2221  0.1226 -0.4243
26457W        W42351   4.140  11.820   0.863  0.3399  0.1536 -0.0270
26458W        W42352  10.853   7.770   0.938  0.1511 -0.0718  0.3536
26459W        W42353  12.473   7.643   3.917 -0.1632 -0.0121  0.0372
26460W        W42354   8.809  16.660  14.957  0.2063  0.0742  0.1104
26461W        W42355   9.150  17.287  13.669  0.1587 -0.0834 -0.0956
26462W        W42356   8.995  10.222   3.550  0.0751  0.0150 -0.0254
26463W        W42357   2.543   5.538   1.150 -0.1085 -0.0234 -0.1015
26464W        W42358  17.046   4.486   5.110  0.0560  0.2762 -0.3301
26465W        W42359   5.326   9.317  14.466 -0.1808  0.2491  0.1469
26466W        W42360   6.971   1.999   4.908 -0.2440  0.0659  0.0029
26467W        W42361  13.178   6.272   4.964 -0.0703  0.0657 -0.0538
26468W        W42362  17.580  12.705   4.166  0.1581 -0.1494 -0.1203
26469W        W42363  12.258  12.007  16.361  0.1657  0.0555 -0.2001
26470W        W42364  17.554   3.087  16.212  0.0817  0.2675  0.0102
26471W        W42365  10.242   2.425   6.491 -0.1251 -0.0516 -0.0902
26472W        W42366   0.704   6.117  12.304  0.0299  0.1552  0.0349
26473W        W42367  16.062  15.989   4.937  0.0872 -0.1125  0.0618
26474W        W42368   3.972  13.930   1.190 -0.0182  0.2293 -0.0199
26475W        W42369  13.774   2.276  13.225 -0.1788 -0.1416 -0.0107
26476W        W42370   2.560  13.604  12.447 -0.0157 -0.2291  0.2245
26477W        W42371  11.495   1.510  15.157  0.1594 -0.1672 -0.2792
26478W        W42372   4.589  14.533   0.467  0.0767  0.0730 -0.2130
26479W        W42373   0.944   0.578   1.652 -0.1732  0.0105  0.0401
26480W        W42374  15.809  16.793   0.328  0.2861  0.0940  0.4710
26481W        W42375  12.250   7.858   2.099 -0.1848  0.0265  0.0228
26482W        W42376   0.597   4.723  13.967  0.0602 -0.0726 -0.3005
26483W        W42377  15.371  11.235   0.424  0.1495  0.1662 -0.1187
26484W        W42378   5.355   0.034   5.328 -0.0736 -0.4107  0.0001
26485W        W42379   1.935  17.158   5.959  0.2203 -0.0922 -0.1468
26486W        W42380   1.277  13.984   5.250 -0.3413 -0.1220 -0.2796
26487W        W42381  12.332  11.354   1.193  0.0992 -0.0650 -0.0337
26488W        W42382   8.009   3.767  16.682  0.1260  0.0868  0.1325
26489W        W42383   3.815   6.553  12.201 -0.0650  0.0811 -0.0343
26490W        W42384   0.808   9.068   2.756  0.1662 -0.0010  0.3478
26491W        W42385   4.413  12.077  11.057  0.0135  0.1280 -0.2047
26492W        W42386  10.321   8.656  16.911  0.0122  0.1549  0.4983
26493W        W42387  11.981   4.692  15.409 -0.0757  0.3368  0.1454
26494W        W42388   1.122   7.804   5.068 -0.1661  0.0077  0.3403
26495W        W42389  12.485   3.060   4.247 -0.0352 -0.1218  0.2773
26496W        W42390  15.130   3.508  12.224  0.2888 -0.0417  0.1148
26497W        W42391   7.735  13.260  15.237 -0.2016 -0.0669 -0.0623
26498W        W42392  14.210  10.056  11.947  0.2359 -0.1596  0.0079
26499W        W42393   5.818  12.921  16.741  0.3730 -0.0424  0.0014
26500W        W42394  10.812  11.788   3.796  0.1669 -0.1321  0.0797
26501W        W42395   7.586  15.877   5.078  0.2240 -0.1118 -0.2042
26502W        W42396  13.718   9.914  13.999 -0.0549 -0.0256 -0.0234
26503W        W42397  14.373   9.405   1.434  0.1924  0.1600  0.2582
26504W        W42398   3.731  17.700   0.304  0.3172 -0.2734  0.0669
26505W        W42399   0.020  10.256   2.447 -0.1340 -0.1951  0.3263
26506W        W42400  14.374  15.183   0.744  0.4481 -0.1408  0.0287
26507W        W42401  11.854  13.331  12.004  0.0502  0.0670 -0.1469
26508W        W42402   8.714  14.843   4.880  0.1492  0.0602 -0.1527
26509W        W42403  12.487   6.732  11.532 -0.1667  0.2347 -0.2683
26510W        W42404   7.009  13.357  15.856 -0.1476  0.1188 -0.2504
26511W        W42405  16.818  16.126  12.451 -0.2153 -0.1606  0.1067
26512W        W42406  14.339   5.139   3.588  0.2799  0.1129  0.0696
26513W        W42407   0.656  11.271   1.200 -0.0675 -0.1548  0.0937
26514W        W42408  13.597  10.878   2.609 -0.0401 -0.3133 -0.1198
26515W        W42409   7.148   4.833   3.854  0.4108  0.1051  0.0944
26516W        W42410  10.326   6.069   0.595 -0.1152  0.0178  0.2207
26517W        W42411  10.685  12.425   1.476 -0.0436 -0.3519 -0.1327
26518W        W42412   9.658  10.534   4.153  0.2530 -0.1811 -0.2052
26519W        W42413   0.430   7.341   4.058  0.3255 -0.0303 -0.0748
26520W        W42414  14.580   1.759   4.630  0.1083 -0.0998 -0.4716
26521W        W42415   3.416   0.697   4.378 -0.1214  0.2181 -0.2003
26522W        W42416  10.025  13.219   3.752 -0.4917  0.0723 -0.3431
26523W        W42417   2.517   8.010  15.086  0.0910  0.0967 -0.1658
26524W        W42418   4.810  14.236   0.873  0.0070  0.0789  0.0975
26525W        W42419  12.533  14.870   4.615  0.1034 -0.0604 -0.0946
26526W        W42420   2.109  11.820   2.294  0.1862  0.0452  0.1251
26527W        W42421   6.413   7.436  14.637 -0.0300 -0.0153  0.0182
26528W        W42422  12.310   9.654  13.733 -0.1764 -0.1401  0.1238
26529W        W42423  14.982   7.926   0.187  0.0816 -0.1337  0.1464
26530W        W42424   9.690   8.005   3.063  0.0641  0.2125 -0.2910
26531W        W42425   9.452  10.232   5.057 -0.1918 -0.1807 -0.0844
26532W        W42426   9.157  12.666   3.444  0.1633 -0.1537  0.0646
26533W        W42427  14.727  15.375   4.089  0.0181  0.2817  0.0850
26534W        W42428  15.283   3.159   4.796 -0.2307 -0.2749  0.0480
26535W        W42429   8.473  15.286   1.053 -0.0132 -0.0221 -0.0357
26536W        W42430   0.335   5.509   4.867  0.2524  0.0843 -0.1148
26537W        W42431   4.351  16.131   0.998 -0.0462  0.3915 -0.2713
26538W        W42432  17.339  12.839   5.346  0.0468  0.1923  0.1112
26539W        W42433  10.631  14.087   2.420 -0.1075 -0.0262 -0.1819
26540W        W42434   7.848  12.590   1.346  0.2070 -0.2300 -0.1299
26541W        W42435   1.181   6.436  13.582 -0.0480  0.0059 -0.1929
26542W        W42436  13.029   8.239   4.466 -0.0777  0.1426  0.0574
26543W        W42437   7.598  10.170  13.860  0.4618  0.0997 -0.1235
26544W        W42438   5.453   4.477  14.107 -0.0024 -0.1187  0.0857
26545W        W42439   9.723   6.108   1.090 -0.1085 -0.1334  0.0276
26546W        W42440   2.294   6.141   0.401  0.2823 -0.4416 -0.0661
26547W        W42441  15.211   2.738   3.359 -0.1634 -0.1633  0.2131
26548W        W42442   8.204   3.216  12.351 -0.0313 -0.0244 -0.1036
26549W        W42443   1.729   2.433   4.821  0.0224  0.2131 -0.1526
26550W        W42444  12.652   8.091   4.759 -0.1906  0.0624 -0.2618
26551W        W42445  15.731  11.366  14.677  0.0731  0.1070  0.1467
26552W        W42446   2.826  16.762  14.320  0.2015 -0.4140  0.1045
26553W        W42447  16.509   5.553   3.283  0.0490  0.0418  0.2481
26554W        W42448  11.031  11.117  16.815 -0.1946  0.0222  0.0848
26555W        W42449   0.244  10.034   4.359 -0.2264 -0.1721 -0.1553
26556W        W42450   3.565   4.159  13.405  0.1666 -0.2278 -0.1405
26557W        W42451   6.575  15.754   0.589 -0.0131  0.1686 -0.0780
26558W        W42452   6.306  10.830  14.047  0.1838 -0.0421  0.1209
26559W        W42453   5.515  16.107  12.582 -0.0265  0.1636  0.0692
26560W        W42454   7.938  11.248   5.660 -0.0311  0.3843  0.1886
26561W        W42455   2.096   8.344  14.028 -0.1907  0.1480  0.0758
26562W        W42456   4.784   5.472   0.269  0.1128  0.2442  0.1015
26563W        W42457   3.665  12.951   3.367  0.2103 -0.0996 -0.0257
26564W        W42458   8.750   9.055   1.070 -0.1172  0.0254 -0.1095
26565W        W42459   0.316   8.687  15.843 -0.0966 -0.1929  0.0305
26566W        W42460  13.457  15.097  14.472 -0.2617  0.0936  0.0962
26567W        W42461   8.660   5.198  14.167 -0.0250 -0.0152 -0.0939
26568W        W42462   7.464   9.402   0.776  0.2961 -0.0881  0.4476
26569W        W42463   9.896  12.214   6.441 -0.0177 -0.1466  0.0453
26570W        W42464  15.030   0.220  14.481  0.1748  0.4676 -0.1410
26571W        W42465   3.702   2.103  15.259  0.0242  0.0164  0.2663
26572W        W42466  17.299   0.762  14.467  0.0165 -0.0847  0.2936
26573W        W42467   1.908  16.902   6.373 -0.3895  0.0441 -0.2890
26574W        W42468  17.657  13.554  14.437 -0.1393  0.2429  0.2592
26575W        W42469   4.048  13.966   4.154 -0.0778 -0.1166  0.0092
26576W        W42470  16.659   2.722   3.989 -0.1242 -0.0364  0.2845
26577W        W42471   9.294   0.649  13.091  0.1644  0.1681 -0.1882
26578W        W42472   5.637  11.641   4.708  0.1459 -0.0438  0.2769
26579W        W42473   1.754   1.790   2.482  0.1169  0.2244  0.0638
26580W        W42474   0.597  15.948   1.462 -0.0015  0.0084  0.0782
26581W        W42475   1.428  12.300  15.052  0.3021  0.0614 -0.3299
26582W        W42476  14.555  13.531  13.059 -0.2301  0.1913  0.2247
26583W        W42477  12.768   1.186  11.259  0.2358 -0.1388  0.2552
26584W        W42478   2.093   5.368   4.211 -0.1215  0.0088  0.0572
26585W        W42479   5.488   1.925   2.501 -0.0883  0.0863 -0.0382
26586W        W42480   9.621   4.291   3.175  0.2093 -0.1505  0.1330
26587W        W42481  17.268   4.943  13.097 -0.1667 -0.0593 -0.1215
26588W        W42482  11.911   0.869   3.655  0.1786  0.1131 -0.1397
26589W        W42483  13.478  17.704   2.993 -0.1936 -0.1145 -0.2444
26590W        W42484   7.549  14.513   0.959  0.0569  0.3951 -0.0890
26591W        W42485   1.560  12.061  16.847 -0.0557  0.0726  0.0232
26592W        W42486   1.678  12.280  15.552 -0.1868  0.1821 -0.2048
26593W        W42487   4.941   9.556  13.762 -0.0574  0.1265 -0.0424
26594W        W42488  13.857  17.415   5.627 -0.1617  0.1065  0.2515
26595W        W42489   8.289   2.444  13.679 -0.0255 -0.2713  0.1411
26596W        W42490  17.676   1.310  14.511 -0.0637  0.0778 -0.1545
26597W        W42491   4.386  13.255   1.338 -0.0318  0.2478  0.2579
26598W        W42492   9.099   1.489  14.512  0.0131 -0.2058 -0.0044
26599W        W42493   3.118  12.404  14.562  0.3662  0.2019 -0.1878
26600W        W42494   6.235  10.745   5.371  0.0943  0.0133 -0.4066
26601W        W42495  13.515   9.730   3.702 -0.0814 -0.2653 -0.2734
26602W        W42496   8.707  12.357  12.410  0.0300  0.3252  0.0160
26603W        W42497  16.987   3.308   3.170  0.0063  0.5093  0.1527
26604W        W42498  14.375   3.676  12.783  0.0109  0.0316  0.1574
26605W        W42499  13.635   0.901   0.840  0.2104 -0.1359 -0.0858
26606W        W42500  12.430  17.613   5.512  0.0032  0.4113 -0.2249
26607W        W42501  15.824  10.227   2.339  0.1179 -0.2143  0.0902
26608W        W42502   4.398   6.108   5.349  0.1562 -0.0042 -0.0891
26609W        W42503   1.038  12.892  15.895  0.1278  0.0619  0.3040
26610W        W42504   4.434  16.161  15.431  0.1800  0.1041 -0.0218
26611W        W42505  17.560   8.599  12.613  0.2015  0.0857 -0.4200
26612W        W42506   0.093  12.106  15.694 -0.0583 -0.0321 -0.1512
26613W        W42507  11.454   8.685  14.257 -0.2336  0.1261  0.1536
26614W        W42508   2.971  13.508  15.370  0.0249 -0.0675 -0.2348
26615W        W42509   6.020  17.014   2.623 -0.0534  0.0023 -0.0524
26616W        W42510   5.275   4.676  12.312 -0.0380 -0.2412  0.3041
26617W        W42511  10.164  16.486  13.911  0.0488 -0.0380  0.1325
26618W        W42512  16.009   0.597  16.658 -0.0304 -0.1528 -0.1742
26619W        W42513  15.988   2.220  13.124 -0.1139  0.2619 -0.1967
26620W        W42514  17.472   7.009  14.166  0.1546 -0.0134 -0.0187
26621W        W42515  11.903  12.801  13.924 -0.0471 -0.1498 -0.0649
26622W        W42516   0.590   4.556   0.676 -0.2510  0.2563  0.0226
26623W        W42517   0.006   7.816  15.669 -0.1263 -0.0749  0.0312
26624W        W42518   9.468   5.662  16.407 -0.0907  0.0834  0.0409
26625W        W42519   8.748  10.698   0.055 -0.2130 -0.3152  0.2174
26626W        W42520  15.850   1.436   4.001  0.0302 -0.2105  0.1633
26627W        W42521  14.891   1.999   4.283 -0.1848 -0.1691 -0.0765
26628W        W42522   9.678  17.033   2.366 -0.1214 -0.1139  0.0907
26629W        W42523   1.967  16.599  13.408 -0.0823  0.0445 -0.2031
26630W        W42524   3.054  14.947   4.791  0.0957 -0.2051 -0.1113
26631W        W42525  11.422   7.525  12.331  0.0504  0.1777 -0.0469
26632W        W42526  11.849   6.786  15.372 -0.1143  0.1539  0.0759
26633W        W42527   0.706   9.992  11.602 -0.0094 -0.1177  0.1467
26634W        W42528   7.071   2.803  11.843 -0.0616  0.2779 -0.1939
26635W        W42529  14.236   2.566   4.485 -0.0006  0.1337  0.1069
26636W        W42530  14.386  11.065  13.401 -0.2768 -0.0346 -0.3527
26637W        W42531  15.249   4.324  15.947 -0.0065 -0.0776 -0.0443
26638W        W42532   7.091   6.247   4.713 -0.1037  0.0196 -0.1722
26639W        W42533   8.877   6.313  15.404 -0.0656  0.2269  0.1370
26640W        W42534   7.873   6.857   5.928  0.0088 -0.1353 -0.1727
26641W        W42535   8.306  15.538  14.778  0.1239 -0.3471  0.4304
26642W        W42536  11.277   9.308   4.083 -0.0226  0.0622  0.0134
26643W        W42537  15.160   8.463   2.929 -0.0405 -0.0059  0.0504
26644W        W42538   6.199   1.062  15.658  0.3280  0.3159  0.3802
26645W        W42539   6.236  16.238   0.108  0.3133  0.1443 -0.1822
26646W        W42540   3.236  12.324   5.083  0.2115  0.0443 -0.0843
26647W        W42541   7.668   3.327   0.477 -0.2719 -0.1687 -0.1350
26648W        W42542   2.025   5.787   4.567  0.2330 -0.0033  0.0653
26649W        W42543   7.992   8.570   5.459  0.2333 -0.1609 -0.0595
26650W        W42544  11.206   2.757  12.436  0.1222 -0.0512  0.0092
26651W        W42545   5.346  11.373  15.987  0.1132 -0.3452  0.1806
26652W        W42546   0.062  16.018   0.397 -0.1372  0.2526  0.3203
26653W        W42547  14.524  17.561  11.537  0.1342 -0.1768  0.2897
26654W        W42548   1.862  12.528   2.549  0.3893  0.0733 -0.0231
26655W        W42549  13.989  14.855  16.701  0.0808  0.2881 -0.2312
26656W        W42550  17.500   7.368   0.898 -0.1095  0.0898 -0.0228
26657W        W42551  11.462  15.951  16.744  0.0203 -0.0067  0.1326
26658W        W42552   0.752   1.643  15.865  0.2676  0.0975  0.0438
26659W        W42553  13.450  16.817   2.741 -0.1035 -0.0318 -0.0039
26660W        W42554  15.930   1.732  12.977  0.3422 -0.2388 -0.1176
26661W        W42555   4.821   7.367   2.002  0.3889  0.2582  0.1060
26662W        W42556   1.259   4.802  12.296 -0.4029  0.1778  0.0316
26663W        W42557  16.604   7.308   2.407  0.0579  0.1671  0.1778
26664W        W42558  13.924   0.933   1.677  0.3347  0.1907  0.1638
26665W        W42559  17.305  16.049  15.092 -0.1155  0.1470 -0.1778
26666W        W42560   9.455  12.364  16.538  0.2540 -0.2039  0.0717
26667W        W42561   3.871  15.338  16.610  0.0710 -0.3553 -0.2698
26668W        W42562   0.505  15.267  14.438 -0.1636  0.0630  0.0832
26669W        W42563   0.324   3.300   3.682 -0.1309  0.0434 -0.1229
26670W        W42564   9.910   0.060   4.545  0.0920 -0.1235  0.0200
26671W        W42565  17.615   7.290   0.020  0.1851  0.1631 -0.0564
26672W        W42566  15.984   7.343  13.662  0.0518 -0.0471 -0.1526
26673W        W42567  14.433  13.274   5.406  0.0203  0.0336 -0.3225
26674W        W42568  13.751  15.286  16.912  0.1028  0.2378 -0.0567
26675W        W42569  12.922   1.985   4.891 -0.1749  0.0349 -0.0130
26676W        W42570   9.317   1.490  13.385 -0.0648 -0.2049  0.2854
26677W        W42571   0.386   9.952   1.769  0.1842  0.1454  0.1390
26678W        W42572   5.548  17.219  15.559  0.0267 -0.0274  0.0027
26679W        W42573  14.798   6.199  14.390 -0.0744  0.1709  0.1253
26680W        W42574   1.973  17.641  16.605  0.0434 -0.1006  0.1633
26681W        W42575  14.119   8.592   1.213  0.0936  0.4192  0.2538
26682W        W42576   1.335   3.946  15.679 -0.0103  0.0975  0.3388
26683W        W42577   1.571  13.031   5.430 -0.0119  0.0120  0.0311
26684W        W42578   3.654   8.754  13.922  0.3197 -0.1624 -0.0133
26685W        W42579  17.396   5.883   5.489  0.0631  0.0152 -0.0901
26686W        W42580  14.091   6.248   5.076  0.0422  0.2732 -0.1800
26687W        W42581   5.860  17.202  15.129 -0.0219 -0.1206 -0.0446
26688W        W42582   6.227   5.421  16.471 -0.2136  0.2305 -0.1800
26689W        W42583   5.041   2.072   5.069  0.0950  0.1824  0.4347
26690W        W42584   4.279  11.144  11.873 -0.1909  0.1408  0.0410
26691W        W42585   0.636   5.680  13.188  0.2372 -0.0762 -0.0020
26692W        W42586  15.158  15.563   3.956 -0.1386 -0.1049  0.0279
26693W        W42587  13.131   8.975  13.702  0.1788  0.4047  0.2529
26694W        W42588   7.092  10.368   1.719 -0.3702 -0.1876 -0.0018
26695W        W42589   5.597  14.148  12.596  0.2740 -0.0228 -0.2510
26696W        W42590  10.097   9.990  11.945  0.1722 -0.0183 -0.0282
26697W        W42591   3.198  11.012  13.057  0.1696 -0.1817  0.1398
26698W        W42592  13.696   6.477   3.224  0.2905 -0.3074 -0.3049
26699W        W42593   5.120  15.312   2.030  0.2823  0.2635  0.4330
26700W        W42594  13.379   3.736  11.393 -0.5317 -0.3042 -0.1186
26701W        W42595   6.356   2.835  12.328  0.0135  0.3596  0.1842
26702W        W42596  15.516   4.341  16.791  0.0047  0.1090  0.0309
26703W        W42597   7.719  17.575   2.130  0.0391 -0.0289  0.0850
26704W        W42598   0.601  17.267  15.624 -0.0867 -0.0534  0.4198
26705W        W42599  15.528   1.385   0.254  0.1654  0.1896  0.0384
26706W        W42600  13.476   3.437  15.547 -0.1035 -0.1113 -0.2052
26707W        W42601  15.804  15.322   6.057  0.0987 -0.0166 -0.2114
26708W        W42602   5.284   4.486   2.555 -0.0796 -0.0829 -0.3936
26709W        W42603  17.370   2.762  15.767 -0.1116  0.0725  0.3058
26710W        W42604   0.485   4.725   2.593 -0.1874 -0.1569  0.0169
26711W        W42605  14.181   7.852  13.925  0.0199  0.0594 -0.0244
26712W        W42606   8.796  15.670  14.776  0.2120  0.1719 -0.2277
26713W        W42607   3.446   0.807   2.282 -0.0788 -0.0694 -0.1006
26714W        W42608   1.441  17.833  13.903  0.1914  0.0840  0.1088
26715W        W42609  10.998  10.579  16.641  0.0574 -0.1558 -0.1043
26716W        W42610   4.012  13.459  16.060 -0.0997  0.0891 -0.1676
26717W        W42611   6.702   7.092  16.211  0.3316  0.1424  0.0899
26718W        W42612   2.708   3.602   4.374  0.2210 -0.1411 -0.1895
26719W        W42613   3.110  11.908   1.832  0.3000 -0.1135 -0.0572
26720W        W42614   3.244   3.146  12.791  0.1943  0.3406 -0.0287
26721W        W42615   0.781   6.154   2.654  0.0672 -0.1971  0.0974
26722W        W42616  17.600  14.697   5.633  0.1287  0.1902 -0.0334
26723W        W42617  16.050  17.811  11.865 -0.0915 -0.0040 -0.0854
26724W        W42618  14.840  17.121  11.531 -0.1670 -0.0486 -0.3361
26725W        W42619  12.476   0.025   0.356 -0.0550  0.3276  0.0455
26726W        W42620   3.883   0.217   2.901  0.1538 -0.0643 -0.0083
26727W        W42621   4.985   0.807  16.007  0.1123  0.0256 -0.3759
26728W        W42622  11.198   9.430   4.957  0.0624  0.0814  0.5186
26729W        W42623  12.175  15.142   0.254  0.0454  0.1467 -0.2948
26730W        W42624  11.824   9.341  13.366  0.2076  0.1057 -0.0582
26731W        W42625   2.735  10.642   1.687 -0.2117 -0.0750  0.0375
26732W        W42626   4.634   4.551   0.572  0.1541 -0.0485  0.1697
26733W        W42627   8.200   8.925  15.731 -0.1299  0.0081 -0.0230
26734W        W42628  11.894   8.996   3.001  0.4936 -0.0226 -0.0356
26735W        W42629  14.301  17.689  16.453 -0.1021  0.1558 -0.0953
26736W        W42630   0.600   4.431  12.879 -0.1648  0.0923  0.1322
26737W        W42631   0.706  11.197  14.370  0.0081 -0.2373  0.1067
26738W        W42632  16.577   5.568  16.568  0.0845  0.1630  0.3318
26739W        W42633  13.868  14.495  12.092  0.3581 -0.1394  0.1607
26740W        W42634   5.132  13.886  12.644  0.2311  0.2213  0.1131
26741W        W42635  16.585   1.438  13.194  0.2594  0.1156  0.0420
26742W        W42636  16.846  10.644  13.583 -0.0940 -0.1472 -0.3873
26743W        W42637   1.035   6.209  16.735 -0.1778 -0.1164  0.0786
26744W        W42638   1.903   5.827   4.025  0.0108  0.1779  0.0814
26745W        W42639  15.346  17.784   0.677  0.2272  0.4067 -0.0029
26746W        W42640  14.846   2.131  11.807 -0.0810 -0.3759 -0.0236
26747W        W42641   8.132   4.010   1.787 -0.3693 -0.2116  0.4621
26748W        W42642  15.620  14.384   5.352 -0.1765 -0.1499  0.0264
26749W        W42643  14.673  17.045   5.977  0.2493  0.2892  0.0701
26750W        W42644   7.317   1.303   3.296 -0.0985 -0.2854  0.1514
26751W        W42645   8.124  13.165  14.770 -0.4608  0.0235 -0.0820
26752W        W42646   1.832   1.335  12.294  0.0311 -0.2965 -0.0896
26753W        W42647  10.719   4.278  16.439  0.3649 -0.0073  0.1910
26754W        W42648   8.467   5.800   0.322  0.2150  0.1241 -0.0130
26755W        W42649   1.265   8.003  15.055 -0.0033 -0.1004  0.0797
26756W        W42650  15.018   2.745  16.418  0.1809  0.1783  0.1913
26757W        W42651   7.988   3.581   2.031 -0.3937  0.0926 -0.1804
26758W        W42652  12.561  15.167   2.051  0.0254 -0.0303  0.0942
26759W        W42653  12.488   8.269  12.932 -0.0158  0.0623 -0.0354
26760W        W42654   0.653   4.040  14.969  0.0535 -0.1193 -0.0513
26761W        W42655  13.045   8.015  12.075  0.0840  0.0456 -0.0426
26762W        W42656  17.777   4.181   2.175  0.2778 -0.0778 -0.2342
26763W        W42657  11.518  11.356   4.266 -0.0071  0.0029  0.1962
26764W        W42658  15.662   3.016   5.259 -0.0960  0.0867 -0.0532
26765W        W42659  13.195   7.873   0.349  0.0523  0.2961 -0.1333
26766W        W42660  15.147   9.362  14.381  0.0657  0.0286  0.3874
26767W        W42661  12.673   6.644  16.422 -0.1627 -0.0573 -0.1336
26768W        W42662   0.286   2.327   0.201 -0.0545 -0.1161  0.0275
26769W        W42663  17.665  10.720  12.987 -0.1930  0.3709 -0.0371
26770W        W42664   6.469  10.808   0.783  0.1508 -0.1358  0.1145
26771W        W42665   3.097   6.291  15.550 -0.2203  0.1895 -0.0372
26772W        W42666   0.188   1.682   3.071 -0.1884  0.1424 -0.0023
26773W        W42667   7.525   1.148   5.338  0.0984  0.0114 -0.0978
26774W        W42668   4.829  17.593   4.304 -0.1816 -0.2394  0.0789
26775W        W42669  17.665  16.328  13.864  0.0708  0.0227 -0.1043
26776W        W42670  14.261  16.351   5.789 -0.0676  0.1149  0.0092
26777W        W42671   6.417  11.784  12.477 -0.2024  0.0087  0.1802
26778W        W42672  13.573  17.744  12.552  0.2601 -0.0750  0.0856
26779W        W42673  11.618   7.470   1.655  0.0449  0.2513 -0.1466
26780W        W42674   6.668   7.831   3.127 -0.1236 -0.2454  0.0169
26781W        W42675   0.132   6.911  16.806  0.0657  0.1420 -0.0757
26782W        W42676  13.543   6.117   2.828 -0.0662  0.0072 -0.2141
26783W        W42677  14.729   9.338   4.996  0.2421 -0.0729  0.2473
26784W        W42678  10.953   3.022  13.483  0.1539 -0.1323  0.1290
26785W        W42679   2.016  10.602  11.906 -0.3486  0.1942  0.1208
26786W        W42680  17.612   3.570   4.952 -0.0446 -0.0625  0.1748
26787W        W42681   2.706   9.569  15.593  0.1364 -0.2092  0.2036
26788W        W42682   8.122  15.125  14.399  0.0983 -0.1793 -0.1415
26789W        W42683   9.118  15.317   1.575 -0.1016  0.1953  0.1550
26790W        W42684   9.133   3.440  11.812  0.2111 -0.2176 -0.2349
26791W        W42685   1.963  14.050  13.951 -0.0357  0.1134  0.0202
26792W        W42686   2.441   5.047   1.049  0.0985  0.0456  0.1154
26793W        W42687   0.492   2.164   1.779  0.0430 -0.0994 -0.0281
26794W        W42688  17.727   3.171  15.610 -0.0048 -0.0291  0.1432
26795W        W42689   8.949   9.112   1.523  0.3237 -0.0822 -0.0670
26796W        W42690  13.942  15.709   1.514  0.1254  0.0007 -0.0207
26797W        W42691   1.287   0.216  16.113 -0.1855 -0.0950  0.2577
26798W        W42692   4.170   7.950   1.672  0.2333  0.3038  0.0091
26799W        W42693  10.366  14.581   4.768 -0.5288  0.1566  0.1458
26800W        W42694   2.777   1.797   1.624 -0.1588 -0.3509  0.0818
26801W        W42695   8.237  16.079  14.472  0.0305  0.0963 -0.1109
26802W        W42696   3.996  14.748  15.971  0.0569  0.0972  0.1303
26803W        W42697  10.412  15.696   0.682  0.0137  0.0250 -0.5392
26804W        W42698  13.082   4.132   3.016  0.0349 -0.1240 -0.2336
26805W        W42699  11.332   9.347   1.962 -0.0214 -0.0681  0.2642
26806W        W42700  11.854  14.486  14.189  0.2655 -0.1844  0.2430
26807W        W42701   7.378  14.922   4.747  0.0247  0.0914 -0.0748
26808W        W42702   3.028  11.190   4.662 -0.1572  0.0617 -0.0921
26809W        W42703   6.622  10.632   2.758 -0.1954 -0.0651  0.0972
26810W        W42704   6.091  14.015   3.991  0.3019  0.0394  0.0665
26811W        W42705   3.228  16.608  16.274  0.2055  0.2564  0.3415
26812W        W42706  15.725   5.001  14.296  0.0497 -0.3216  0.1005
26813W        W42707   7.893   9.085   1.149 -0.0464 -0.2834  0.1963
26814W        W42708   7.787   7.149   5.564  0.2140 -0.0484 -0.0461
26815W        W42709   0.499   0.286  10.398 -0.0952  0.5327  0.1062
26816W        W42710   7.736   2.133   3.681  0.1102  0.1293  0.0556
26817W        W42711  10.157  12.839   0.456 -0.0856  0.0690  0.3491
26818W        W42712  11.052  14.892  14.029  0.0118 -0.2077 -0.1350
26819W        W42713   8.724   8.833  14.335 -0.2030 -0.0686  0.1603
26820W        W42714  11.794   4.354   2.967 -0.2631  0.0416 -0.1214
26821W        W42715   0.406   9.804   3.207  0.0746 -0.2375  0.0363
26822W        W42716  16.677  11.285   2.398  0.0361  0.1756  0.0022
26823W        W42717   4.759   4.479   4.489  0.0306  0.0472 -0.0326
26824W        W42718  12.295  17.763   1.650  0.0240  0.0429 -0.3507
26825W        W42719  13.663  17.426  15.173 -0.0869 -0.2337 -0.1839
26826W        W42720   4.251   7.370  14.882 -0.2181  0.3771 -0.1146
26827W        W42721  17.668  12.216   0.884  0.0579 -0.0528 -0.0047
26828W        W42722  13.008   7.294   5.087  0.1769 -0.3577  0.4002
26829W        W42723  11.217  14.655  15.329 -0.2225 -0.1157  0.0373
26830W        W42724  15.354   2.342   0.946 -0.1486  0.0210 -0.0223
26831W        W42725  16.283  14.139   5.839  0.1925 -0.0396 -0.1179
26832W        W42726  13.597   2.957   2.862 -0.0112  0.1171  0.5005
26833W        W42727   5.198  13.459  15.048 -0.2322 -0.1405  0.1112
26834W        W42728  10.590  11.507   1.409  0.4420 -0.2260 -0.2231
26835W        W42729  15.261  12.783  15.266 -0.1581 -0.2008 -0.0393
26836W        W42730  12.569  15.381  15.397  0.1855  0.0847 -0.1133
26837W        W42731   3.777   4.908  11.963 -0.2051  0.1011 -0.3237
26838W        W42732   7.208   1.477  15.787 -0.4671  0.1916  0.0044
26839W        W42733  11.238  13.746  13.380 -0.0760 -0.3411  0.0849
26840W        W42734  11.320   2.896  11.460  0.0489 -0.0303 -0.1881
26841W        W42735  17.672   0.686  15.408  0.0605  0.0696 -0.0711
26842W        W42736  14.615   9.306  16.769  0.1836  0.0458 -0.1352
26843W        W42737   9.723   6.375  11.454 -0.0645  0.0622 -0.0520
26844W        W42738   5.482   4.349  11.937  0.1216 -0.0706  0.3860
26845W        W42739  12.473   9.988   5.070  0.0509  0.0075 -0.1933
26846W        W42740   1.819   5.831  13.005 -0.2036 -0.1599 -0.1180
26847W        W42741   9.348   5.885   5.689  0.0616 -0.0978 -0.0392
26848W        W42742  10.262  11.876   1.201 -0.2521 -0.0811 -0.0201
26849W        W42743   1.956   4.516   0.330 -0.1563  0.0744 -0.1217
26850W        W42744   6.822   0.665  16.449  0.0985  0.2006  0.0447
26851W        W42745   2.272   6.873  16.829  0.2521  0.1239  0.1350
26852W        W42746   2.928  14.375  12.648  0.1444 -0.3058  0.3416
26853W        W42747  10.472  10.486   4.659 -0.1047 -0.0266 -0.3166
26854W        W42748   3.538  10.171  16.280 -0.3030  0.3822 -0.2579
26855W        W42749  17.838   9.965  16.722 -0.0050  0.1532 -0.1041
26856W        W42750  15.216  10.242   0.481 -0.3030  0.1653  0.0927
26857W        W42751  14.646   1.548   4.111  0.0290 -0.0559 -0.3724
26858W        W42752   3.737  14.959   3.552 -0.0103  0.2964  0.1899
26859W        W42753   5.386  14.094   1.040  0.2236  0.0134 -0.2319
26860W        W42754  14.128   7.471   1.196 -0.0941 -0.3854  0.0515
26861W        W42755  17.086   5.307   2.013  0.0588 -0.0504 -0.2781
26862W        W42756   4.072  11.902   2.329  0.1179 -0.1070 -0.0999
26863W        W42757   7.523  11.222  12.568 -0.2479 -0.1153 -0.0051
26864W        W42758   3.103   9.398  12.233  0.3191 -0.0507  0.1623
26865W        W42759   4.937   1.955   1.296 -0.2083  0.1512  0.1750
26866W        W42760   0.561   1.645  12.079 -0.1263  0.0314  0.1922
26867W        W42761   0.399   9.916  11.985  0.2033  0.1473 -0.0730
26868W        W42762  17.160  12.365   1.105 -0.2931  0.2512 -0.4481
26869W        W42763  14.656   3.102   0.938 -0.0119  0.2444  0.0328
26870W        W42764  12.001   4.567   5.409  0.0757 -0.0905  0.0058
26871W        W42765   8.392   3.357  16.883  0.1578  0.2076 -0.0770
26872W        W42766  10.158  14.157  16.143  0.0844  0.1106  0.1341
26873W        W42767  17.606   7.572  12.441  0.3661 -0.0589 -0.0977
26874W        W42768   2.246   1.848   0.374 -0.1758 -0.3446 -0.1054
26875W        W42769   5.799   6.965  13.220 -0.0394  0.3092 -0.4641
26876W        W42770   1.189   5.479   4.290 -0.1187 -0.0367  0.1735
26877W        W42771   2.148  11.754   1.750  0.4533  0.2135 -0.0504
26878W        W42772   6.827  14.930  12.251  0.1558 -0.0620 -0.1765
26879W        W42773   1.334  16.006   1.556  0.2893  0.1503 -0.0657
26880W        W42774   4.341  12.152  15.059 -0.4489  0.0905  0.0414
26881W        W42775   3.308   8.329   0.762  0.0988 -0.0413  0.2364
26882W        W42776  12.430   5.989  15.473  0.1836  0.0919  0.2533
26883W        W42777   1.301  10.304   4.158  0.2481 -0.1312  0.1147
26884W        W42778   9.128   3.138   0.400 -0.0131  0.1506 -0.0645
26885W        W42779   3.032   1.337  11.960  0.2419 -0.1611  0.1089
26886W        W42780  12.334   5.710  13.720 -0.3364  0.0706 -0.1397
26887W        W42781   3.006  17.782  12.070  0.0629 -0.4399 -0.0150
26888W        W42782   7.066  11.167  11.636 -0.0801 -0.2309 -0.0585
26889W        W42783   2.320  13.630  15.535 -0.1078 -0.0244 -0.1722
26890W        W42784  15.728   1.878  13.453  0.2223 -0.1390 -0.1038
26891W        W42785  16.194   7.538  16.454 -0.5172  0.2844 -0.0209
26892W        W42786  17.561  12.556  13.766  0.0294  0.0419  0.2301
26893W        W42787  10.232  12.893   2.802  0.1192 -0.0569  0.0507
26894W        W42788  15.597   9.663  16.760 -0.0126  0.0615 -0.3071
26895W        W42789   8.569  13.041   1.720 -0.0182  0.0372 -0.4854
26896W        W42790   5.886  15.918   1.380 -0.1666 -0.0946  0.0027
26897W        W42791   8.885   1.481  13.640  0.2551  0.1752 -0.3654
26898W        W42792  10.479   5.101  12.423  0.0798 -0.0607 -0.3556
26899W        W42793   1.686  13.452   0.215 -0.0234 -0.0608  0.1560
26900W        W42794   7.053   7.795  16.823  0.0450 -0.0486 -0.0179
26901W        W42795   4.789   7.917   4.970  0.2185  0.3512  0.0159
26902W        W42796   3.057   9.131  14.609  0.1720 -0.4000 -0.1711
26903W        W42797  14.289  14.770   3.484  0.0208  0.1753 -0.1144
26904W        W42798  13.243  13.017   1.927 -0.0383 -0.0992 -0.0299
26905W        W42799   8.123   7.620   5.443 -0.0326 -0.0899  0.1108
26906W        W42800  10.422   1.544   3.463 -0.0784  0.0840  0.2787
26907W        W42801   8.962   1.741  12.391  0.3064  0.2060 -0.2310
26908W        W42802  10.463  17.252  14.156 -0.0789  0.1853 -0.0531
26909W        W42803  16.716   9.708  12.694  0.2069  0.4059 -0.3952
26910W        W42804  11.065  14.589   5.452 -0.1281 -0.2727 -0.0169
26911W        W42805   5.429   2.011  12.607  0.0783 -0.0655 -0.0416
26912W        W42806  16.301  11.547   0.494 -0.0196 -0.1790 -0.2562
26913W        W42807   9.753   8.139   4.341 -0.2473 -0.0226  0.0421
26914W        W42808   0.023   9.190   1.703 -0.1794 -0.0130  0.0641
26915W        W42809   7.112   4.866   5.140 -0.2982 -0.3351 -0.0226
26916W        W42810   4.536   2.159   1.074  0.2075 -0.0251  0.1962
26917W        W42811   2.382  14.039   1.979  0.0254 -0.2561 -0.0525
26918W        W42812  14.441  17.833  15.545  0.3784  0.2135 -0.2053
26919W        W42813   3.715   9.200  11.433 -0.2349  0.0121 -0.1235
26920W        W42814   8.179  11.900  11.943 -0.0585 -0.0167  0.1412
26921W        W42815   8.057   4.479  13.000  0.0511  0.1646  0.0716
26922W        W42816  14.362  16.396   3.251 -0.1668  0.2126 -0.2593
26923W        W42817  17.414   1.012   4.061 -0.2050  0.0452 -0.1029
26924W        W42818   5.439  15.741   1.524  0.0923  0.0460 -0.2615
26925W        W42819   1.157   7.166  16.549 -0.0097  0.0658  0.0395
26926W        W42820   9.363   3.272   0.004  0.0334 -0.1224 -0.2008
26927W        W42821   0.685  17.692   5.111  0.0907  0.2800  0.1396
26928W        W42822  10.134   7.773   5.251  0.1268  0.0104  0.3401
26929W        W42823  11.255  10.327  16.322 -0.1817  0.3115  0.0132
26930W        W42824   8.171  16.708  11.862  0.1530  0.2306 -0.1013
26931W        W42825  14.067  16.623  12.998 -0.2817 -0.0510  0.1938
26932W        W42826   6.652   4.018   0.966 -0.1606 -0.0167  0.0250
26933W        W42827  14.416   3.259   0.105 -0.2561 -0.0196 -0.1817
26934W        W42828   1.151  11.590  14.304 -0.1209 -0.1078  0.1315
26935W        W42829   0.277  13.289   1.267  0.7601  0.0664  0.0221
26936W        W42830   9.513  16.356  12.535 -0.0292  0.2239 -0.0102
26937W        W42831  12.160  11.818   3.237 -0.2571 -0.2595 -0.0674
26938W        W42832  16.277   4.085   0.597  0.1742 -0.0509  0.2155
26939W        W42833  17.415  12.291   4.580  0.1159 -0.0669 -0.0207
26940W        W42834   4.795   9.542   1.352  0.2146  0.1809 -0.0199
26941W        W42835   9.352  17.670  13.418 -0.1995 -0.2321 -0.0329
26942W        W42836  16.982   2.970   2.841 -0.2080  0.0769  0.0541
26943W        W42837  13.793  12.490  14.276 -0.0692 -0.2743 -0.3858
26944W        W42838   0.654   9.703  12.393  0.3290  0.0403 -0.0816
26945W        W42839  13.907   9.982   0.766  0.0401 -0.0207 -0.0677
26946W        W42840   2.071   3.582   0.283 -0.2213 -0.0894 -0.1788
26947W        W42841   3.048  10.776   3.960  0.0515 -0.0423 -0.0787
26948W        W42842   1.420   4.677   3.782 -0.2198  0.0911 -0.0792
26949W        W42843   6.541  11.990  16.367  0.2779  0.0207 -0.0797
26950W        W42844  10.875   1.336  12.882 -0.1449 -0.1431  0.2088
26951W        W42845   1.349   0.034   3.040  0.3026 -0.2694  0.0645
26952W        W42846   6.084   9.943  13.077  0.0164 -0.1453  0.1886
26953W        W42847  17.645  16.161  15.446  0.2110 -0.0515  0.1065
26954W        W42848  15.172   8.582  12.618 -0.0914 -0.0207  0.2825
26955W        W42849  12.957  17.488   5.359 -0.0061  0.2420  0.1083
26956W        W42850   2.835  14.416   3.060 -0.0662 -0.2467 -0.0139
26957W        W42851   9.609  16.565  15.356 -0.1730  0.1026 -0.0149
26958W        W42852   0.618  10.251  16.266  0.0217  0.0858 -0.0390
26959W        W42853   3.222   0.025  12.542  0.1310  0.0667 -0.1369
26960W        W42854   1.019  12.949  14.257 -0.0156 -0.2606  0.1573
26961W        W42855  15.323   6.628   4.474  0.1170  0.2061 -0.2308
26962W        W42856   3.048   8.376   4.027 -0.2035 -0.3130 -0.5053
26963W        W42857   4.021   6.455   0.756 -0.0632 -0.2686  0.1817
26964W        W42858  11.524   6.815  16.357 -0.5159 -0.0105  0.0927
26965W        W42859  11.083  10.880   1.049  0.1528 -0.0909 -0.1550
26966W        W42860   9.910  14.985   0.959 -0.0547  0.1288  0.0012
26967W        W42861   0.670   0.211  11.366  0.1648  0.0190  0.0010
26968W        W42862   0.628  12.072   3.755 -0.1907  0.0244  0.0870
26969W        W42863  14.353  10.418   4.105 -0.1099  0.0169 -0.1254
26970W        W42864   5.541   5.871  15.967  0.0801  0.1007  0.0552
26971W        W42865  12.964   5.850  15.204  0.1967 -0.1808  0.1975
26972W        W42866  14.265  15.923  13.519  0.0614 -0.0864  0.0990
26973W        W42867  12.074   4.041   3.705  0.0199  0.0991  0.1713
26974W        W42868  13.112  14.399  16.920 -0.0749  0.0102  0.2186
26975W        W42869  15.749   0.868  14.164 -0.2596 -0.0843  0.1877
26976W        W42870   8.229   0.997   6.511  0.1629 -0.0741  0.0016
26977W        W42871   4.836  17.257  12.966 -0.1169 -0.0626  0.3399
26978W        W42872   9.137  13.635   0.691  0.1827 -0.2382 -0.0043
26979W        W42873   1.471  12.775  12.842 -0.3233  0.3554 -0.2025
26980W        W42874   5.104   9.097   0.394  0.0816  0.0932  0.0397
26981W        W42875  14.212   4.274   6.184 -0.1626 -0.2260  0.2973
26982W        W42876   8.026  12.196  16.562 -0.0322  0.3729 -0.1116
26983W        W42877  10.338   7.674   0.432  0.1694 -0.0742 -0.0985
26984W        W42878   3.059   7.690   3.193  0.0013  0.0140  0.0501
26985W        W42879   4.984   4.998   3.737 -0.0802  0.0139  0.0042
26986W        W42880  15.257   1.191  14.053  0.1274 -0.0512 -0.1020
26987W        W42881   9.346  14.277   0.891 -0.0925 -0.0870  0.1699
26988W        W42882  14.943  13.566   4.641 -0.2069  0.0819  0.2269
26989W        W42883   4.115  15.394   2.162 -0.0396  0.1951  0.2536
26990W        W42884   5.524  10.780   1.362 -0.4066  0.1472 -0.1907
26991W        W42885   4.803  14.379   5.450 -0.0706  0.0076  0.0340
26992W        W42886   0.419  17.630   4.670  0.3017  0.1063 -0.3070
26993W        W42887   0.046  15.215   0.322 -0.0382  0.1903  0.2258
26994W        W42888  15.314   0.785  10.197  0.1838 -0.0255  0.2318
26995W        W42889   3.581   3.696  14.839  0.2882 -0.1088  0.2698
26996W        W42890   2.825  11.764  13.301  0.0573  0.0387 -0.0816
26997W        W42891   5.379   7.936  15.118 -0.1833  0.1450 -0.0420
26998W        W42892   1.724   7.436   1.959  0.1080  0.0513 -0.1010
26999W        W42893  14.548   9.494   1.871  0.1693  0.1404 -0.3672
27000W        W42894  14.641   4.625   2.616  0.0083  0.3077  0.2610
27001W        W42895   6.524   7.277   2.333 -0.0970  0.2417 -0.1482
27002W        W42896  15.392   0.686  11.452 -0.0115 -0.1685  0.2958
27003W        W42897  15.111   9.586  13.820 -0.0199 -0.0919  0.0313
27004W        W42898   6.080   9.300  16.656  0.3402 -0.0660  0.0418
27005W        W42899   7.270  17.149   5.253 -0.0910  0.3933  0.0175
27006W        W42900  16.810   6.285  15.201  0.0402  0.1711 -0.3121
27007W        W42901   2.789  17.139   2.435 -0.2351  0.1482  0.0457
27008W        W42902   3.509  12.762  12.602 -0.3516 -0.1323 -0.4979
27009W        W42903   4.927   9.072   2.295 -0.1299  0.1850  0.4991
27010W        W42904   6.195   5.309   0.538  0.0580  0.1631  0.2925
27011W        W42905  11.445  14.319   0.638  0.0855  0.0662 -0.1058
27012W        W42906  14.983   1.424   4.617  0.1225  0.1066  0.2087
27013W        W42907   2.204   5.792  11.643  0.1709 -0.0863  0.0801
27014W        W42908  12.994  12.894   1.181  0.0224 -0.1813  0.0992
27015W        W42909  13.764   7.058  13.180 -0.1197 -0.0569  0.1695
27016W        W42910   0.146  14.925   3.956  0.3571 -0.0166 -0.0296
27017W        W42911  14.741  15.614  12.005 -0.1766 -0.0210 -0.0288
27018W        W42912   8.657  15.318  14.423 -0.0391 -0.1136 -0.1041
27019W        W42913   2.027   7.617  12.923  0.1118  0.0693  0.2294
27020W        W42914  13.511   4.719   5.330 -0.1786 -0.0942 -0.0104
27021W        W42915   6.875   2.361   4.520 -0.3286  0.1945  0.1647
27022W        W42916  13.356  10.162  16.086 -0.1283 -0.3440  0.2137
27023W        W42917   0.364   6.479   4.043  0.2533  0.0676  0.0653
27024W        W42918  12.326  15.744   5.607  0.1473 -0.0637 -0.1926
27025W        W42919   1.465  15.047  12.160 -0.2760 -0.0629 -0.2782
27026W        W42920  11.279  15.314   1.108 -0.1149  0.0922 -0.4494
27027W        W42921   6.902  11.055   4.127 -0.0505 -0.1242 -0.2164
27028W        W42922   5.051  11.305  11.857  0.0507  0.2752 -0.1243
27029W        W42923   0.805   3.262   0.484  0.1802  0.0735 -0.0750
27030W        W42924   9.146   5.611  15.163  0.0775  0.1321 -0.1478
27031W        W42925   9.373  13.918  14.949 -0.0988  0.3234  0.0905
27032W        W42926   4.058  12.143   1.841  0.0229  0.1919 -0.0390
27033W        W42927   2.232   2.851   3.217  0.1771  0.1889  0.2032
27034W        W42928  14.603   1.090  12.808  0.0256  0.3330  0.0241
27035W        W42929  10.002   0.855   1.245  0.3989  0.0555  0.1823
27036W        W42930   3.165  11.670   5.896  0.1704  0.1410 -0.1135
27037W        W42931  14.730  14.647   0.728  0.1097 -0.0830  0.1044
27038W        W42932  11.011  14.095  16.675  0.1852 -0.0054  0.1753
27039W        W42933   6.665  11.300  14.820 -0.2519 -0.1620  0.0540
27040W        W42934  17.293   4.885  16.665 -0.0547 -0.1181  0.0514
27041W        W42935  13.250   9.240  12.531 -0.1351  0.0681  0.0923
27042W        W42936   8.604  17.597   1.062  0.0557  0.3501  0.1995
27043W        W42937   1.225   2.258  12.971 -0.2095  0.0261 -0.1356
27044W        W42938  12.036  11.882   2.726 -0.1650  0.0268 -0.2291
27045W        W42939  16.898  17.510  16.198 -0.0163  0.0544  0.0373
27046W        W42940   8.791  17.059  12.265  0.3384  0.2491 -0.0781
27047W        W42941  12.729   4.336   0.674 -0.2186  0.0155  0.0631
27048W        W42942  17.827  11.915   1.348  0.0253  0.1182  0.2965
27049W        W42943   6.673  13.319  12.508  0.3536 -0.0303 -0.2948
27050W        W42944   2.567   7.872   2.186 -0.1437 -0.0326  0.3243
27051W        W42945   3.209  15.456  12.004  0.2478 -0.0125  0.0615
27052W        W42946  16.716   6.441   4.319 -0.0301 -0.1953  0.0065
27053W        W42947   2.762  15.387   1.194  0.0879  0.0446  0.2379
27054W        W42948   8.760   4.324   5.752 -0.0283 -0.0673 -0.0665
27055W        W42949  14.668  12.821   5.738 -0.3109  0.2203  0.6925
27056W        W42950  16.967  17.751  13.261 -0.2238  0.1378 -0.0628
27057W        W42951  13.503   2.856  11.765  0.0403 -0.1180 -0.2657
27058W        W42952  13.720  16.323  16.029  0.3247  0.0766  0.2653
27059W        W42953  13.549  16.495  13.127 -0.0868 -0.0145  0.1372
27060W        W42954   1.800   3.081  15.663  0.1734 -0.1458  0.0435
27061W        W42955   5.467  13.692   2.942 -0.1219  0.0585 -0.1582
27062W        W42956   8.221   8.017   0.532 -0.0043 -0.2199  0.1889
27063W        W42957   4.522   6.459   3.021 -0.0338 -0.0573 -0.0952
27064W        W42958   9.475  16.461   3.730 -0.0255  0.0878  0.3582
27065W        W42959  13.146  11.504   2.239  0.1962  0.3770  0.0815
27066W        W42960  10.119  12.200  13.806  0.1069 -0.1961  0.2730
27067W        W42961   0.123  16.687  16.160 -0.2598  0.0103 -0.1937
27068W        W42962  15.084  14.029   5.051 -0.0247  0.0406  0.1107
27069W        W42963   9.877   7.661   2.203  0.1689 -0.3901  0.4811
27070W        W42964   7.363   6.444  14.552 -0.0115 -0.4030  0.2196
27071W        W42965   4.339  12.604   2.524  0.1851 -0.0544  0.0699
27072W        W42966  12.819   0.063   3.126 -0.2683  0.0132  0.0085
27073W        W42967   7.711   0.113  12.045 -0.0411 -0.1979  0.2514
27074W        W42968   7.856   2.321   2.714  0.0066  0.4999 -0.0229
27075W        W42969  12.044   4.281  15.777  0.3797  0.2271 -0.0293
27076W        W42970  14.768  17.071  13.689 -0.2565  0.2708 -0.2888
27077W        W42971   4.988  11.774   0.207  0.2721 -0.0911  0.2120
27078W        W42972   6.215   6.351   3.108  0.0959  0.2329  0.1457
27079W        W42973  13.506   2.623   1.987  0.1615 -0.3398 -0.3543
27080W        W42974   2.230  10.668   2.860  0.0509 -0.0264 -0.0077
27081W        W42975   4.190  16.050   5.752 -0.0078 -0.0610  0.0462
27082W        W42976   2.858   6.038   1.045 -0.1757  0.1127 -0.0370
27083W        W42977   5.722   9.590  15.802 -0.1843  0.2341  0.2659
27084W        W42978  10.222   9.015  16.570 -0.0594  0.2072  0.0103
27085W        W42979  17.667  10.444  16.582 -0.1056  0.0662 -0.0554
27086W        W42980   8.141   9.795  12.628 -0.2057 -0.1662 -0.1539
27087W        W42981   7.378  10.173  12.681  0.1673  0.1711  0.1758
27088W        W42982   0.187   7.826   4.271  0.1526 -0.1091  0.3728
27089W        W42983  16.442   0.863   4.308 -0.1724 -0.0907  0.1510
27090W        W42984   9.695   9.968  14.273  0.0140 -0.0891  0.0217
27091W        W42985   7.845   0.522  16.643  0.2327 -0.0943 -0.0032
27092W        W42986   3.807   9.759  16.059 -0.2660 -0.0956  0.1640
27093W        W42987   1.254  16.073  13.313  0.0729  0.2489  0.0266
27094W        W42988  10.789  14.813   6.025  0.0440 -0.0857  0.0789
27095W        W42989  17.373   8.799   2.439 -0.0255  0.0502 -0.0339
27096W        W42990   3.258  13.990  13.667 -0.0519  0.1355 -0.2959
27097W        W42991   3.481   0.753  15.223 -0.5914  0.1445 -0.3213
27098W        W42992   0.747  12.408   5.762  0.0319 -0.3296 -0.0542
27099W        W42993   0.275   4.835   5.464 -0.5774 -0.3041  0.1458
27100W        W42994  11.226   6.324   2.689 -0.2570  0.1928 -0.5484
27101W        W42995   6.079   3.666   0.100 -0.1504 -0.0228  0.0912
27102W        W42996   8.373  11.326   5.898 -0.0924 -0.0152  0.0801
27103W        W42997  10.919   5.956   4.804  0.3271 -0.0879  0.0718
27104W        W42998   7.269   1.053  12.920 -0.0966  0.3887 -0.1500
27105W        W42999   8.817   0.128   1.331 -0.1256 -0.0752  0.1430
27106W        W43000  10.313   5.062   0.052 -0.0854  0.2039 -0.1199
27107W        W43001   4.838  15.317  12.506 -0.4788  0.0601  0.1043
27108W        W43002   3.620   9.997  13.939  0.5938  0.0098 -0.0272
27109W        W43003   8.134   1.799  12.917  0.2169 -0.0022  0.0465
27110W        W43004   6.597   7.063   0.486  0.0838 -0.0316 -0.0541
27111W        W43005  15.840   9.101   3.349  0.1597 -0.0895  0.1356
27112W        W43006   3.562   7.351  13.444  0.1350 -0.2023  0.0854
27113W        W43007  16.089   9.117  13.743 -0.0432 -0.0387 -0.2688
27114W        W43008  15.410  10.355   4.155  0.3819  0.2729  0.1782
27115W        W43009   1.393   0.597  11.642 -0.1318 -0.5100  0.0305
27116W        W43010   8.624   7.323   4.972  0.0159  0.0025  0.0307
27117W        W43011  15.453   9.090   1.666  0.2922  0.0256 -0.0834
27118W        W43012  12.273   3.045  11.160  0.1463 -0.1426  0.1678
27119W        W43013  10.543  14.802  14.007 -0.1221 -0.0560  0.1731
27120W        W43014   5.493  14.387  13.432  0.1239  0.0927  0.1494
27121W        W43015  12.809   7.859  16.684 -0.0703  0.1415 -0.2072
27122W        W43016   6.293  11.921   5.269 -0.1378  0.2531  0.0360
27123W        W43017   4.339   9.843   0.927 -0.1240  0.1181 -0.2314
27124W        W43018   5.738   9.494  16.348  0.0727  0.0861 -0.0167
27125W        W43019   9.536   0.672   2.465  0.2064 -0.2220  0.1762
27126W        W43020  11.728  14.074   1.435 -0.2888  0.0238 -0.2765
27127W        W43021   2.594   1.223  16.790 -0.0152 -0.2702  0.0521
27128W        W43022  12.075   8.455   3.736  0.2786  0.2313  0.1346
27129W        W43023  17.338   1.492   3.929  0.1276 -0.3864 -0.1210
27130W        W43024   9.312  10.596  15.992 -0.0942 -0.0139  0.3124
27131W        W43025  11.929   8.260   3.251  0.2732  0.0040  0.0323
27132W        W43026   1.739   3.656  12.587  0.1417  0.3922 -0.1698
27133W        W43027   9.721  11.161   4.057  0.0927 -0.1615  0.0317
27134W        W43028  17.139  13.620   5.728  0.6454  0.1624  0.0033
27135W        W43029  10.889  10.867   2.146 -0.1319 -0.2502 -0.1025
27136W        W43030   0.498   7.953   2.609  0.0065 -0.2544  0.2449
27137W        W43031  16.718  13.793   1.249 -0.0199 -0.1723 -0.0442
27138W        W43032   5.971  15.883  15.315  0.3930 -0.3167  0.0953
27139W        W43033   4.781   9.177   1.805  0.2924 -0.2120  0.0638
27140W        W43034  14.945  17.518   4.182  0.3521  0.1812 -0.0389
27141W        W43035  11.188   9.808  12.707  0.0802  0.1093  0.1310
27142W        W43036  13.647  13.502  14.831 -0.1593 -0.0148 -0.3256
27143W        W43037  10.985   7.032  14.374 -0.2764  0.1590 -0.2556
27144W        W43038  13.658   0.007   5.401  0.1330 -0.2979  0.4089
27145W        W43039   9.986   2.229  15.780  0.0214 -0.1454  0.2254
27146W        W43040   5.336  17.472   0.692  0.1853  0.2892  0.0087
27147W        W43041   8.945   7.433  16.478 -0.3604  0.1536  0.0026
27148W        W43042  12.119   1.740   9.969  0.0325 -0.4499  0.3456
27149W        W43043   6.953   3.784  14.321  0.1711  0.2562 -0.0887
27150W        W43044   8.555  17.656  11.738 -0.0208  0.0052  0.1291
27151W        W43045  15.293  14.753  13.163 -0.2878 -0.0280 -0.0024
27152W        W43046  11.788  10.984   1.009 -0.2474  0.2224 -0.0594
27153W        W43047   8.527   5.086  15.484  0.1886  0.1574  0.1161
27154W        W43048   7.548  16.059  11.802 -0.2612  0.6173  0.1065
27155W        W43049  12.788   6.513   5.053  0.1751  0.1017 -0.0306
27156W        W43050  16.152   1.978  14.850 -0.0961  0.0993  0.1134
27157W        W43051  14.470   8.566   0.798  0.0086 -0.0741 -0.0745
27158W        W43052   3.125  14.208  12.117  0.0534  0.0411 -0.0820
27159W        W43053  11.648  16.272   3.874 -0.2286 -0.3509  0.1133
27160W        W43054  10.864   3.125   6.078  0.2207 -0.0455 -0.1933
27161W        W43055   3.556   5.489   2.480 -0.2416  0.0819  0.0640
27162W        W43056   9.262  15.868  13.415 -0.1062  0.3033  0.0903
27163W        W43057   7.330   1.796  14.312  0.1864 -0.3148 -0.2498
27164W        W43058   3.053   8.996   2.563 -0.1561 -0.1072 -0.1560
27165W        W43059  14.325  10.824  14.386  0.2543  0.1719  0.1081
27166W        W43060  17.422  13.091   4.456  0.2029 -0.0786  0.0356
27167W        W43061   3.025   8.757  16.286 -0.2452 -0.2040 -0.0317
27168W        W43062  12.633  15.431  14.398  0.1024 -0.0779  0.0305
27169W        W43063   1.934  15.574  15.256  0.0475  0.1142 -0.1390
27170W        W43064   0.554   5.773   0.887  0.3088 -0.3849  0.0024
27171W        W43065  15.702  13.033  13.249  0.1407  0.0475  0.0774
27172W        W43066  12.624  12.164   5.939  0.1111  0.0188  0.3423
27173W        W43067  10.156   3.160  14.843 -0.0034 -0.0904 -0.1864
27174W        W43068  17.274  16.883  11.667 -0.0985 -0.1138 -0.0569
27175W        W43069  16.215   8.295  13.354  0.1908  0.2929 -0.0968
27176W        W43070  16.703  15.746   3.044 -0.0046 -0.1414  0.0323
27177W        W43071  11.347   6.247  11.726  0.0841 -0.3633 -0.2485
27178W        W43072  17.079   0.611  12.849 -0.1815 -0.1270  0.2682
27179W        W43073   1.188  16.098  14.930 -0.2008  0.2562  0.1066
27180W        W43074   0.181   5.797   2.712 -0.0601 -0.0787  0.0872
27181W        W43075   8.120  16.016  12.862  0.0366 -0.1752  0.0305
27182W        W43076  10.771  10.607   3.796 -0.1034  0.0360  0.0526
27183W        W43077  12.788  14.072  12.597  0.1437  0.1354  0.2425
27184W        W43078  15.771   8.794   4.981 -0.1820 -0.0937 -0.0539
27185W        W43079  11.956   3.052   5.748  0.1940 -0.0409  0.1912
27186W        W43080  10.069   0.662  14.927  0.1819 -0.0173  0.1428
27187W        W43081   5.106  15.582   3.638 -0.0738 -0.3961 -0.4842
27188W        W43082  10.532   6.511   1.387  0.1082  0.2159  0.0850
27189W        W43083  16.936  14.291   5.009 -0.1434 -0.2870  0.0512
27190W        W43084   1.710   8.671  11.747  0.1854  0.0362  0.3977
27191W        W43085  10.309   6.354   5.981 -0.1080  0.0432  0.2070
27192W        W43086  17.814  14.435  12.502 -0.4249 -0.0052  0.4322
27193W        W43087   3.485   8.901   4.864  0.0567  0.1834  0.1173
27194W        W43088   2.380  13.483   1.268 -0.2659  0.2091 -0.0618
27195W        W43089   7.881   5.612   1.592  0.0566  0.1840  0.1453
27196W        W43090   9.330   4.655   2.083 -0.1837  0.0345  0.0159
27197W        W43091  16.381  15.108   0.791  0.2262 -0.2296  0.0256
27198W        W43092  14.631   8.102  13.870 -0.3096 -0.0159 -0.5117
27199W        W43093   8.940   3.931  16.759  0.1767  0.2024 -0.2563
27200W        W43094  12.656   9.803  11.318  0.1203  0.1987  0.2968
27201W        W43095   5.470   3.143   0.931 -0.3597 -0.1751  0.3042
27202W        W43096  10.997  16.619  16.019 -0.3260 -0.2255 -0.2598
27203W        W43097  10.578   5.557   3.904  0.1469  0.1057  0.0006
27204W        W43098   3.707  14.406  15.012  0.2550  0.1993 -0.0519
27205W        W43099  17.133   4.852   3.013 -0.0168 -0.1199 -0.0245
27206W        W43100  10.516  15.307  16.662  0.3274  0.0233 -0.0381
27207W        W43101   2.782   1.704   4.732  0.0287 -0.0153 -0.2170
27208W        W43102   4.474   6.659  15.674 -0.2900 -0.1405 -0.1858
27209W        W43103   8.106   7.155   5.182 -0.3724  0.0325  0.2998
27210W        W43104   8.082  15.393   0.657 -0.2323 -0.2269 -0.1538
27211W        W43105   4.239   4.907  16.577  0.2657 -0.2296 -0.3410
27212W        W43106   8.197   6.864  14.587 -0.1001 -0.1111  0.0597
27213W        W43107  10.527  17.298   2.040  0.0867 -0.0115  0.3129
27214W        W43108  17.287  17.069   4.537 -0.1312 -0.1558  0.0368
27215W        W43109   5.527   1.182   3.099  0.3170 -0.1503 -0.1895
27216W        W43110  11.536   4.898   0.365  0.0962  0.0743 -0.2662
27217W        W43111   6.362   2.731   0.151 -0.3092 -0.0811  0.1333
27218W        W43112   9.685  14.584   1.230 -0.3442  0.0220 -0.2233
27219W        W43113   3.466   5.316  15.337 -0.0000  0.2881  0.2470
27220W        W43114   4.241  15.932  11.955  0.3728  0.0654 -0.2898
27221W        W43115  16.529  10.130   1.126  0.1039 -0.1290 -0.0179
27222W        W43116  15.868   9.890  13.340 -0.1037 -0.0123  0.0214
27223W        W43117  13.743   9.426  12.577  0.1729 -0.1397  0.1003
27224W        W43118   3.240   7.103  11.997  0.2340  0.1760  0.2273
27225W        W43119   3.041  11.067   5.194 -0.0592 -0.2733 -0.0267
27226W        W43120  10.470  16.693   2.825  0.2449  0.2351  0.0767
27227W        W43121   2.288   4.433   3.844 -0.1577 -0.1416 -0.1501
27228W        W43122   8.226   0.561   2.515  0.1431 -0.2121 -0.1850
27229W        W43123  12.988   2.640  12.798 -0.0297  0.0575 -0.2440
27230W        W43124   9.628   1.004  13.317  0.2380  0.0375  0.0336
27231W        W43125   0.021   8.922   0.214 -0.1348  0.0482 -0.0495
27232W        W43126  13.731   3.382   4.823  0.2420 -0.0561 -0.2970
27233W        W43127  14.208  11.829   3.000 -0.1027 -0.1115 -0.3207
27234W        W43128  14.571  17.631   1.134 -0.2860  0.3293  0.1752
27235W        W43129  10.088   3.677  14.970  0.0206 -0.0998  0.0064
27236W        W43130   7.653   8.938   3.176 -0.0818  0.1340 -0.0438
27237W        W43131  17.741  16.265  14.896  0.2560  0.0354 -0.1875
27238W        W43132   5.112  11.337   5.000  0.0333 -0.2735  0.1598
27239W        W43133   7.543   9.408   1.304 -0.1751  0.2393  0.3344
27240W        W43134   2.067   3.382   3.370 -0.1650  0.0397  0.2104
27241W        W43135   8.836  10.585  11.922  0.2281 -0.1278 -0.0821
27242W        W43136   5.087   3.415   5.457 -0.1383 -0.2355  0.3066
27243W        W43137   3.469   5.338   2.974  0.3396  0.0139 -0.3684
27244W        W43138   0.478   1.458   4.464  0.2883 -0.1060 -0.0501
27245W        W43139   1.941   3.894  11.242  0.0442  0.0800  0.1890
27246W        W43140  17.782  15.737  13.444  0.0908 -0.0169  0.0184
27247W        W43141  17.461   9.642   5.993  0.0325  0.1807  0.0977
27248W        W43142   1.530   0.880  12.450  0.3394 -0.3606 -0.2036
27249W        W43143  14.397  14.347  14.395 -0.1934 -0.0767  0.3094
27250W        W43144   7.709   1.062   4.470 -0.0920 -0.0028 -0.0043
27251W        W43145  16.813   4.213   2.660  0.0024 -0.0712  0.1525
27252W        W43146  16.070  17.775  15.484  0.0608  0.1212  0.0884
27253W        W43147  10.743   7.333   2.419  0.0276  0.2528  0.4351
27254W        W43148   4.160  12.763  15.501  0.0509 -0.2018 -0.3705
27255W        W43149   4.799   1.505  12.514  0.1045 -0.2937 -0.2600
27256W        W43150  13.006  17.056   2.026  0.2226  0.1565 -0.1904
27257W        W43151   3.246   8.956  13.047  0.4145  0.0277 -0.1008
27258W        W43152   7.193  16.682   3.763  0.0358  0.0202 -0.1262
27259W        W43153   3.583  15.654   5.239 -0.2246  0.0424  0.1542
27260W        W43154  15.243   5.014  14.084 -0.1559  0.4194 -0.1398
27261W        W43155   6.874  11.614  13.874  0.1685 -0.4482 -0.1342
27262W        W43156   7.416  15.393   4.608  0.2179  0.0404  0.3038
27263W        W43157   3.424  14.810  15.234 -0.0979 -0.1047  0.2627
27264W        W43158   1.887  10.115  15.303 -0.1800 -0.0530  0.0534
27265W        W43159   1.519   9.836   5.395 -0.0374 -0.1486 -0.2576
27266W        W43160   8.979   4.728  13.046 -0.0467 -0.3502 -0.2152
27267W        W43161   1.418   5.780  15.155 -0.3014 -0.0645 -0.2773
27268W        W43162   2.643  16.434  11.706  0.0249  0.1677 -0.1529
27269W        W43163  16.663  14.520  13.397  0.0945  0.2461 -0.1553
27270W        W43164   4.205   6.614  11.401 -0.2058 -0.0225 -0.0174
27271W        W43165   4.671  12.371  12.746  0.2725 -0.2272 -0.0054
27272W        W43166  10.155  16.414  11.876  0.0955  0.0723  0.3299
27273W        W43167   9.409  14.786  15.278 -0.1134 -0.0678  0.1569
27274W        W43168  16.948  16.854  13.458 -0.2850  0.2014 -0.2555
27275W        W43169   4.464   0.972   0.032 -0.1537  0.0295  0.0822
27276W        W43170  15.135  10.727   0.381  0.0589  0.0388  0.1325
27277W        W43171   8.679   3.107  16.485 -0.0037 -0.0400 -0.0152
27278W        W43172  13.020   6.898   2.373 -0.2527  0.2971  0.1128
27279W        W43173   2.702   8.185   1.329 -0.2297  0.1415  0.3326
27280W        W43174  12.970  14.127  13.415  0.0517  0.1283  0.0352
27281W        W43175   3.907   3.024   2.327 -0.0372 -0.0855  0.0095
27282W        W43176   8.297  12.038  12.405 -0.4459  0.0566 -0.2291
27283W        W43177   2.832   9.245  11.638 -0.0196  0.0672  0.0104
27284W        W43178   2.329   6.195   4.553 -0.3696  0.1540 -0.1750
27285W        W43179  12.005   6.140   1.976 -0.1791  0.0506  0.1230
27286W        W43180   3.952  10.419  16.507 -0.2278 -0.0071  0.0810
27287W        W43181  12.754   9.502   6.525 -0.1603  0.0286 -0.2297
27288W        W43182  12.136  10.785   0.624 -0.1614  0.4211 -0.0644
27289W        W43183   4.293   8.218   0.846 -0.1384 -0.0870  0.1345
27290W        W43184  14.142   4.170  11.777 -0.0494  0.1938 -0.3156
27291W        W43185   7.079   3.502  15.567  0.0554 -0.1625 -0.1785
27292W        W43186   5.644  11.104   3.081  0.1470  0.0488 -0.0591
27293W        W43187   9.281  16.515   4.439  0.1353 -0.4550 -0.2028
27294W        W43188   7.650  14.744  13.300  0.4838 -0.1133  0.1041
27295W        W43189   0.476   4.157  12.487 -0.0502  0.3618 -0.2178
27296W        W43190   9.381   6.527   2.991 -0.3143  0.0893  0.3618
27297W        W43191   5.350   5.213   1.478 -0.0197  0.0704 -0.3470
27298W        W43192   7.764   0.229   3.351  0.0550 -0.1795 -0.0446
27299W        W43193   5.724   5.155   4.431  0.0075  0.1793 -0.0538
27300W        W43194  14.125   7.069  12.743  0.3207 -0.1224  0.2499
27301W        W43195  12.257  16.409   3.398  0.0304 -0.0856 -0.1160
27302W        W43196   4.575  14.728  16.854  0.0237  0.2470 -0.0247
27303W        W43197   3.655  12.774  13.999 -0.0319 -0.2545  0.2511
27304W        W43198  10.152   2.843  16.558  0.0468 -0.2785 -0.1178
27305W        W43199   6.440   4.990  12.941 -0.0927 -0.1054  0.3489
27306W        W43200   4.343   4.121   4.447 -0.0577 -0.0076 -0.2184
27307W        W43201   2.369  12.143   4.766  0.1772  0.1651 -0.2546
27308W        W43202   3.697  12.025   3.182 -0.0525 -0.0524 -0.0966
27309W        W43203   5.627  16.147  14.143 -0.1171 -0.1503 -0.1731
27310W        W43204   7.150   1.490  14.984 -0.2587  0.1648  0.0958
27311W        W43205   4.886   8.219   0.273 -0.2417 -0.0544  0.0100
27312W        W43206  15.921  11.893   1.330  0.2154 -0.0188 -0.0777
27313W        W43207   0.032  14.042  12.206 -0.2747  0.0030 -0.1198
27314W        W43208   6.597  10.576  16.339 -0.2174 -0.0674  0.1119
27315W        W43209   3.060   1.601  14.135 -0.1360 -0.2785  0.0208
27316W        W43210  12.122   3.785  13.060  0.0005  0.1339  0.2028
27317W        W43211  11.791  16.209   3.385 -0.2601  0.1497 -0.1741
27318W        W43212   4.134   4.860  12.919  0.0857  0.2954 -0.0229
27319W        W43213   9.495  11.212   3.605  0.0074  0.1485  0.0968
27320W        W43214  10.097   6.860   0.072  0.1934  0.2517  0.0494
27321W        W43215   3.936   8.730   2.668 -0.0782 -0.1065  0.0627
27322W        W43216   2.263  11.255  12.470 -0.3867 -0.1764 -0.0074
27323W        W43217   7.919  14.189   1.199  0.0255 -0.0188 -0.0242
27324W        W43218  16.908   4.472  16.028 -0.2582 -0.1702  0.0782
27325W        W43219   0.489   9.520  14.762  0.2037  0.0396 -0.3156
27326W        W43220  10.033  15.834   0.330  0.0079  0.1129 -0.0546
27327W        W43221   3.713   2.218  12.275 -0.2117  0.0229  0.1179
27328W        W43222   4.579   0.982   4.945 -0.1487 -0.1285 -0.2054
27329W        W43223  13.060  15.107   3.183  0.0295 -0.2017  0.3898
27330W        W43224   2.198  10.642  13.104 -0.0124 -0.1255  0.1839
27331W        W43225   9.284   2.037   0.420 -0.2740  0.1096 -0.1378
27332W        W43226   6.773   9.679   2.274 -0.0790  0.1541  0.4479
27333W        W43227   8.910   5.320   5.159  0.1238 -0.1533 -0.0080
27334W        W43228  12.185  11.035   2.926  0.0490 -0.2480  0.2235
27335W        W43229  10.386  12.299   5.136  0.2626  0.0131  0.0223
27336W        W43230   6.504  11.386   4.114 -0.0732  0.3607  0.0119
27337W        W43231  17.392  16.790   2.942 -0.1942  0.0850  0.1025
27338W        W43232   7.152  15.373  12.248  0.1906  0.1072  0.0520
27339W        W43233   8.463   0.435  12.369  0.1453 -0.2678 -0.1923
27340W        W43234  16.424   7.221   0.112  0.0578  0.0222 -0.0093
27341W        W43235   5.342  16.364   3.860  0.0245 -0.0089 -0.0956
27342W        W43236  10.407   4.019  15.148  0.1746  0.0885 -0.0620
27343W        W43237  10.370   6.871   3.070  0.0825 -0.0981 -0.0107
27344W        W43238  15.156   1.349   3.092  0.2050 -0.1226  0.2225
27345W        W43239  11.031   2.097   1.772  0.1555 -0.0810  0.0916
27346W        W43240   0.405   2.027   4.456  0.1864 -0.0353  0.0412
27347W        W43241  14.602  11.810  16.454 -0.3925  0.1083 -0.2861
27348W        W43242   3.891   3.314  10.514  0.3036 -0.1911  0.1923
27349W        W43243  12.550   6.220   5.821 -0.1031  0.1642  0.0294
27350W        W43244   4.994   0.081  15.645 -0.0169 -0.0491  0.0690
27351W        W43245   9.705   7.834   3.491  0.0859  0.0007  0.1593
27352W        W43246   9.053  13.508  13.287  0.3651 -0.0991  0.0762
27353W        W43247   7.184   4.107   0.031  0.0684  0.0949 -0.3280
27354W        W43248   2.460  10.365   0.360  0.0448  0.0906 -0.1769
27355W        W43249   7.295   2.459   1.940 -0.1776  0.3048 -0.2173
27356W        W43250   1.579   5.859   5.325 -0.0209 -0.2078 -0.0780
27357W        W43251  16.823  16.560  11.483 -0.1598  0.0741 -0.3710
27358W        W43252   7.800  13.180  13.352  0.0667  0.4110 -0.2844
27359W        W43253   7.130   1.012   2.422  0.1432 -0.2534 -0.0654
27360W        W43254   8.834   2.938  14.366  0.1826  0.1085  0.1618
27361W        W43255   7.626  11.269   5.179 -0.1581  0.1239 -0.2269
27362W        W43256   8.856   6.754   3.945  0.2403 -0.1464 -0.1975
27363W        W43257   0.698   7.802  12.036 -0.0380  0.1824 -0.3020
27364W        W43258   4.318  11.410   2.504  0.1246 -0.0663 -0.1263
27365W        W43259  12.483   4.068   2.271 -0.0578  0.0957  0.3035
27366W        W43260   3.466   7.590  12.968  0.3550 -0.0712  0.0495
27367W        W43261  12.056   3.197  16.307  0.0892  0.2508 -0.1627
27368W        W43262  14.224   5.245  11.941 -0.0725  0.1271  0.0637
27369W        W43263   3.801   7.049   4.706  0.0308  0.2731  0.0960
27370W        W43264   3.532   9.472   2.103 -0.1031 -0.5663 -0.2330
27371W        W43265   7.540  17.557   1.641 -0.2423  0.3217  0.1622
27372W        W43266   6.389   3.971   0.495 -0.1193  0.0129 -0.2681
27373W        W43267   3.141  16.692   6.319 -0.1274  0.1147  0.1096
27374W        W43268  12.395  17.180  13.462  0.0373 -0.3258 -0.2052
27375W        W43269   0.283   4.499  14.524 -0.0104 -0.2313  0.0905
27376W        W43270  14.003   6.032  13.196 -0.0691 -0.0810 -0.1157
27377W        W43271   2.318   7.108   5.410  0.0965 -0.2565 -0.0616
27378W        W43272   1.101  14.506   4.240 -0.2085 -0.1794  0.0905
27379W        W43273  16.710  12.059   5.006 -0.0301 -0.0431  0.0750
27380W        W43274   6.518  14.755   4.934  0.2492  0.1441  0.1975
27381W        W43275   8.276  14.236  15.762 -0.1403  0.0535  0.1492
27382W        W43276   5.345   1.747   3.885  0.0731  0.0469 -0.0809
27383W        W43277   8.087   1.614   1.633 -0.1469  0.1186 -0.1253
27384W        W43278   9.446  16.155  16.222  0.0652  0.1182  0.0722
27385W        W43279  12.446  11.492  16.743  0.2839 -0.1272 -0.0607
27386W        W43280  11.379  10.865   3.969 -0.0098 -0.2443 -0.0611
27387W        W43281  10.994  16.011  12.282 -0.0768  0.0580 -0.3586
27388W        W43282   6.071  10.289  11.814 -0.0522 -0.2810  0.1197
27389W        W43283  11.640   3.879   1.899  0.0054  0.0279 -0.0226
27390W        W43284  15.284   8.541   1.717  0.0357 -0.0739  0.1478
27391W        W43285   7.682  14.190   3.553  0.0417 -0.1409  0.1717
27392W        W43286   8.131  15.685   3.877 -0.4996  0.2082  0.1534
27393W        W43287   6.335  17.086  11.782  0.1086 -0.1163  0.1593
27394W        W43288  11.660   7.863   3.329 -0.1123 -0.0624  0.1915
27395W        W43289  13.288   1.514  12.526  0.3104  0.2084  0.1333
27396W        W43290  16.556  17.277   0.759 -0.0328  0.1235  0.0044
27397W        W43291  17.556  10.091  14.534 -0.0757  0.0881 -0.2618
27398W        W43292   4.502   1.716   2.292  0.0342 -0.1097  0.0149
27399W        W43293   2.694   5.748  14.333  0.0153  0.0353 -0.0463
27400W        W43294  10.945  10.691   4.336 -0.2441 -0.1240  0.1689
27401W        W43295  16.724   8.296  14.946 -0.2620  0.1539 -0.0438
27402W        W43296   5.851  14.494   2.297  0.1422 -0.1188  0.2454
27403W        W43297  11.786   0.101  16.264 -0.2116  0.1236 -0.1354
27404W        W43298  17.427   5.582  16.195  0.1397 -0.1542 -0.0767
27405W        W43299   3.016   6.683  15.021  0.0465  0.1111  0.0727
27406W        W43300  10.399   3.756   2.358 -0.3365 -0.3271  0.0955
27407W        W43301   5.878   8.841   1.021  0.1729 -0.1274 -0.0364
27408W        W43302   4.151  14.261  15.212  0.1152 -0.2771  0.4255
27409W        W43303   6.688   8.840   0.536  0.2400  0.0399  0.2010
27410W        W43304  13.601  13.711  15.272  0.0715 -0.2374  0.0126
27411W        W43305  12.729  12.062   2.234 -0.0238  0.2831  0.0623
27412W        W43306  12.194  14.195   1.650  0.0788 -0.1801  0.1640
27413W        W43307   8.490  16.565  13.582  0.1979 -0.2902 -0.0660
27414W        W43308   4.872  10.308   6.166 -0.3041 -0.2045  0.2836
27415W        W43309   8.263  12.478  13.124  0.0499  0.0536  0.1720
27416W        W43310  17.056  17.357   0.873 -0.0493  0.1396  0.1207
27417W        W43311  15.657   1.427  15.467 -0.0361  0.0273 -0.0111
27418W        W43312  15.793  15.240  14.965 -0.0501 -0.1408 -0.3289
27419W        W43313  10.198   7.609  15.526  0.1334 -0.4631  0.2388
27420W        W43314  12.881  15.675  13.051 -0.0869  0.0761  0.0020
27421W        W43315   7.660   5.831  13.749 -0.1811  0.1144 -0.0414
27422W        W43316   1.342   4.760  14.370  0.0026  0.0955 -0.0568
27423W        W43317   8.214  13.505   1.817  0.0221  0.0854  0.0588
27424W        W43318  12.386  13.943   0.856  0.3251  0.3060 -0.1347
27425W        W43319  17.079   0.742  14.939 -0.2252 -0.0237  0.1729
27426W        W43320  15.202  17.229  12.929 -0.1188  0.3278 -0.0836
27427W        W43321   3.621   1.342   5.040 -0.0189  0.2178 -0.0564
27428W        W43322   9.326  12.398  14.996  0.1231  0.2820 -0.2250
27429W        W43323  13.683  14.680   1.760  0.2569  0.0215 -0.0329
27430W        W43324  10.624   4.482   5.322  0.1696  0.0983 -0.0161
27431W        W43325   5.275  10.172   4.938 -0.0595 -0.1437  0.0285
27432W        W43326   6.577  16.064  16.540  0.3707  0.2030 -0.0034
27433W        W43327  11.882  17.147   2.643  0.1818  0.0003 -0.1369
27434W        W43328   2.974  11.870  12.814 -0.4608 -0.1255  0.4174
27435W        W43329   2.247   5.826  14.110  0.2647 -0.2386 -0.0759
27436W        W43330  15.994   6.357  14.984 -0.1484 -0.1843 -0.2740
27437W        W43331  14.398   6.071  11.511  0.0779  0.2632 -0.1700
27438W        W43332  12.895   1.124  14.362  0.0147  0.0747 -0.0704
27439W        W43333  17.588   6.974   1.231 -0.2199  0.1641  0.0708
27440W        W43334  11.570  10.967  14.365  0.0575  0.1249 -0.0653
27441W        W43335  13.592   0.384   0.898 -0.1545 -0.0475  0.1141
27442W        W43336   1.283   9.949  15.602  0.2379  0.2413 -0.1785
27443W        W43337   1.489   7.010  12.054  0.0615  0.1364 -0.1351
27444W        W43338   2.124   7.770  15.890 -0.2318  0.1627  0.2695
27445W        W43339  13.191   9.461  13.928 -0.0789  0.1048  0.2392
27446W        W43340   3.331   9.089  11.789 -0.3174 -0.0680  0.1067
27447W        W43341   3.787  13.357   4.580 -0.0085 -0.1397  0.0495
27448W        W43342   1.144   7.818   1.180  0.0758  0.2846 -0.3476
27449W        W43343   6.663  11.061  16.402 -0.1770  0.4960 -0.1723
27450W        W43344  13.849  12.094   3.201 -0.0913 -0.0222  0.0608
27451W        W43345  13.406  10.248   5.527 -0.1778 -0.1170 -0.0930
27452W        W43346   2.838  11.175   3.802  0.3366  0.1303  0.0115
27453W        W43347   3.476   7.894  13.381  0.0022 -0.2189 -0.0333
27454W        W43348   7.587  13.776   1.060 -0.3586  0.1822 -0.0989
27455W        W43349   4.789   8.553   1.121 -0.0183  0.1291 -0.0149
27456W        W43350  10.186   4.554   0.207 -0.0732  0.2798  0.1182
27457W        W43351   3.854  14.819   5.080  0.0301  0.1026 -0.2089
27458W        W43352  15.504   6.046   5.166 -0.2488 -0.1004 -0.2790
27459W        W43353   3.388   1.935   2.406 -0.2551 -0.1308 -0.0746
27460W        W43354  15.596   0.693  15.822 -0.3045  0.3280 -0.1560
27461W        W43355   0.744   4.587  13.505 -0.1675  0.2888  0.0658
27462W        W43356   8.558  13.553  11.957  0.1065 -0.1371 -0.2233
27463W        W43357  14.684   9.197   2.266 -0.0605  0.1896 -0.0297
27464W        W43358   5.511   9.530  13.130  0.2625 -0.2965  0.0599
27465W        W43359  13.299  10.476  14.836 -0.0695  0.0492  0.3261
27466W        W43360   0.928   4.447  14.189 -0.0231  0.3220  0.4267
27467W        W43361   2.360  13.879   4.383 -0.1660 -0.0285  0.0520
27468W        W43362   3.589   7.446   1.163  0.0888  0.4040  0.0296
27469W        W43363   7.172  14.984   4.306 -0.2040 -0.2905  0.3569
27470W        W43364   5.937  10.671  14.930 -0.3206  0.2475 -0.0215
27471W        W43365  10.182  17.483  16.873 -0.0065  0.0019 -0.4348
27472W        W43366  15.170  13.294   6.070 -0.0783  0.0258  0.2808
27473W        W43367   2.865   0.547   0.531 -0.4054  0.2072  0.0106
27474W        W43368   5.469  13.626  12.294 -0.0085 -0.0033  0.0242
27475W        W43369   1.919  13.232   0.674  0.0407  0.0981  0.0095
27476W        W43370   7.719  12.982   5.788  0.3400 -0.0425  0.1743
27477W        W43371  11.939  16.607   4.957 -0.2375 -0.1578 -0.0220
27478W        W43372   5.063  14.775  15.161 -0.0503 -0.2691 -0.0886
27479W        W43373  10.536  12.430  15.106  0.0433 -0.2008  0.5299
27480W        W43374   5.408   9.451   3.049 -0.1325 -0.1135 -0.2190
27481W        W43375   7.335   7.263  14.312  0.1213 -0.0975  0.0852
27482W        W43376  11.442   1.879  11.829  0.0428 -0.0838 -0.2878
27483W        W43377  15.034   1.625  11.793  0.1016 -0.1657  0.0043
27484W        W43378  13.951   3.396  10.254 -0.0438  0.3660  0.1196
27485W        W43379   4.107   8.421  13.575  0.2080 -0.3200 -0.0355
27486W        W43380   9.955  10.776   2.446  0.2078  0.4214  0.2060
27487W        W43381   5.038   6.099  14.249  0.1712  0.1403  0.0463
27488W        W43382   9.019   3.782  13.877 -0.0024  0.1853  0.3440
27489W        W43383  15.692   9.070  13.357 -0.1959  0.0302 -0.5110
27490W        W43384   0.195  11.296  15.227 -0.3147  0.1259  0.0098
27491W        W43385  11.897  17.776  15.565  0.1729 -0.1117 -0.0004
27492W        W43386   2.191   5.222  12.384 -0.0694 -0.1948  0.0231
27493W        W43387   1.881   1.569   0.924 -0.0777 -0.3496  0.0394
27494W        W43388   5.767   4.650   3.529 -0.3321  0.3355  0.1583
27495W        W43389   7.552   4.338   2.359  0.1551 -0.2206  0.2019
27496W        W43390   8.591   6.530  13.399 -0.0295  0.2332  0.0042
27497W        W43391   0.178   4.269  11.520 -0.0220 -0.2118  0.0077
27498W        W43392   8.786   5.997   5.864 -0.1894 -0.3848  0.0433
27499W        W43393   2.488   9.828   2.308  0.0351 -0.1847 -0.1990
27500W        W43394  14.992   4.660  16.262  0.1070 -0.3043  0.2211
27501W        W43395  14.024  12.750  13.112 -0.0120  0.1389 -0.1531
27502W        W43396   7.931  13.693   5.282  0.0714 -0.1387 -0.0528
27503W        W43397   5.721  16.383  10.670 -0.2774 -0.2347 -0.1471
27504W        W43398  17.543   0.797   2.451  0.3325 -0.1113  0.0444
27505W        W43399   4.654   5.837   1.033 -0.3249 -0.0703 -0.2382
27506W        W43400   0.780  17.029  11.621 -0.0559  0.1506  0.0869
27507W        W43401  14.291   6.940  16.777 -0.1558  0.0498  0.2479
27508W        W43402  11.490   1.091   2.004 -0.1567 -0.2103 -0.0751
27509W        W43403   5.684   8.471   4.362  0.2120 -0.0306 -0.0853
27510W        W43404  15.198   1.358   2.247  0.0916  0.1970 -0.0834
27511W        W43405   7.304  11.255   2.431 -0.0618  0.0455  0.1806
27512W        W43406   4.078   7.453  13.312 -0.0410  0.0450  0.2507
27513W        W43407   2.055  15.722  13.271  0.0622 -0.0904  0.1843
27514W        W43408   5.872   2.087  15.217  0.1629  0.2025 -0.2399
27515W        W43409   0.847  14.596   1.765 -0.0185 -0.0105  0.4605
27516W        W43410   0.324   7.521   5.059  0.0927  0.0122  0.3294
27517W        W43411  15.354   7.293   2.109  0.0878  0.0829  0.2542
27518W        W43412   5.789  16.790   0.040  0.0219  0.1720 -0.1151
27519W        W43413   9.027   8.496  14.563 -0.1076  0.0859  0.3657
27520W        W43414  10.740   2.346   0.662  0.1243 -0.0819 -0.2897
27521W        W43415  10.580   9.226   5.926  0.0969  0.1983 -0.0525
27522W        W43416   4.336   7.250   2.784 -0.1972 -0.0430 -0.1372
27523W        W43417   0.842   9.186  14.829  0.2731  0.1679 -0.1949
27524W        W43418   2.193  12.041   0.926  0.2246 -0.0687 -0.0962
27525W        W43419   2.329  14.609   0.598  0.1711  0.1414  0.1051
27526W        W43420   9.460  11.306  16.206  0.1745 -0.1854  0.2926
27527W        W43421   8.034  14.734  14.135  0.2999  0.3907 -0.0461
27528W        W43422   8.480   6.086   4.987 -0.0571  0.1902  0.1224
27529W        W43423   3.760   1.033  13.829  0.0913  0.1209  0.1173
27530W        W43424   9.860   4.558   4.667 -0.2733 -0.1220 -0.0172
27531W        W43425   4.937  17.436  12.317 -0.3035  0.0661  0.4681
27532W        W43426   4.403  15.404   1.621 -0.2025  0.0488 -0.0387
27533W        W43427   7.859  15.735   1.878 -0.0185  0.0879  0.1977
27534W        W43428  11.787   2.336  13.615 -0.1312  0.0587 -0.0390
27535W        W43429   4.993  10.408  13.563  0.1337 -0.0629 -0.2116
27536W        W43430  11.130   0.060   5.271  0.1225  0.1275 -0.3561
27537W        W43431   1.123  10.473  15.655  0.0752  0.3116  0.0697
27538W        W43432  10.969   1.580   1.747  0.2206 -0.1120 -0.0870
27539W        W43433   1.566  13.536  16.662 -0.0344 -0.0710  0.1509
27540W        W43434  13.955   1.550   1.168  0.1702 -0.1073  0.1422
27541W        W43435  13.452   4.760  16.856  0.1137 -0.2270  0.0473
27542W        W43436  14.622   3.134  12.784  0.1150 -0.2469 -0.0714
27543W        W43437   3.896   7.767  16.187  0.0818  0.0609 -0.2214
27544W        W43438   1.315   4.822   2.904  0.2508 -0.0650 -0.0667
27545W        W43439  15.023   8.239  14.093  0.2441  0.1377  0.0906
27546W        W43440  15.029  10.845  12.881  0.1682  0.1073 -0.0203
27547W        W43441   9.481   4.233   1.118  0.2638 -0.1373  0.4436
27548W        W43442  17.653   4.708   1.950 -0.0575 -0.0036 -0.0555
27549W        W43443   3.573   5.645  16.661  0.3113  0.1590  0.1470
27550W        W43444  16.322   1.858  11.719  0.0464 -0.1942 -0.1828
27551W        W43445   8.619  12.841  16.196  0.0742  0.2074 -0.0197
27552W        W43446   7.891   0.953  11.659 -0.3303  0.0440  0.3609
27553W        W43447   4.336   1.416  14.627 -0.0186 -0.1734  0.0832
27554W        W43448   8.066   4.508  13.966  0.2297 -0.2251 -0.0022
27555W        W43449  14.656  10.039  13.413 -0.4156  0.1944 -0.0250
27556W        W43450  13.087   1.024  13.217 -0.0766 -0.2248  0.0277
27557W        W43451   9.957  12.692  12.789  0.0653 -0.0825 -0.0479
27558W        W43452   2.985  11.615   0.829  0.2301 -0.2785 -0.0369
27559W        W43453   4.400  15.243  16.818  0.0937  0.2744  0.2080
27560W        W43454  10.638  11.213   5.475 -0.0578  0.0815 -0.0020
27561W        W43455   3.989   2.839   0.121  0.0715 -0.0145  0.3658
27562W        W43456  10.637   6.695  12.301  0.0164 -0.1221  0.0474
27563W        W43457   6.882   7.267  14.722 -0.0358  0.0775  0.1219
27564W        W43458  14.518   0.505  15.612 -0.0109 -0.3500 -0.1133
27565W        W43459   0.749   1.644  14.306 -0.0024  0.3343  0.2156
27566W        W43460   5.261  13.450  12.914  0.0630  0.4002  0.0017
27567W        W43461  17.230  16.191  11.432  0.0624  0.0678 -0.0032
27568W        W43462  16.824  12.626   2.841 -0.0833  0.1092 -0.0167
27569W        W43463  13.178  11.425   4.314 -0.1448  0.1262  0.0427
27570W        W43464   2.363   1.504  12.670 -0.3302  0.1793 -0.0390
27571W        W43465  14.485   7.047   4.789 -0.3861 -0.1322 -0.1836
27572W        W43466  11.278  17.215   5.590 -0.0571  0.0146  0.0159
27573W        W43467   0.273   0.556  13.309 -0.1587  0.0879 -0.2254
27574W        W43468   8.580  10.835  13.211 -0.1170 -0.1123 -0.0428
27575W        W43469  13.468  16.426  15.095 -0.1867 -0.1645  0.0682
27576W        W43470  11.936   3.617   4.973  0.0954 -0.0644  0.0273
27577W        W43471   2.090  12.199   1.496  0.1689  0.2583 -0.1973
27578W        W43472  14.029  11.729   4.777  0.1441 -0.0128  0.1441
27579W        W43473  12.387   6.756   0.883 -0.1942 -0.0593 -0.0712
27580W        W43474   7.539  11.795   1.883 -0.0240 -0.1782  0.0498
27581W        W43475   3.420   2.637   4.079  0.1799  0.0868  0.2638
27582W        W43476   1.390   1.574   4.843 -0.3626 -0.0902  0.1067
27583W        W43477  12.094  10.533   3.883  0.0372  0.0418 -0.0679
27584W        W43478  10.818  10.260  14.995 -0.2830 -0.2444  0.0089
27585W        W43479   3.990  13.567  14.007  0.0692 -0.1622  0.1682
27586W        W43480   9.527   4.947  12.529 -0.0299 -0.3746  0.2642
27587W        W43481  11.902   9.465  12.640 -0.0055 -0.3365 -0.2250
27588W        W43482  16.509  12.814   2.135  0.0830  0.0843 -0.1131
27589W        W43483   9.720   7.351   5.216  0.0874  0.0629 -0.1899
27590W        W43484   2.509   1.925  14.838  0.1814  0.1343 -0.0699
27591W        W43485  10.998  14.458  14.321 -0.0106  0.2675  0.2320
27592W        W43486  11.025  12.693   2.287 -0.1385 -0.0553  0.1973
27593W        W43487   7.590  17.474  15.228  0.1616  0.1269 -0.1543
27594W        W43488   6.665   7.640  15.860  0.1983 -0.1541  0.2529
27595W        W43489   4.172   5.457  14.724 -0.0439 -0.0599  0.0673
27596W        W43490   0.046  13.211   6.472 -0.0310  0.0408 -0.0703
27597W        W43491   4.492   5.506  14.259 -0.1747 -0.2654  0.2569
27598W        W43492   3.027  16.085  11.273  0.0711 -0.1414 -0.2263
27599W        W43493  16.579  16.452   4.791 -0.1115 -0.0105 -0.0448
27600W        W43494   2.572  11.211   5.195  0.3354 -0.1014  0.0146
27601W        W43495   5.231   2.753  14.839  0.2866  0.1264 -0.0857
27602W        W43496   0.733   6.663   4.707 -0.0583 -0.1308 -0.1401
27603W        W43497   2.268   5.348   1.561 -0.2630  0.2536  0.2222
27604W        W43498  11.253  13.920  16.224 -0.1355 -0.0512  0.0593
27605W        W43499  12.761   9.461  12.334  0.1261  0.0439  0.1405
27606W        W43500   2.354   1.497  13.547 -0.1499  0.1115  0.1615
27607W        W43501   5.025   0.977  14.825 -0.0833 -0.1063  0.1224
27608W        W43502  12.195  13.818   2.739 -0.0295  0.1895  0.0059
27609W        W43503   3.034   9.701   0.529  0.1798 -0.0402 -0.2133
27610W        W43504  11.040   5.768  11.829 -0.2721  0.1067 -0.1225
27611W        W43505   3.683   4.066   0.520 -0.0670  0.1814  0.0115
27612W        W43506  16.102   4.434   1.087 -0.0678 -0.2033 -0.2166
27613W        W43507   7.596   4.540  13.848 -0.1968 -0.3305 -0.2169
27614W        W43508   0.140   5.456   0.949 -0.0626 -0.0402 -0.0203
27615W        W43509  13.292   1.433   3.712 -0.0005  0.2892  0.1314
27616W        W43510   0.417  17.013  16.597  0.2079  0.0467  0.1766
27617W        W43511  12.268   1.133  15.102  0.1640  0.1498  0.1757
27618W        W43512  13.590  13.467   4.961  0.0568  0.0305  0.0044
27619W        W43513  16.873   8.017  15.359  0.2054 -0.2200 -0.0539
27620W        W43514   8.011   9.298  16.705  0.0472 -0.0797  0.0496
27621W        W43515  12.099   8.466   0.685 -0.3005 -0.0455  0.2321
27622W        W43516  14.196  12.788   2.520  0.1733  0.0566 -0.4766
27623W        W43517  11.605  17.167  16.433  0.1116  0.2340 -0.1427
27624W        W43518   4.694   6.514  16.609 -0.2696 -0.0373  0.3654
27625W        W43519  14.405   1.217   4.555 -0.1611 -0.1087  0.3158
27626W        W43520  11.570  17.411  16.863 -0.0919 -0.4650 -0.0839
27627W        W43521   8.529  16.107   1.786 -0.0796  0.0942 -0.1373
27628W        W43522   9.102  17.042  14.234  0.3062 -0.0209  0.3169
27629W        W43523  14.192  10.028  13.801 -0.1517  0.1938  0.0174
27630W        W43524   4.366   1.876  11.689 -0.0231 -0.3092 -0.3727
27631W        W43525   6.840   7.851   3.636  0.0074  0.0064 -0.1807
27632W        W43526   3.015   9.211   0.631  0.0193  0.0043 -0.0727
27633W        W43527  12.292   3.229  13.073  0.0890  0.0850  0.3896
27634W        W43528   0.871  13.594  15.970  0.0369 -0.0981 -0.1208
27635W        W43529  12.605   4.202   2.935 -0.0829 -0.1945  0.3381
27636W        W43530  17.129   4.668   1.768 -0.2371 -0.0509  0.0072
27637W        W43531   9.650   6.653   3.418 -0.3057  0.1173 -0.2981
27638W        W43532   6.103  15.977  13.918  0.1394 -0.0170 -0.0258
27639W        W43533  13.390   6.083   1.206 -0.0812 -0.1248  0.0470
27640W        W43534   1.668  17.273  13.014 -0.0494  0.0202 -0.1328
27641W        W43535   2.257  15.429   3.943  0.2390  0.0036 -0.1027
27642W        W43536   9.709   2.680   1.031 -0.0294  0.0327  0.3097
27643W        W43537   9.023   2.942  12.355  0.1642 -0.0676 -0.1274
27644W        W43538   7.500   3.374   2.743  0.2455  0.1304 -0.1064
27645W        W43539   3.003   7.944  15.046 -0.0928 -0.1992 -0.1213
27646W        W43540   0.406  15.578  12.826  0.2442  0.1095  0.0757
27647W        W43541  17.472   3.393  13.070 -0.1182  0.0785 -0.2141
27648W        W43542   9.569  15.777   2.446  0.1337  0.2306  0.0246
27649W        W43543   6.648  13.342   4.724  0.0183 -0.2121  0.2610
27650W        W43544  13.504   2.930   5.082  0.2360 -0.2859  0.1586
27651W        W43545  12.186   7.015   2.958 -0.3804  0.0739  0.2116
27652W        W43546   6.593  12.711   1.897 -0.3309 -0.2412  0.0115
27653W        W43547  14.342   8.877   5.971  0.0467  0.1022 -0.0415
27654W        W43548   5.458  15.256   1.463  0.0016  0.0439  0.1330
27655W        W43549  13.926   7.441  16.817  0.1295  0.0082  0.1507
27656W        W43550   2.105   8.729   3.271 -0.1181  0.2491 -0.1174
27657W        W43551  17.110   8.588  14.169 -0.1246  0.0078  0.1240
27658W        W43552  14.651  11.257   3.505 -0.1025 -0.0870  0.1499
27659W        W43553  16.609   0.190  14.231  0.0102  0.1314 -0.0436
27660W        W43554   1.263   4.665  16.516  0.1519  0.3711  0.0021
27661W        W43555   2.219  14.883  12.315 -0.1527  0.1265 -0.1421
27662W        W43556   2.243  17.531  13.430  0.0030 -0.0699 -0.1280
27663W        W43557   2.959  16.906   4.270  0.0719  0.0027 -0.3853
27664W        W43558   8.733   0.976   3.635 -0.0126 -0.0733 -0.0708
27665W        W43559   2.849  16.291  12.153  0.2180  0.0191 -0.2369
27666W        W43560   9.103  14.938   1.949  0.0940  0.2719 -0.2558
27667W        W43561   8.663   0.907  12.345 -0.0875 -0.1570 -0.1981
27668W        W43562  15.595  13.935   6.631 -0.0263  0.1360 -0.0537
27669W        W43563  12.122  17.682  13.279  0.0907  0.0403  0.2376
27670W        W43564   0.206  13.939   0.035  0.0906 -0.1379 -0.1272
27671W        W43565  10.803  16.971   1.832 -0.0390  0.1748 -0.1978
27672W        W43566   8.478   1.328   1.860  0.1267  0.0835  0.1420
27673W        W43567   9.467  11.888  12.296  0.0359 -0.0501  0.1887
27674W        W43568   2.373   1.447  15.673 -0.0237  0.1960  0.0710
27675W        W43569  11.685   1.222   3.908  0.0589 -0.1030 -0.0268
27676W        W43570  12.137   7.308   0.122 -0.3805 -0.4355  0.2056
27677W        W43571  15.329   3.866   2.695  0.1014 -0.0789 -0.1705
27678W        W43572  16.653   0.221  13.140  0.0495 -0.0224  0.0572
27679W        W43573   8.246   4.071  13.315 -0.0566 -0.1506  0.2779
27680W        W43574   4.904  15.794  15.133  0.1157  0.3040  0.1450
27681W        W43575   2.452  15.550  14.459  0.0332  0.0125  0.1922
27682W        W43576   5.229  13.577   3.383 -0.0148 -0.0874 -0.0778
27683W        W43577  15.912   7.657  13.210  0.0082 -0.2444  0.0713
27684W        W43578  11.388   1.188   5.588  0.1457 -0.1073 -0.2127
27685W        W43579  12.644   7.267  15.520  0.2007  0.1587 -0.0683
27686W        W43580  11.410   8.175  12.843  0.1129 -0.0044  0.2355
27687W        W43581  11.209   7.765   4.451  0.3313  0.0537  0.0249
27688W        W43582  14.281   4.140  14.223 -0.2052  0.1673 -0.1392
27689W        W43583   3.876  16.852   0.014  0.0972 -0.1346 -0.2373
27690W        W43584   4.113   3.487   2.401 -0.1526 -0.3387 -0.0593
27691W        W43585   9.942   6.834  12.767 -0.0490  0.2478 -0.1185
27692W        W43586   5.566  14.131  10.959  0.0556  0.2011  0.2386
27693W        W43587   5.991  16.287  15.697  0.3362  0.1825 -0.0523
27694W        W43588  13.826   8.433  15.616 -0.1685  0.3281 -0.3481
27695W        W43589   4.399   1.498   0.285  0.0145  0.0966  0.2312
27696W        W43590  17.140  13.106   4.881  0.2216  0.1465  0.0243
27697W        W43591   4.423   8.312  12.397  0.1753  0.0607  0.0483
27698W        W43592  11.043  11.602  15.017 -0.3480  0.1467 -0.1837
27699W        W43593   1.859  12.258   3.883  0.1652 -0.1860  0.0797
27700W        W43594   2.016  14.962   0.795 -0.0643  0.0614 -0.2822
27701W        W43595  13.661   0.424   3.024 -0.2226 -0.0686  0.3538
27702W        W43596   1.555   8.526   2.643 -0.0936 -0.0885 -0.3567
27703W        W43597  12.327   1.313   1.972  0.0742  0.1432 -0.0917
27704W        W43598  14.444   9.193   4.477 -0.3025 -0.0676 -0.0740
27705W        W43599   7.967   9.430   3.975  0.2584  0.2751  0.2183
27706W        W43600  15.649  15.387  15.643 -0.0885 -0.0218  0.1031
27707W        W43601  17.483   1.626  13.700  0.1613 -0.0447  0.3457
27708W        W43602   7.285   0.221  15.775 -0.0349  0.1514 -0.0529
27709W        W43603   8.760  13.456  12.472 -0.1478  0.1858 -0.1667
27710W        W43604   4.079   3.855  15.014  0.0560  0.3468 -0.4663
27711W        W43605   1.824  16.960   3.178  0.0599 -0.1285  0.2807
27712W        W43606   6.735   7.258  15.498 -0.1071  0.0854  0.0961
27713W        W43607   0.208  16.993  12.696 -0.0876  0.2604 -0.1229
27714W        W43608  11.192  11.024   0.454  0.0440  0.1245  0.0439
27715W        W43609  11.850  14.718   4.972 -0.1335  0.1118 -0.3704
27716W        W43610  10.452   1.966   4.698 -0.1150 -0.0393 -0.1722
27717W        W43611   8.956   0.031   0.382 -0.0691 -0.4050  0.0878
27718W        W43612   5.931   0.683   0.624  0.0141 -0.1283  0.2955
27719W        W43613   3.500  17.702  13.498 -0.1101 -0.0156  0.0728
27720W        W43614  15.866   9.832   4.982 -0.1026 -0.0123  0.0117
27721W        W43615  11.548   4.837   0.863  0.2980  0.0130 -0.2897
27722W        W43616  12.078  17.511  11.689 -0.1032 -0.1542  0.0623
27723W        W43617  15.979   6.629   4.447  0.0571  0.0045 -0.0912
27724W        W43618   0.167  13.459   1.725  0.0552 -0.0362  0.0627
27725W        W43619   8.925   8.484  12.238 -0.2115  0.1588  0.0191
27726W        W43620   9.997  16.315  14.976 -0.2674  0.0457  0.0350
27727W        W43621  17.368  10.929   3.532 -0.1304  0.2349 -0.0762
27728W        W43622   8.984  11.187   0.026 -0.0928  0.1827 -0.1164
27729W        W43623   7.757  10.992   0.343 -0.3871 -0.4017 -0.0312
27730W        W43624   0.918   8.598  15.841 -0.0772  0.2053  0.3496
27731W        W43625   2.249   7.304  13.261 -0.0733 -0.0475  0.2687
27732W        W43626  10.120   0.730  12.669 -0.1320 -0.0837 -0.2139
27733W        W43627   4.470   1.292   3.401 -0.0738  0.1400  0.3222
27734W        W43628  14.364   8.476  11.994 -0.1375 -0.0710  0.0485
27735W        W43629  13.224   8.720   5.676  0.1977 -0.0425  0.2392
27736W        W43630   7.974  13.854   2.067  0.0053 -0.1981  0.0344
27737W        W43631   1.582   1.884  12.845  0.1978 -0.1042  0.1059
27738W        W43632   6.671   4.959  16.102  0.1170  0.0704  0.0172
27739W        W43633   7.944  12.073  12.848 -0.0190 -0.1630 -0.2001
27740W        W43634  14.622   7.562  14.753 -0.0738 -0.1176  0.1564
27741W        W43635   1.144   2.810  11.270  0.0359 -0.2061  0.3328
27742W        W43636  10.519  16.489  15.888  0.0014 -0.0345 -0.1392
27743W        W43637  17.196   7.342   3.176 -0.2706  0.2541 -0.3435
27744W        W43638   3.001   3.338   3.117  0.0610 -0.0731  0.4290
27745W        W43639  15.251  12.056  15.922 -0.0796  0.2994 -0.1049
27746W        W43640   4.010   3.655  14.560 -0.0234  0.2472 -0.0812
27747W        W43641   4.536   0.177  15.968  0.2607  0.0729 -0.0121
27748W        W43642  12.919   6.677   0.775 -0.0204  0.2132 -0.3715
27749W        W43643   1.215   1.685   0.345  0.0666  0.1733 -0.2827
27750W        W43644  13.011   8.414  14.158 -0.2265 -0.3010 -0.1364
27751W        W43645   0.543   5.097   4.030 -0.0474  0.1378 -0.1078
27752W        W43646   1.200   5.047   5.258  0.1591 -0.0062  0.3751
27753W        W43647   7.339   1.993   2.283 -0.3577 -0.0645 -0.0205
27754W        W43648  12.957  17.343  12.208  0.2830 -0.0133  0.0827
27755W        W43649   7.121   3.517  14.862 -0.1235  0.2522  0.1522
27756W        W43650  16.846   0.119   4.085  0.2090 -0.1552  0.0308
27757W        W43651  10.392   3.028   0.004 -0.0780 -0.0099  0.1269
27758W        W43652   1.537   3.672   0.411  0.1208 -0.1140 -0.2416
27759W        W43653   4.273   3.655   4.764 -0.0989 -0.0374 -0.1107
27760W        W43654  15.444  11.709   3.565  0.3541  0.0760  0.0741
27761W        W43655  12.120   9.028  16.437 -0.1969  0.0626 -0.0403
27762W        W43656   0.504   5.140  15.967 -0.2903  0.0869 -0.2112
27763W        W43657   8.228   4.009   2.282 -0.0690 -0.1787  0.0324
27764W        W43658   8.800  11.060  11.752  0.1203  0.2414  0.2679
27765W        W43659  17.006   7.275   0.188 -0.0812  0.2815 -0.0641
27766W        W43660   9.749   0.885  15.729  0.1185 -0.0765 -0.3049
27767W        W43661  11.177   2.008  14.378 -0.0411 -0.3762 -0.0455
27768W        W43662   5.201   0.923   3.702 -0.1874  0.1919 -0.1253
27769W        W43663  14.975   0.194   2.773 -0.1900 -0.1117 -0.0502
27770W        W43664   7.456  13.102   2.154 -0.1767 -0.0643 -0.0298
27771W        W43665   8.807  10.724  16.056  0.2529 -0.1819 -0.1304
27772W        W43666   5.611   0.999  12.481 -0.0629  0.2593  0.3641
27773W        W43667  13.359  12.220  14.313 -0.0683 -0.0676  0.0711
27774W        W43668  14.378  17.709   4.767 -0.1449  0.1233 -0.1699
27775W        W43669   2.639  15.577   0.675 -0.3013  0.2438  0.1557
27776W        W43670  10.328  11.556  16.813  0.0142  0.1278  0.0116
27777W        W43671   2.495  14.104   3.815 -0.0009  0.0952 -0.4931
27778W        W43672   5.735   1.463   4.271  0.1102 -0.3351 -0.3191
27779W        W43673  14.149  10.487   3.621  0.0881 -0.0283  0.0910
27780W        W43674   6.141   2.704   4.958  0.2088  0.0429  0.1838
27781W        W43675   1.395   6.674  12.696 -0.0684 -0.2023 -0.2486
27782W        W43676   4.620   5.643  12.634 -0.2394  0.1698 -0.1007
27783W        W43677  10.590  13.973   1.550  0.1889 -0.0428 -0.1724
27784W        W43678   6.825   0.090  10.735 -0.0681  0.1987  0.1665
27785W        W43679  17.621  10.649  13.512 -0.3607  0.0184 -0.0657
27786W        W43680  11.629   8.781   1.613 -0.0521 -0.1972 -0.1604
27787W        W43681  15.469  11.974   2.495 -0.1242  0.1201  0.2380
27788W        W43682  10.868   7.617  15.105  0.0241  0.1101 -0.1599
27789W        W43683   3.916   1.669   4.732  0.0141  0.0871  0.1394
27790W        W43684   8.370   5.906  16.245  0.1383 -0.1477  0.0024
27791W        W43685   6.884   4.185   5.456  0.0930  0.3907 -0.1293
27792W        W43686   7.264  13.099  14.984 -0.0924  0.0589 -0.0989
27793W        W43687  11.648   2.436  12.491  0.0129 -0.4180  0.1638
27794W        W43688  12.443   1.152   4.494 -0.0918 -0.0228  0.0517
27795W        W43689   0.655   3.924  16.521  0.0763  0.0107 -0.0262
27796W        W43690  15.830  10.970   0.409  0.0590 -0.1015  0.1081
27797W        W43691  10.925   6.886   3.932 -0.0071  0.0125  0.2153
27798W        W43692   9.694   6.893   5.059 -0.0643 -0.2726  0.0640
27799W        W43693  10.332  16.174   1.005 -0.0490  0.0191  0.1189
27800W        W43694  10.392   6.745  13.671  0.0741 -0.0375  0.2969
27801W        W43695  10.001   1.894  13.156  0.0512 -0.0729 -0.0700
27802W        W43696  13.575  15.742  12.671 -0.3075 -0.1173 -0.2155
27803W        W43697   8.022   4.614   3.647 -0.2711 -0.2192 -0.0030
27804W        W43698   7.493  12.361   2.585  0.1617 -0.0323  0.3098
27805W        W43699   9.504   0.536   4.143 -0.0075 -0.0552  0.1044
27806W        W43700  10.788  12.225   4.803 -0.2755 -0.2337 -0.1738
27807W        W43701   6.259   9.085   3.812 -0.1175  0.0293 -0.0321
27808W        W43702   8.021   7.191   1.004 -0.0383  0.2422 -0.0491
27809W        W43703   8.812   1.964   0.266  0.1536  0.0372  0.4044
27810W        W43704   0.821   9.472   5.219 -0.0283 -0.4518  0.2200
27811W        W43705  13.749   9.994  13.506 -0.0226 -0.2265 -0.1425
27812W        W43706   2.508   9.093   1.210 -0.3037  0.0610 -0.1038
27813W        W43707   2.731   6.371   0.690 -0.1915  0.1651 -0.1026
27814W        W43708  16.946   1.190   4.162  0.0916  0.2114  0.1583
27815W        W43709  15.754   0.214   3.459  0.0951 -0.0851  0.1095
27816W        W43710  15.590  10.755   3.932 -0.0787  0.4346  0.1725
27817W        W43711  11.813   2.627  11.489  0.0675  0.0478  0.0079
27818W        W43712   5.977  13.803  16.123  0.1317  0.0653 -0.4229
27819W        W43713   9.356   4.157  15.058 -0.2008  0.0447  0.2186
27820W        W43714  12.580  13.768   2.347  0.0268 -0.4797  0.1368
27821W        W43715   3.309  16.611  13.929  0.0418  0.1538 -0.0608
27822W        W43716   1.195   1.999  12.515 -0.1437  0.0277 -0.2123
27823W        W43717   8.429   0.051   0.285 -0.0977 -0.0479 -0.1076
27824W        W43718  11.513   3.253  16.546 -0.0087  0.1810 -0.0805
27825W        W43719   1.988   8.385   1.763 -0.0678  0.0718 -0.0995
27826W        W43720   8.136  10.879  13.602  0.0950 -0.0824  0.1272
27827W        W43721  17.428   2.885   1.009  0.0896  0.0857 -0.1039
27828W        W43722   4.528   1.599   1.168  0.0790  0.1624  0.2516
27829W        W43723   3.364   6.103  16.743  0.2755  0.0229 -0.2089
27830W        W43724  12.845  16.107   1.722 -0.2421  0.0215 -0.1337
27831W        W43725   8.381   6.912  13.128  0.1349  0.2036  0.1048
27832W        W43726   2.813   1.241  14.465  0.1047  0.1825 -0.0413
27833W        W43727   3.882   1.533  13.057  0.0928  0.3265  0.4092
27834W        W43728   0.761  10.662   4.065 -0.0177 -0.0274  0.1627
27835W        W43729   9.026  11.808   4.076  0.0037 -0.1589  0.0146
27836W        W43730  17.810  10.244  12.127  0.3473  0.0180 -0.3356
27837W        W43731  13.950  16.430   3.592 -0.1187  0.2775 -0.1825
27838W        W43732  11.640  15.204  13.560 -0.0322 -0.0131 -0.0609
27839W        W43733   9.093   7.519   0.750  0.3155  0.0349 -0.1325
27840W        W43734  16.401   9.974   4.948 -0.0238  0.2098 -0.0641
27841W        W43735   2.374  15.454  12.423 -0.2779 -0.0382 -0.3400
27842W        W43736   4.635  13.059  16.714 -0.3976  0.0793  0.1443
27843W        W43737   5.528  12.149  16.486 -0.0253 -0.0944 -0.2961
27844W        W43738   1.903   0.791  14.619 -0.3357  0.0668 -0.2233
27845W        W43739  15.483  12.237   5.976  0.0314  0.0541 -0.1664
27846W        W43740   2.082  17.062  11.236  0.0034  0.1006  0.0364
27847W        W43741   6.881  16.149  15.366  0.2624 -0.0055 -0.0041
27848W        W43742  15.606   5.198   5.286  0.2095  0.3159 -0.2671
27849W        W43743   1.554   1.459  16.013 -0.0787  0.2121  0.0861
27850W        W43744   5.169   5.775  15.104 -0.3334 -0.2951  0.0630
27851W        W43745  10.701  16.611   5.493  0.0614 -0.0710  0.1043
27852W        W43746  10.461   0.640   2.938 -0.3056  0.1969 -0.0504
27853W        W43747  15.554   4.594  14.022 -0.0308  0.0063  0.2784
27854W        W43748  17.016   7.462   2.156 -0.3379  0.4580 -0.0169
27855W        W43749   6.160  11.347  14.843  0.5489 -0.2099  0.0136
27856W        W43750   0.147  17.075  15.320  0.0195  0.0342  0.2480
27857W        W43751  16.181  16.928  15.831 -0.0314 -0.1357 -0.0871
27858W        W43752   3.558   2.486   0.599 -0.0812 -0.1988  0.1846
27859W        W43753   2.554   6.549  15.035  0.1246 -0.0119 -0.1041
27860W        W43754   3.419  11.284   0.608  0.3165  0.0506  0.3732
27861W        W43755   2.860   2.185  15.646 -0.1197 -0.2668  0.2325
27862W        W43756  16.877   2.980  16.550  0.1856 -0.0696 -0.0190
27863W        W43757   2.088  13.849  12.540 -0.4053 -0.1070  0.1888
27864W        W43758   6.293  15.090   2.529 -0.0057 -0.1254 -0.3073
27865W        W43759   4.962   2.969   5.631 -0.3045  0.0449 -0.2278
27866W        W43760  17.440  11.949  13.831  0.0975 -0.0942  0.1231
27867W        W43761  17.471   4.914   0.543 -0.4431  0.2304 -0.0602
27868W        W43762   1.820  15.370  16.480 -0.0004  0.2376  0.1254
27869W        W43763   1.574   8.023   1.977 -0.0367  0.2256 -0.2755
27870W        W43764   9.511  11.170  16.675  0.1356 -0.0764  0.0170
27871W        W43765   5.569   2.332   4.056  0.1596 -0.0138  0.1813
27872W        W43766  11.637  10.571  12.957  0.2533 -0.1578  0.0286
27873W        W43767   9.753  13.213  16.071 -0.0549  0.1191  0.0267
27874W        W43768   2.316   3.296   5.258 -0.0407  0.0114  0.1416
27875W        W43769  14.403   4.334   3.797  0.0774  0.1975  0.0239
27876W        W43770   9.904  17.242   2.818  0.0140 -0.0096  0.0486
27877W        W43771  10.504   2.055   0.968 -0.1184  0.1604  0.2117
27878W        W43772   7.763   3.859  16.149  0.1582  0.1972 -0.2004
27879W        W43773   7.292  16.554  15.313 -0.3099  0.1256  0.0186
27880W        W43774   2.630   0.225   2.293 -0.2698  0.2520  0.0927
27881W        W43775   7.129  14.403   0.363 -0.2169 -0.3064 -0.2091
27882W        W43776   0.267  15.591   0.622 -0.2333 -0.0681 -0.2929
27883W        W43777  13.892   3.827  14.534  0.4544 -0.1021  0.0266
27884W        W43778  14.733  12.818  13.250  0.1900 -0.0196 -0.2116
27885W        W43779   4.099   1.567   5.201  0.2197 -0.0313  0.2258
27886W        W43780   8.407   4.707   4.903  0.0496 -0.0425  0.2962
27887W        W43781  13.598  12.699   1.712  0.0043 -0.0413 -0.1257
27888W        W43782  13.217  17.147   3.020 -0.0581  0.0113  0.1233
27889W        W43783  15.403   5.503   1.017  0.1202 -0.0031  0.3802
27890W        W43784  14.860   8.050   4.093 -0.2398  0.0847 -0.1023
27891W        W43785   7.306   2.109  16.277 -0.4280  0.1079  0.0988
27892W        W43786  15.442   7.234  12.567 -0.2017 -0.0106  0.0565
27893W        W43787   8.510   7.805   1.634  0.0343 -0.2647 -0.2975
27894W        W43788  12.400   4.905   1.129 -0.0542  0.1554 -0.0205
27895W        W43789   5.657   3.124  15.468  0.0220 -0.2258 -0.3587
27896W        W43790   5.622   6.825   2.287  0.0375  0.0400  0.0414
27897W        W43791   4.217  13.149   4.734  0.1096  0.1817  0.1131
27898W        W43792  10.123   0.120  13.039  0.0370  0.2047 -0.2853
27899W        W43793   1.817  17.192   4.547 -0.2168 -0.0246  0.1722
27900W        W43794  12.896  13.351   6.058  0.2105 -0.1245 -0.3206
27901W        W43795  15.119  14.137   6.537  0.1978  0.2369  0.3690
27902W        W43796   3.378   2.323   2.746  0.1945  0.1635  0.0428
27903W        W43797   7.548   8.027  16.836 -0.0814 -0.1223 -0.2330
27904W        W43798  13.815  12.779   6.771  0.0301  0.0710 -0.1061
27905W        W43799   3.011   4.483  15.794 -0.0935  0.2617 -0.0490
27906W        W43800  17.606  17.229  13.646 -0.1323 -0.2547  0.2707
27907W        W43801  15.417  13.992  14.419  0.0929  0.0081  0.1504
27908W        W43802   0.908  11.858  15.783 -0.2520 -0.1118  0.0077
27909W        W43803  12.918  15.773   4.176 -0.4237 -0.0839  0.1712
27910W        W43804   3.777  17.052  15.591  0.0777  0.1226 -0.0434
27911W        W43805  14.976  15.243   3.655 -0.1129 -0.3977 -0.0130
27912W        W43806  13.249   6.210  14.093  0.0408 -0.0574  0.1070
27913W        W43807   2.387   4.260  15.292 -0.2711 -0.4052 -0.0709
27914W        W43808  15.795   2.921   4.750  0.0498 -0.2614  0.1464
27915W        W43809  14.982  13.968   3.288 -0.1095 -0.0495 -0.0448
27916W        W43810   4.697   6.036   0.549 -0.2217 -0.0105 -0.0628
27917W        W43811   3.775  17.048   1.398 -0.1022 -0.3892 -0.0888
27918W        W43812   5.830   8.848   4.862  0.1276 -0.0945  0.0899
27919W        W43813   5.138  11.023  15.479 -0.1031  0.0108  0.0919
27920W        W43814   4.944   1.009  12.439  0.1585  0.0029 -0.1704
27921W        W43815   1.160  16.703   3.749 -0.0926  0.0244  0.3187
27922W        W43816   7.448   2.811  16.687  0.1691  0.0914  0.1117
27923W        W43817   4.024  14.950  12.334 -0.2288 -0.0826  0.0813
27924W        W43818   4.068  12.073  13.408 -0.0346 -0.0590 -0.0947
27925W        W43819  17.394   7.745   2.956  0.0940  0.0564 -0.0625
27926W        W43820   0.531  17.334  15.130 -0.1323  0.1537  0.1658
27927W        W43821   5.423   7.032   5.215  0.2091  0.0402  0.0649
27928W        W43822   7.685  13.911  14.514  0.1289 -0.0938 -0.1512
27929W        W43823   8.261   3.612   1.584  0.0976  0.1935 -0.0556
27930W        W43824   0.899   4.958   4.410 -0.0864  0.1318 -0.0316
27931W        W43825  13.591   9.653  14.562  0.2095 -0.2706  0.0002
27932W        W43826   1.232   1.560   2.292 -0.6643 -0.0746 -0.2006
27933W        W43827  11.639   9.283   4.982  0.3531 -0.2042  0.0578
27934W        W43828   5.506   6.291  16.431 -0.0388  0.0015 -0.0288
27935W        W43829   4.535   8.137   2.335  0.1446 -0.1539 -0.1505
27936W        W43830  10.167  16.470   5.177 -0.0397  0.0586  0.1104
27937W        W43831  17.355  13.901  15.197  0.0634  0.0534  0.1813
27938W        W43832  17.517   8.104  13.083 -0.1986  0.0482 -0.0161
27939W        W43833  15.821  12.900  12.533 -0.0747 -0.1592  0.2270
27940W        W43834   4.000   5.963   2.467 -0.1242  0.0360  0.0169
27941W        W43835  16.585  17.536   2.945 -0.1080  0.1678  0.0411
27942W        W43836   5.681  15.435   1.839  0.0368 -0.4640 -0.2337
27943W        W43837  17.677   5.895  10.222  0.0248 -0.3564 -0.0698
27944W        W43838  17.782   4.081  12.486 -0.0765  0.0336  0.1897
27945W        W43839   8.408   5.978   5.476  0.0540 -0.1298  0.2316
27946W        W43840   2.441   0.559  12.412  0.1684  0.0282 -0.1188
27947W        W43841   2.624  14.857   3.295 -0.0231  0.0399  0.1247
27948W        W43842  13.098  11.895   1.313 -0.2535  0.1139 -0.3440
27949W        W43843  16.029  13.636  14.009 -0.0200  0.1204  0.4233
27950W        W43844   8.484   8.532  12.483 -0.0755  0.2625 -0.0370
27951W        W43845   8.734  16.774  11.838  0.0265  0.2372  0.1808
27952W        W43846   5.871   5.760  14.060  0.0558  0.0550 -0.2752
27953W        W43847  16.687  11.885  13.664  0.0577  0.1295 -0.3031
27954W        W43848   2.609   7.288  12.358 -0.0806  0.0093  0.0344
27955W        W43849  14.422   8.693   4.228 -0.2067 -0.1658  0.1277
27956W        W43850  16.615   1.848   6.423  0.4822  0.1498 -0.2832
27957W        W43851  13.205   3.216   4.704 -0.1461  0.2670  0.0176
27958W        W43852  11.254   2.287  12.743 -0.0397  0.1995  0.0024
27959W        W43853   4.645   6.408   5.005 -0.1493 -0.0377 -0.1153
27960W        W43854  13.432   0.565   2.241  0.0195 -0.1717 -0.3514
27961W        W43855  14.139   7.159   2.870 -0.2261 -0.0284 -0.4179
27962W        W43856  13.245  13.018   5.922 -0.1522 -0.2288  0.0157
27963W        W43857  10.900   2.251  13.280 -0.1416 -0.2036  0.2523
27964W        W43858  12.448   6.439   2.817 -0.1769 -0.0189  0.1689
27965W        W43859   0.160  16.365  15.729 -0.0262  0.1855  0.3272
27966W        W43860  16.922   1.887   1.804  0.2192 -0.1018  0.5007
27967W        W43861   7.414   7.530   0.148  0.1685 -0.2845 -0.0573
27968W        W43862  11.652  11.893   3.121 -0.0089 -0.1800  0.3295
27969W        W43863   8.716   5.067   0.687  0.5147  0.2796  0.1747
27970W        W43864   5.646   6.563   0.052 -0.2317 -0.1405 -0.0280
27971W        W43865  15.830  16.742  16.299 -0.1049  0.3144  0.0429
27972W        W43866   7.825   1.337   4.871 -0.0857 -0.0412 -0.3275
27973W        W43867   1.202   5.642  10.395  0.2266  0.1755 -0.2548
27974W        W43868   8.842   4.206   5.217  0.0605  0.0503  0.2682
27975W        W43869   7.386   3.576   4.209  0.1257 -0.2740  0.1465
27976W        W43870   1.199  11.047  12.139 -0.0326  0.0948  0.0603
27977W        W43871  14.849   6.556   0.380  0.0967 -0.0008 -0.3848
27978W        W43872  10.378  14.570  15.996  0.4694  0.0157 -0.0868
27979W        W43873   0.140   9.521  15.194 -0.0454  0.1532  0.1269
27980W        W43874   2.847   0.997   0.259  0.1486  0.0298  0.1330
27981W        W43875   8.130  15.998   5.046 -0.1859  0.2811  0.0619
27982W        W43876   7.370   1.616   4.857 -0.0154  0.1276 -0.0952
27983W        W43877  14.021  11.367   1.261  0.0829 -0.3015  0.0947
27984W        W43878   3.127  16.032  14.968  0.3336 -0.1736  0.4057
27985W        W43879   0.001   5.208  16.081  0.1614 -0.2748 -0.1873
27986W        W43880   1.703   7.178  12.772 -0.1295 -0.2953 -0.0640
27987W        W43881  17.549   6.315  15.689 -0.0271 -0.0987 -0.1214
27988W        W43882   6.954  10.914   3.571 -0.1902  0.0700 -0.2565
27989W        W43883   5.261  13.274  15.681 -0.1050 -0.2360  0.2181
27990W        W43884   1.201  17.016  14.443 -0.2152 -0.0578 -0.0609
27991W        W43885   2.869   4.060  13.049 -0.1631 -0.0873 -0.2040
27992W        W43886   9.082   4.901  15.507  0.1195  0.0563 -0.0865
27993W        W43887   6.014  14.357  12.431 -0.1781  0.1308  0.0698
27994W        W43888   4.868   1.668   4.134 -0.2530 -0.0874 -0.0130
27995W        W43889  17.764   8.535  13.128  0.1903 -0.2217 -0.0250
27996W        W43890   8.584   8.728  16.379 -0.0232  0.0667 -0.0440
27997W        W43891  11.959  12.758  14.482  0.2598 -0.1385  0.0120
27998W        W43892   7.520  17.520   0.274 -0.1809 -0.4700 -0.2093
27999W        W43893  11.675  11.943  12.897 -0.0666 -0.0738 -0.2686
28000W        W43894  10.502  10.433   0.478  0.2249 -0.1357  0.1903
28001W        W43895   7.930   9.213   5.133  0.0372 -0.2207 -0.0900
28002W        W43896   5.247   5.821   1.364  0.1844 -0.1731 -0.1285
28003W        W43897  11.385  16.963   6.258  0.0969 -0.0157 -0.2525
28004W        W43898   9.197  15.311  11.875  0.0513 -0.1077  0.0803
28005W        W43899  16.010   8.725  15.276  0.1760  0.1445  0.0129
28006W        W43900  12.597   1.538   3.761  0.0864  0.1018  0.0958
28007W        W43901   3.643   3.223  13.831 -0.0319 -0.0653  0.0432
28008W        W43902   9.144   3.942   1.352  0.0101 -0.0372 -0.1542
28009W        W43903   9.320  16.575   1.578 -0.2019  0.2186 -0.2361
28010W        W43904  17.721  14.483  16.022 -0.0726 -0.0044  0.0552
28011W        W43905   6.307   6.828  12.360  0.1134  0.0441 -0.3095
28012W        W43906  13.518   7.549  16.507 -0.3225  0.0240  0.0444
28013W        W43907  11.687  13.503  13.820  0.0653 -0.3472  0.0972
28014W        W43908  17.100   6.883   5.681 -0.0102  0.0875  0.3212
28015W        W43909   9.524  12.787  15.945  0.1470 -0.0927  0.2196
28016W        W43910   8.660   5.837   2.127  0.2818  0.1041  0.1664
28017W        W43911   7.960   1.638  15.080 -0.1496 -0.0189 -0.0887
28018W        W43912   6.582  15.352   5.832 -0.1326 -0.0234  0.1972
28019W        W43913   0.526   2.985  16.779  0.1123  0.0307 -0.0404
28020W        W43914   2.325  13.728  12.992  0.0225 -0.1974  0.1189
28021W        W43915   8.449   0.864  15.530  0.1218  0.0967  0.0463
28022W        W43916  10.197   3.802  11.927 -0.0832  0.1380 -0.1163
28023W        W43917   1.571   5.921  14.565  0.1078  0.0584 -0.3969
28024W        W43918  10.400   7.516  12.285 -0.1083 -0.2444 -0.0728
28025W        W43919   4.451   6.913  13.942  0.0554  0.0712  0.1107
28026W        W43920   0.912   1.445   4.883  0.0352  0.3302 -0.5115
28027W        W43921   2.312   0.185  12.031 -0.2139  0.1700  0.4338
28028W        W43922   8.948  16.852   4.518  0.0008  0.2640 -0.1540
28029W        W43923  11.645   5.303   5.071 -0.1266  0.1713 -0.1143
28030W        W43924  14.630   3.130  11.743 -0.1326 -0.0442  0.4084
28031W        W43925   6.297  11.451  13.418  0.0904 -0.1029 -0.2238
28032W        W43926  15.438   3.282  15.041 -0.0784 -0.0339 -0.0733
28033W        W43927  17.370  13.523   4.735 -0.0109  0.1227  0.0116
28034W        W43928  17.761   6.866  11.789  0.0155  0.1933  0.0019
28035W        W43929   6.416   8.605   4.990 -0.1653  0.0297 -0.0792
28036W        W43930   2.877   7.712   2.584  0.1400 -0.2174  0.1042
28037W        W43931  16.782   2.727   1.329 -0.4180 -0.3590 -0.3444
28038W        W43932   1.305  10.675   6.348 -0.3879  0.0328 -0.2558
28039W        W43933   5.398  17.240   1.115  0.0012 -0.0886  0.1758
28040W        W43934   0.719  13.734   6.206 -0.0210  0.0603  0.1191
28041W        W43935  15.820   4.281   5.286  0.2232  0.0237 -0.0750
28042W        W43936   5.129   5.371  16.696  0.5734 -0.1360  0.0711
28043W        W43937  13.271  11.854  14.650  0.1118 -0.1573 -0.3048
28044W        W43938   7.210   4.929  15.939  0.0307  0.0726  0.0874
28045W        W43939  16.648   1.428   2.531  0.1508 -0.0245 -0.0153
28046W        W43940  16.106  11.453  15.026  0.1913 -0.0893 -0.1092
28047W        W43941  16.501  16.530  15.046 -0.1044 -0.1923 -0.1532
28048W        W43942  17.660   0.121   2.978 -0.1165 -0.0764  0.1167
28049W        W43943   1.190  17.463  13.638  0.0517  0.0067  0.1646
28050W        W43944   1.151   8.182  15.586 -0.1949  0.0212  0.0471
28051W        W43945   0.153   1.471  13.563  0.3358  0.1389 -0.1250
28052W        W43946   5.679  10.409   5.213  0.0607 -0.0952 -0.0868
28053W        W43947   7.700   6.848   0.785 -0.1511  0.2406  0.1688
28054W        W43948  15.208   7.848   6.198 -0.1361  0.0834  0.2494
28055W        W43949  17.494  10.541  16.142  0.0438  0.2894 -0.1874
28056W        W43950  13.911   1.190  16.883 -0.1354 -0.2080  0.0268
28057W        W43951  13.497  11.536   3.842 -0.5069 -0.1243  0.3457
28058W        W43952  16.008   6.824  12.037 -0.0036 -0.1907 -0.3867
28059W        W43953   2.757   8.162  13.220  0.0260  0.3458 -0.2077
28060W        W43954  10.888  13.646  12.026 -0.1302 -0.0066 -0.0992
28061W        W43955   5.141   1.367  15.151 -0.4070 -0.2717  0.0336
28062W        W43956  10.579   7.390   0.893  0.5078  0.1380  0.1412
28063W        W43957   6.826   4.395   0.168 -0.3730 -0.0249  0.2744
28064W        W43958  16.016  14.712  16.334 -0.3760  0.3497 -0.0941
28065W        W43959  10.402  12.674  13.991  0.0667 -0.1032 -0.5023
28066W        W43960   0.557  17.129   4.920  0.0891 -0.1003  0.1164
28067W        W43961  13.434   0.708   1.275 -0.0447  0.0605 -0.4422
28068W        W43962  12.829  13.069  16.378  0.5187  0.1121  0.0727
28069W        W43963   7.859  13.141   3.550 -0.0639 -0.1431 -0.0428
28070W        W43964   0.551  16.635  13.658 -0.3097  0.1388  0.0057
28071W        W43965   8.641  13.064   3.574  0.0450  0.0481 -0.1703
28072W        W43966   6.490   0.869  12.417  0.0520 -0.2214  0.1112
28073W        W43967   3.001  13.089   0.110 -0.3042  0.2072  0.1172
28074W        W43968  10.705   7.718  11.783 -0.2790 -0.0042 -0.1129
28075W        W43969  14.246   6.576   3.840  0.2121 -0.3148  0.0073
28076W        W43970   6.956   8.487  15.213  0.0730 -0.0814  0.3558
28077W        W43971   9.972  14.773  11.948 -0.2992  0.0133 -0.1741
28078W        W43972   6.385   3.022  15.813  0.0458  0.1146 -0.0652
28079W        W43973   1.095   4.431   4.084  0.0638 -0.0419  0.3237
28080W        W43974  12.005  12.722   2.541 -0.0506 -0.1195  0.1350
28081W        W43975   1.866  12.940  13.048  0.0980  0.0361 -0.0418
28082W        W43976  13.349  10.655  13.026  0.1147 -0.1443  0.1199
28083W        W43977   0.520  11.279  12.776 -0.0600 -0.0142  0.0071
28084W        W43978   3.005   9.048  15.258 -0.0261  0.0538  0.0660
28085W        W43979  13.195  12.999  13.252 -0.1001 -0.0892  0.1718
28086W        W43980   0.665   1.112  16.902 -0.2775  0.0236  0.1529
28087W        W43981   3.676  13.621   4.144  0.1662  0.0603  0.1995
28088W        W43982   4.929  10.608  14.001  0.1156 -0.0884 -0.1993
28089W        W43983   5.023   3.721   0.326 -0.0372 -0.3934  0.1208
28090W        W43984  14.033   9.205   1.166 -0.2044  0.0769 -0.1208
28091W        W43985   3.574   9.016   5.676  0.3896  0.1652  0.1777
28092W        W43986  16.748  15.999   3.523 -0.0993  0.0192 -0.2769
28093W        W43987   5.325   7.734  13.382 -0.1479 -0.0625 -0.1775
28094W        W43988  10.829  12.578  16.526  0.0416 -0.3158 -0.2231
28095W        W43989   7.084  11.903  16.289  0.1616  0.2219  0.2882
28096W        W43990  12.194  11.164  12.582  0.1221  0.1810  0.3669
28097W        W43991   3.934  15.407  16.113  0.0849  0.2021 -0.1176
28098W        W43992   9.465   4.028  14.075  0.2302 -0.0080 -0.1057
28099W        W43993  13.651   4.738  15.561 -0.1310  0.3431 -0.1099
28100W        W43994   1.215   0.727  15.053 -0.3144 -0.2803 -0.1547
28101W        W43995   6.167  12.843   5.215 -0.3096 -0.3022 -0.1813
28102W        W43996  14.558  11.028   6.283  0.3861 -0.0461 -0.1687
28103W        W43997   8.475  14.605  13.822 -0.0196 -0.1831  0.0428
28104W        W43998   5.394   4.932  13.414  0.2774 -0.1750 -0.0201
28105W        W43999   1.839   4.103  13.605 -0.0601  0.1863 -0.2556
28106W        W44000   3.201   5.386  14.942 -0.2006  0.0340  0.0115
28107W        W44001  13.343  17.009  12.094  0.0968  0.1138 -0.0175
28108W        W44002  13.554   7.806   3.846  0.3228 -0.0139 -0.2194
28109W        W44003  16.556  15.687   2.556  0.0645 -0.0133  0.0981
28110W        W44004   1.927  17.755   4.362  0.2570 -0.3995 -0.1186
28111W        W44005  15.215   2.537   2.253 -0.0553 -0.3066  0.0420
28112W        W44006  15.297  15.808   2.798 -0.2665 -0.0626 -0.1595
28113W        W44007   2.782   4.537  15.251 -0.0211  0.3598  0.4220
28114W        W44008  12.277  12.933   2.960 -0.0202 -0.2635  0.2506
28115W        W44009  15.652   9.005   2.384 -0.2785  0.3968  0.0460
28116W        W44010   1.183   5.447  13.994 -0.2867  0.0062 -0.2153
28117W        W44011   5.151   7.665   5.194 -0.1338  0.1356  0.4984
28118W        W44012   9.182  13.206   4.464 -0.0724  0.1434  0.2816
28119W        W44013  11.338   4.435   5.663 -0.1245  0.2503  0.0114
28120W        W44014   1.120  16.001  14.372  0.4622 -0.2300 -0.1253
28121W        W44015   6.656  11.844   5.618 -0.3755 -0.4206 -0.0255
28122W        W44016  10.109   9.504  16.507  0.0468 -0.0186  0.2673
28123W        W44017   3.564  16.762  13.206  0.0815 -0.2095 -0.3870
28124W        W44018   4.280   4.385  13.972  0.2567 -0.0551  0.1428
28125W        W44019   7.718  17.123   0.583 -0.2604 -0.0003  0.2122
28126W        W44020  11.845   2.139  14.997 -0.2723  0.2094 -0.1325
28127W        W44021   3.141  13.644   4.252 -0.1263 -0.1111 -0.2719
28128W        W44022   3.327  12.622   2.287  0.0741 -0.2900 -0.1617
28129W        W44023   2.819  10.651   0.287  0.2688 -0.0759  0.0122
28130W        W44024   4.892  16.994  13.364  0.1412 -0.2397 -0.3378
28131W        W44025   8.159   9.521  11.327  0.1766 -0.0995 -0.0865
28132W        W44026   6.878  12.835  15.913 -0.1088 -0.0520 -0.0186
28133W        W44027  15.521   8.163   1.976 -0.0535 -0.1714 -0.1375
28134W        W44028   7.930   6.622  12.731 -0.2117 -0.1676  0.1141
28135W        W44029   8.676   7.345  13.705 -0.0407  0.3363 -0.1312
28136W        W44030  14.859  14.638   3.517  0.2581  0.0876 -0.1799
28137W        W44031   0.483  13.048   0.870  0.0718  0.1555 -0.1421
28138W        W44032   8.482  17.189   3.893  0.1419 -0.0299 -0.0013
28139W        W44033  15.783  11.831  14.442 -0.0223 -0.1887  0.2532
28140W        W44034   0.962  11.075   1.656 -0.3154  0.3256 -0.1200
28141W        W44035  12.157   2.802  15.504 -0.0829 -0.0575 -0.2098
28142W        W44036   2.690  15.671   5.080  0.0817  0.0639  0.1755
28143W        W44037   6.821  11.764   0.442 -0.0411  0.0441  0.1196
28144W        W44038   9.421   1.131  14.370  0.3437 -0.3138  0.2424
28145W        W44039   0.469  16.578  14.548  0.3156 -0.0273 -0.0246
28146W        W44040  13.780   1.547   5.238  0.1074  0.0708  0.5176
28147W        W44041  13.768  13.605   3.427 -0.0925 -0.0928 -0.2493
28148W        W44042  13.504  15.656   5.005 -0.0725 -0.1659  0.0168
28149W        W44043   5.236   7.093   1.797  0.0952 -0.0287  0.4314
28150W        W44044   8.201   1.419  14.304  0.1304 -0.0506 -0.1492
28151W        W44045   2.905   7.257   3.214 -0.0034 -0.0108 -0.0214
28152W        W44046  13.292   8.245  14.908 -0.0800  0.2947  0.2387
28153W        W44047  12.046   3.684  15.568  0.2760 -0.0825 -0.3404
28154W        W44048   5.300  11.509   0.776  0.1801 -0.1090 -0.0272
28155W        W44049  13.422  10.967  11.086 -0.0578 -0.3107  0.0524
28156W        W44050  16.962   0.356  14.705 -0.0785 -0.2531  0.2107
28157W        W44051  14.015   9.452  13.810  0.0834 -0.0533  0.1211
28158W        W44052  13.389  14.873   0.128 -0.2101 -0.0241 -0.1694
28159W        W44053  12.784   3.328  11.653 -0.4156  0.0698 -0.1179
28160W        W44054  14.994  10.792  13.834 -0.0217 -0.1587 -0.0750
28161W        W44055   6.560   6.039   3.335  0.0815  0.1976  0.2361
28162W        W44056  13.657  11.831  16.370  0.0359 -0.3891 -0.3090
28163W        W44057   4.781   0.773   2.714  0.1227 -0.4231 -0.2336
28164W        W44058  11.688   2.253  15.843 -0.0840  0.1628 -0.2670
28165W        W44059  11.787   7.883   1.889 -0.0894  0.5537  0.1169
28166W        W44060  13.012   7.937  14.054  0.0929  0.1549 -0.0755
28167W        W44061  13.227  15.459  13.271 -0.0735  0.0910 -0.0384
28168W        W44062   9.335  12.413   5.537  0.0003  0.0763 -0.3827
28169W        W44063   8.438  14.957  13.475 -0.1264 -0.2761  0.3137
28170W        W44064   0.345   3.266  15.766 -0.3149  0.1035 -0.0698
28171W        W44065  14.362  11.650  16.869 -0.1090 -0.1468 -0.3773
28172W        W44066   4.529   9.075   0.471  0.3376 -0.2296 -0.0611
28173W        W44067  10.444   3.309   3.642 -0.1279  0.1603  0.0465
28174W        W44068   6.819  16.814   1.404 -0.0707 -0.1321 -0.0890
28175W        W44069   7.571   4.749   4.259 -0.2098  0.1005 -0.1363
28176W        W44070   0.934   0.666   2.322 -0.1076 -0.0819  0.1419
28177W        W44071  14.930   6.977   1.507 -0.3056  0.1149 -0.0531
28178W        W44072  17.683  10.421   5.348  0.0562 -0.0496  0.1791
28179W        W44073   1.690   6.368   3.602  0.1354  0.2422  0.1061
28180W        W44074  12.504  15.037  13.440 -0.1390 -0.1802 -0.0074
28181W        W44075   2.062  10.802   2.364  0.0245 -0.1077 -0.1220
28182W        W44076  10.505   1.136  11.610  0.1054  0.2402 -0.4261
28183W        W44077   6.417  16.273   3.244  0.1200 -0.0113 -0.1639
28184W        W44078  15.020   5.801  15.204 -0.4230 -0.1782  0.2968
28185W        W44079  14.603   5.834   0.866  0.1812 -0.2462  0.1506
28186W        W44080  16.391   4.921   5.092 -0.0181  0.1174 -0.1256
28187W        W44081   1.201   6.548   3.419  0.0404  0.1434  0.0717
28188W        W44082  12.081  13.896   0.423 -0.3188 -0.1663 -0.0137
28189W        W44083   9.832   4.533   0.828 -0.1117  0.2238  0.1557
28190W        W44084  11.259   2.538  14.360  0.1881  0.3661  0.1437
28191W        W44085  17.108   4.456   5.594 -0.0743  0.1293  0.0537
28192W        W44086   5.159   7.027  13.956  0.1635  0.2684 -0.0575
28193W        W44087   8.533  12.103  12.849 -0.0674  0.3416 -0.3057
28194W        W44088   1.641   2.681  15.957  0.1867  0.1698  0.1070
28195W        W44089   7.773  16.833  16.021  0.0263  0.1556 -0.1460
28196W        W44090  17.070   0.013  15.718 -0.1720  0.0034 -0.0839
28197W        W44091   2.408  14.174   0.347 -0.0199 -0.1092  0.1012
28198W        W44092   5.636  12.219  14.815  0.1696 -0.1056 -0.3557
28199W        W44093  10.253   5.970   3.513  0.2830  0.0499 -0.1353
28200W        W44094  14.705   0.566   4.261  0.1002  0.1452 -0.0011
28201W        W44095  10.028   0.995  16.157  0.2862  0.4221 -0.0555
28202W        W44096   6.289   9.060  15.528 -0.0998 -0.1032  0.2768
28203W        W44097   2.746   2.332  16.501 -0.0122 -0.1235 -0.2367
28204W        W44098   0.854  16.921  15.282 -0.0254 -0.3315 -0.0632
28205W        W44099  15.518   0.851   2.306 -0.0327 -0.1094 -0.0155
28206W        W44100  10.270  14.907   3.949  0.0561 -0.1081  0.1300
28207W        W44101  11.153  14.953  13.491 -0.0461  0.2335  0.3279
28208W        W44102   2.757   9.265   4.528  0.1155 -0.0466 -0.0381
28209W        W44103  17.475   6.709   1.623 -0.1584  0.2107 -0.3114
28210W        W44104  12.273   5.060  14.350 -0.1804 -0.2357 -0.0033
28211W        W44105  12.488   6.517   1.317  0.0410  0.0344 -0.3395
28212W        W44106   8.257  17.350   5.939  0.0036  0.0919 -0.0093
28213W        W44107  11.353  12.376   3.437  0.0538  0.3909 -0.5274
28214W        W44108   4.015   9.910   1.951  0.0152  0.2776 -0.0824
28215W        W44109   2.653   8.139   5.333  0.0545  0.0120  0.0074
28216W        W44110  14.972   4.232   2.560  0.0592 -0.1218 -0.3065
28217W        W44111  13.545   1.861   2.611 -0.1800  0.0910  0.0702
28218W        W44112   9.467  14.054  12.099 -0.4305 -0.0884 -0.0377
28219W        W44113   7.048  12.140   0.728 -0.3848 -0.2125  0.1322
28220W        W44114   3.309   1.676  16.245  0.0892 -0.1818  0.2733
28221W        W44115   9.114   1.200  15.001  0.2711  0.3245 -0.1402
28222W        W44116  12.675   2.468   2.372 -0.0588 -0.0504  0.3647
28223W        W44117   1.838   6.849  14.451 -0.0623 -0.0463 -0.0095
28224W        W44118  10.905  12.481  12.764  0.0122 -0.2460  0.1657
28225W        W44119  16.813  11.760   2.590 -0.0358  0.0231 -0.2102
28226W        W44120   4.886   3.644   1.730 -0.2118  0.0225  0.0242
28227W        W44121   3.050   7.097   1.770 -0.0438 -0.3599 -0.0602
28228W        W44122   7.656  14.358  14.071 -0.0397  0.1895 -0.1819
28229W        W44123  13.101   2.706  14.325 -0.2014  0.1236 -0.1070
28230W        W44124  15.796  15.034  15.979  0.3626  0.0429  0.0206
28231W        W44125   6.430  13.942  15.033  0.0347 -0.3052  0.3812
28232W        W44126   1.481   8.518   1.686 -0.1643 -0.0833 -0.3801
28233W        W44127   5.030   2.440   4.615  0.0719 -0.2360  0.2568
28234W        W44128  13.949   3.866  11.390  0.0786 -0.1361 -0.0774
28235W        W44129   9.425  16.246   2.073 -0.1487 -0.1537 -0.2173
28236W        W44130  16.651   9.237  15.008 -0.3216 -0.4125  0.1692
28237W        W44131  16.870  15.081  14.884 -0.0281 -0.0603 -0.0311
28238W        W44132  10.004   6.444  10.656 -0.1037  0.2028  0.1581
28239W        W44133   1.590  10.421  14.496  0.1576 -0.1131 -0.0322
28240W        W44134  10.188   0.465   5.055  0.1870 -0.2315  0.1303
28241W        W44135   5.088   1.043  12.989 -0.2948 -0.1597 -0.1081
28242W        W44136   2.265   5.135  11.867  0.2173  0.1234  0.1343
28243W        W44137   9.570  16.832  13.493  0.0015 -0.0007  0.0260
28244W        W44138  11.208   5.393   0.877 -0.1287  0.1106 -0.0062
28245W        W44139   8.205  12.431   3.862  0.1908  0.2291  0.2721
28246W        W44140  13.577   5.065   4.278 -0.0603  0.3888  0.1431
28247W        W44141  10.188   2.692  13.941 -0.0882 -0.1588 -0.1206
28248W        W44142  17.482  17.697  12.401 -0.4114 -0.1285 -0.1192
28249W        W44143  13.336   5.909  12.055  0.0588  0.0671 -0.1715
28250W        W44144   4.768   6.742  13.543  0.1746 -0.3026  0.2143
28251W        W44145   8.456   0.463   5.728  0.0594 -0.1377  0.0180
28252W        W44146  12.612   5.746   0.751  0.1849 -0.0172  0.0458
28253W        W44147  16.548  17.771  14.688 -0.3471  0.1246  0.0404
28254W        W44148  10.974  15.545   2.824 -0.0219  0.2706 -0.0726
28255W        W44149   6.556   9.106  12.456  0.0649 -0.2352  0.1513
28256W        W44150   2.822  15.094   4.362 -0.1806 -0.1224  0.5446
28257W        W44151   5.189  14.570   4.257  0.1586 -0.1033 -0.3508
28258W        W44152  16.666   0.500  15.140  0.0110 -0.0400  0.0491
28259W        W44153  16.641   5.070   2.151  0.1256 -0.0652  0.0114
28260W        W44154  14.978  17.186  14.504  0.1656 -0.1212  0.0537
28261W        W44155   3.620   7.152  13.924 -0.1164 -0.0128 -0.0684
28262W        W44156  16.517   8.967   4.526  0.3609  0.0651 -0.1259
28263W        W44157  11.653   8.794   4.670 -0.0706  0.2929 -0.1188
28264W        W44158   9.419  15.104   2.733 -0.2237  0.1749 -0.1400
28265W        W44159   6.257  10.123   1.302  0.0572 -0.1437  0.0072
28266W        W44160  14.137   5.251  12.785 -0.2557  0.0861 -0.1754
28267W        W44161   9.389  10.077   4.543 -0.0229 -0.3418 -0.1671
28268W        W44162  15.095   5.429  15.692  0.1094 -0.1011 -0.1139
28269W        W44163   9.035   1.508  13.006 -0.0016 -0.0108 -0.0821
28270W        W44164  14.622  13.297  16.179  0.1821 -0.0401  0.0354
28271W        W44165   1.255   4.768  15.327 -0.2349 -0.2799 -0.2502
28272W        W44166   5.413   8.586  13.192  0.0089 -0.3692 -0.0902
28273W        W44167   9.569   5.608   1.013 -0.1786  0.1838 -0.1420
28274W        W44168   9.072  13.686  14.622  0.1635 -0.2357  0.1890
28275W        W44169   6.688   2.196  14.894 -0.1425  0.1910 -0.0880
28276W        W44170  12.528   5.609  12.246  0.1858 -0.0890 -0.0256
28277W        W44171   1.984  10.100   1.276  0.1926 -0.1743  0.0395
28278W        W44172  13.804  12.923   2.825 -0.1940 -0.1942  0.0845
28279W        W44173   6.616   6.967   6.114 -0.2061 -0.1476 -0.1457
28280W        W44174   8.398  13.474   2.324 -0.0901  0.0128  0.3007
28281W        W44175  15.607   4.050  14.273 -0.2820 -0.0160  0.1360
28282W        W44176  11.141  13.861   4.669 -0.0977  0.0544  0.0311
28283W        W44177   2.779  16.537  15.808 -0.1847  0.0366  0.1181
28284W        W44178  13.958   3.707  12.432 -0.2437 -0.0677  0.1615
28285W        W44179   1.430  12.267   1.524 -0.3437 -0.0229  0.2315
28286W        W44180  11.513   0.213   4.515  0.4135 -0.0516 -0.0902
28287W        W44181   8.700   0.173  13.590 -0.1040  0.5352  0.0688
28288W        W44182  13.303   1.363  10.482 -0.4007  0.0325 -0.2236
28289W        W44183   1.463   8.174   0.731  0.0405  0.1602  0.2121
28290W        W44184   6.363   4.115  15.869 -0.2456  0.0207 -0.1872
28291W        W44185  12.239  10.706   2.327 -0.2106 -0.0809 -0.1516
28292W        W44186   1.463  12.927   4.696  0.1789  0.0052  0.2359
28293W        W44187   9.293   9.031   5.018  0.0308  0.0061  0.0590
28294W        W44188   7.026   2.346   0.978 -0.3164  0.0628  0.0319
28295W        W44189  12.072   4.334  12.199  0.0301  0.1251  0.0017
28296W        W44190   6.066   7.908  13.978  0.0642 -0.2419  0.3075
28297W        W44191  16.896   0.551   1.807 -0.0844 -0.1684 -0.1262
28298W        W44192  15.444   4.644  13.001 -0.2042 -0.1381 -0.0029
28299W        W44193  17.237   7.630   1.739 -0.3833 -0.0692 -0.2885
28300W        W44194   4.815  13.528  16.772 -0.0736  0.0151 -0.1977
28301W        W44195   4.797  17.817   3.502 -0.3576  0.1445 -0.0386
28302W        W44196   1.067   7.555  14.931  0.0389 -0.2034  0.2086
28303W        W44197  14.635  12.620   2.733 -0.1499  0.0930  0.1521
28304W        W44198   9.543   5.543   4.234 -0.2926  0.2527  0.0253
28305W        W44199  14.613  17.142   0.639  0.0428 -0.1659 -0.1577
28306W        W44200   1.759  17.662  15.986  0.2063 -0.3660  0.0071
28307W        W44201  13.584  16.272   2.113 -0.2257 -0.0717 -0.1384
28308W        W44202  15.610   0.770   4.882 -0.0165 -0.0758  0.0522
28309W        W44203   2.572   8.725  11.763 -0.4234  0.2126  0.1057
28310W        W44204   5.839   4.439   4.015  0.2064  0.2945 -0.0586
28311W        W44205   4.678   7.752  15.851 -0.3428 -0.1449 -0.1493
28312W        W44206  16.281   9.167  15.538 -0.0547 -0.2795  0.0716
28313W        W44207  13.215   7.625  12.332  0.1787  0.0542 -0.1470
28314W        W44208  12.947   9.142   5.424  0.2993  0.0786  0.0350
28315W        W44209   1.188   7.934  16.730  0.1429  0.2005 -0.2801
28316W        W44210   8.515   2.946  10.626  0.3332 -0.1544 -0.0689
28317W        W44211   7.522   1.030  14.080  0.2292 -0.1868  0.3650
28318W        W44212  16.107  11.245   1.358 -0.0830  0.0309  0.1443
28319W        W44213  16.644  17.313  11.893 -0.0917 -0.2356 -0.4258
28320W        W44214   6.179  14.465  12.953 -0.1050 -0.1977 -0.1888
28321W        W44215   8.929  10.070   5.433 -0.0845 -0.1702  0.0597
28322W        W44216  17.848   9.798  15.929  0.0023  0.0409 -0.1007
28323W        W44217   1.413  13.916  13.136 -0.0558 -0.3624  0.3231
28324W        W44218  17.675   8.322  12.075  0.0437  0.3330  0.0826
28325W        W44219   6.700   0.723   2.194 -0.0795  0.1120  0.1257
28326W        W44220  16.878   2.207  16.898 -0.2813 -0.0677  0.0930
28327W        W44221  12.185   2.372   0.822 -0.0070 -0.0004  0.0920
28328W        W44222   8.144   5.144   2.983 -0.0234 -0.1527 -0.1062
28329W        W44223   5.677   1.993   0.100  0.1550  0.1319 -0.4088
28330W        W44224  12.355   4.384  11.306  0.1820  0.0178  0.0182
28331W        W44225   8.277  10.682  14.881  0.2233  0.0430 -0.2411
28332W        W44226   0.465   4.362   1.429  0.1851  0.0258 -0.1617
28333W        W44227  16.814  15.482   2.171 -0.0722  0.1955 -0.2121
28334W        W44228   3.914   5.328   3.227  0.2316 -0.1288 -0.0230
28335W        W44229   8.662  17.575   3.033  0.0647  0.1631 -0.0746
28336W        W44230   6.692  10.095   1.649 -0.0426 -0.0284  0.0064
28337W        W44231  11.733  15.202   2.682  0.1902 -0.0869  0.1468
28338W        W44232  12.803  13.774  13.037  0.2435 -0.1857 -0.1721
28339W        W44233   8.983   7.943  12.006 -0.4294 -0.0681  0.0186
28340W        W44234  13.232   5.483   4.160  0.0634 -0.1375 -0.0667
28341W        W44235   3.145   1.739   1.960 -0.0924  0.0266  0.3307
28342W        W44236   1.838   6.287   4.253  0.0660  0.1596 -0.0471
28343W        W44237  11.640   7.491   1.099 -0.0127 -0.1536 -0.2966
28344W        W44238  11.483  17.077  14.632 -0.1122 -0.1787  0.0520
28345W        W44239   9.158   5.896  15.642  0.1507 -0.3260  0.1010
28346W        W44240  16.667   9.128   5.376 -0.1611 -0.1442  0.0333
28347W        W44241   7.566  14.627  15.019  0.0450 -0.2133 -0.0857
28348W        W44242   7.131   7.291   5.159  0.1630  0.1421  0.0053
28349W        W44243  17.539  11.488  14.718 -0.0549 -0.0779 -0.3597
28350W        W44244  11.405   1.334  12.039 -0.2138 -0.0896  0.1167
28351W        W44245   5.036   3.945  14.695  0.3944  0.0938 -0.0129
28352W        W44246  12.362   5.319   0.673  0.1530  0.1749 -0.2122
28353W        W44247   9.738  16.890  16.269  0.0352  0.2404 -0.3569
28354W        W44248   5.065  11.318   0.319  0.1198 -0.0870  0.1013
28355W        W44249  15.638  13.147  14.530  0.2369 -0.0287  0.1441
28356W        W44250   7.925  15.113  15.826 -0.1125 -0.1090  0.1250
28357W        W44251  11.714  11.560  14.421 -0.3312 -0.0525  0.0695
28358W        W44252  16.067  11.600   4.906 -0.0277  0.0764 -0.2907
28359W        W44253  15.501  13.142  12.166  0.1048 -0.0371  0.1172
28360W        W44254  15.581   4.162   1.882 -0.2164 -0.3372  0.1975
28361W        W44255  13.722   3.397   2.154  0.2097  0.1081 -0.0092
28362W        W44256  10.474  12.061   4.386 -0.0405  0.0648 -0.1280
28363W        W44257   0.845   2.556   2.272 -0.0407 -0.1298 -0.2347
28364W        W44258   4.572  16.026  14.000  0.3030 -0.4381 -0.0263
28365W        W44259   8.180   6.526   3.758 -0.0406 -0.1142  0.1648
28366W        W44260   5.774   7.534   1.087 -0.0133  0.0547 -0.4121
28367W        W44261   3.909   6.378  11.664 -0.0429  0.2176 -0.2072
28368W        W44262   1.498  17.360  14.067 -0.3689  0.0414  0.1331
28369W        W44263   7.022  15.040  16.845  0.2309 -0.2634  0.1480
28370W        W44264   3.573  12.958   4.802  0.0479 -0.0950 -0.0254
28371W        W44265   2.826   6.811   1.475 -0.0084  0.1241 -0.0960
28372W        W44266   2.453   3.267   2.975  0.0709  0.1882  0.1924
28373W        W44267  10.077  15.590   4.755  0.3641  0.1193  0.0927
28374W        W44268  12.949  15.875  13.531 -0.0417  0.1670 -0.1070
28375W        W44269   0.281   2.823  13.584  0.2363  0.0111 -0.1352
28376W        W44270  17.098   5.537  14.248 -0.1633  0.0126  0.0698
28377W        W44271   0.625  15.271  14.928 -0.3185 -0.0669 -0.1342
28378W        W44272   4.403  10.730  12.379 -0.0788 -0.1007  0.0378
28379W        W44273   5.895  12.103  11.556 -0.0558 -0.0348  0.1238
28380W        W44274   5.626   5.830  14.553  0.1622 -0.0118  0.0711
28381W        W44275  11.955  10.941   5.131  0.3310 -0.1733  0.0527
28382W        W44276  12.181   5.776  12.563 -0.1500 -0.2044 -0.1317
28383W        W44277   6.116   0.317  16.760 -0.0233  0.0075 -0.0663
28384W        W44278  14.151  17.825  13.071 -0.0839  0.4821 -0.1313
28385W        W44279  12.344   2.326   1.966 -0.0894  0.0969 -0.2524
28386W        W44280  15.633  11.561  15.200  0.1015 -0.0804  0.6543
28387W        W44281  11.166   2.529  13.817  0.0794  0.2562  0.0431
28388W        W44282   5.191   9.091  12.377  0.0895  0.2777  0.2176
28389W        W44283  17.716   2.117  15.240 -0.5098 -0.1100 -0.3057
28390W        W44284  14.548   0.406   2.434 -0.0803 -0.0162  0.1617
28391W        W44285  16.662   8.379  13.973 -0.2110 -0.0382  0.0861
28392W        W44286   6.200  13.584  14.275 -0.0964 -0.0995  0.1341
28393W        W44287  16.619   2.158  12.663 -0.4938 -0.0873  0.2219
28394W        W44288   5.548   7.530  14.725  0.3814 -0.0371  0.1374
28395W        W44289  14.500  12.669  13.973 -0.0472  0.2137 -0.0007
28396W        W44290  17.551   4.509  12.224 -0.0476 -0.3179  0.1601
28397W        W44291   9.061  14.265  14.652 -0.3798  0.1181  0.0800
28398W        W44292   1.127  17.327  12.989 -0.1534  0.3230  0.2082
28399W        W44293   7.421   7.109   2.066  0.1197  0.4647 -0.0006
28400W        W44294  12.009   0.206   4.682  0.0879 -0.1815 -0.0846
28401W        W44295  16.380   6.534  16.577 -0.1823 -0.0007 -0.0051
28402W        W44296   3.678  17.404  11.894 -0.2436  0.2933 -0.1137
28403W        W44297  16.675   2.224   9.761  0.1166 -0.2334 -0.1416
28404W        W44298   7.342  14.199  16.344 -0.1153  0.0202 -0.0294
28405W        W44299   2.391  16.544  12.152 -0.1652 -0.1791 -0.1401
28406W        W44300  12.536   4.868  14.018 -0.3031 -0.2785 -0.0896
28407W        W44301   2.232  16.756   5.839 -0.3037 -0.0706 -0.1169
28408W        W44302  13.628   0.536  15.389 -0.1794 -0.2201  0.1746
28409W        W44303   2.803  11.265   5.654 -0.2151  0.2158  0.2189
28410W        W44304   2.847  11.594   4.236 -0.1555  0.2759  0.0259
28411W        W44305   8.503   1.935  12.552  0.1747  0.0215  0.2899
28412W        W44306  17.393   5.736   0.381 -0.2474  0.0382  0.2619
28413W        W44307  11.511  10.277   2.460  0.0884  0.0243  0.2515
28414W        W44308   8.765   3.009   5.831 -0.2200 -0.0030 -0.0598
28415W        W44309  10.572   8.190   0.076  0.0641  0.3237  0.0270
28416W        W44310   1.467  17.174   5.895  0.0134  0.1320 -0.3172
28417W        W44311   2.153   8.663  16.513  0.1765 -0.2203 -0.0401
28418W        W44312   8.193   6.236   0.074 -0.0387  0.1231 -0.0815
28419W        W44313   3.650   3.781  15.328 -0.0246 -0.0686  0.0769
28420W        W44314   8.538  15.612   1.713  0.2815  0.0625 -0.1231
28421W        W44315  15.108  13.215   0.707  0.3969  0.0872 -0.1523
28422W        W44316   8.455   6.052   3.611  0.2287 -0.1642 -0.0200
28423W        W44317   7.263  15.189  14.445 -0.1252 -0.0240  0.1198
28424W        W44318   8.846  13.156   0.630  0.0871 -0.2489  0.2131
28425W        W44319   5.268   5.192   0.561  0.0395 -0.0621  0.0293
28426W        W44320  14.678   1.432   0.572  0.1038 -0.2110 -0.2309
28427W        W44321   5.050  13.614  14.060  0.1183  0.1423  0.4226
28428W        W44322  13.536   6.795  14.395 -0.3025 -0.0871  0.3675
28429W        W44323   9.159   2.573   3.211  0.0321  0.0405  0.0629
28430W        W44324  11.149   3.053  15.616  0.0735 -0.1603 -0.0153
28431W        W44325   2.498  17.623   5.607  0.1565 -0.1376 -0.0852
28432W        W44326  13.534  11.071  12.109  0.2353 -0.2202  0.3030
28433W        W44327   1.438   5.059   4.805  0.1760  0.1476 -0.1382
28434W        W44328   5.296   0.046  12.215 -0.2870 -0.0622  0.1792
28435W        W44329   8.549   6.407  12.932 -0.2773 -0.0645  0.1242
28436W        W44330  17.617  12.628  15.642 -0.0816 -0.2016 -0.4143
28437W        W44331  17.124   9.299  14.739  0.0023  0.1946 -0.3162
28438W        W44332  12.261   1.351  11.558 -0.2755 -0.0911 -0.1861
28439W        W44333   7.635  10.057   0.602  0.4791 -0.1886 -0.1287
28440W        W44334   0.608  10.990   2.584  0.2788 -0.0054  0.0442
28441W        W44335   2.581   4.289  12.610  0.2896  0.0033  0.0315
28442W        W44336   0.513   9.958  16.736 -0.0325 -0.0214 -0.1930
28443W        W44337   6.918   5.532  15.096 -0.3076  0.1275  0.1005
28444W        W44338   1.168  15.186  14.928  0.2783 -0.0251 -0.0479
28445W        W44339   3.467  17.740  16.124  0.2022 -0.2284 -0.2203
28446W        W44340  10.908  12.834  13.215 -0.0825 -0.1118 -0.1109
28447W        W44341   4.232  15.112   3.338 -0.1445 -0.1476 -0.0830
28448W        W44342   0.211   2.590   1.096  0.2595  0.1922 -0.3229
28449W        W44343   0.839   7.355  14.486 -0.0185 -0.4088  0.0154
28450W        W44344   9.094  14.367   3.829 -0.4066  0.3321 -0.0711
28451W        W44345  10.244   7.671  16.034  0.1808  0.2289 -0.0528
28452W        W44346   8.046  16.196  11.766  0.3168  0.0958  0.1741
28453W        W44347   8.448   5.540   5.251 -0.3265  0.4205 -0.0389
28454W        W44348   3.273   3.225  11.362  0.2362 -0.1281  0.0729
28455W        W44349   0.972   0.207  12.280 -0.0608  0.3480  0.0281
28456W        W44350   1.941   4.759  16.070  0.2079 -0.1250  0.0915
28457W        W44351   8.339   4.694  13.446 -0.1122 -0.0663 -0.2752
28458W        W44352  11.498   4.953   2.920  0.0403 -0.2639 -0.1437
28459W        W44353  11.505  17.385  12.146  0.0406  0.0989 -0.2126
28460W        W44354   0.973  15.561   2.597 -0.1827  0.0334  0.2322
28461W        W44355   6.721  16.552  16.622 -0.0639 -0.0964  0.0393
28462W        W44356  11.779   9.190   2.295  0.1591  0.0344 -0.1130
28463W        W44357   5.416  16.856   3.287 -0.2471 -0.0080 -0.2558
28464W        W44358  17.141  15.547  14.938 -0.3231 -0.0277 -0.1910
28465W        W44359   5.353   3.937  13.977 -0.2095 -0.0835  0.0596
28466W        W44360  12.782  12.517   0.664  0.1142 -0.0116  0.1131
28467W        W44361   8.639   7.014   2.722  0.0166 -0.2179  0.1040
28468W        W44362   0.616  10.332  13.238 -0.1838 -0.1492  0.2458
28469W        W44363   5.072  14.610   0.563  0.0126  0.4143 -0.0221
28470W        W44364  15.546   8.251   1.403  0.0096 -0.1314 -0.2412
28471W        W44365   0.906   7.620   2.458 -0.1012  0.2118  0.0523
28472W        W44366  15.076   7.528   4.842  0.1137  0.1410  0.2248
28473W        W44367   0.347  12.151   0.946 -0.1400  0.1194  0.3044
28474W        W44368   1.179   7.689  13.235  0.2645  0.0936 -0.2590
28475W        W44369  17.839  17.719  13.679  0.2925 -0.1367 -0.3939
28476W        W44370  16.503  14.119   5.364  0.0113  0.2097 -0.0177
28477W        W44371  17.055  13.918   3.999 -0.4270 -0.1348  0.1227
28478W        W44372   9.480   0.777   0.322 -0.3954 -0.2634 -0.4337
28479W        W44373  14.410  17.225  12.519 -0.1584 -0.1898  0.1605
28480W        W44374  11.289   9.532  14.090  0.1428 -0.1237 -0.1600
28481W        W44375   8.365   6.288  15.305  0.1390  0.1966 -0.4024
28482W        W44376   5.816   3.118  14.456  0.0958  0.1376  0.2361
28483W        W44377   2.047  12.710  15.893 -0.0993 -0.0762  0.1993
28484W        W44378  16.001  10.053   2.776 -0.1197  0.1880  0.2347
28485W        W44379   0.697   7.449   2.055 -0.2475  0.0660 -0.0630
28486W        W44380  11.921  14.708   1.526  0.2686  0.0446  0.1091
28487W        W44381  17.037  12.012  16.461 -0.1776 -0.1184 -0.4607
28488W        W44382  16.486   3.956  12.572  0.0430 -0.2921 -0.1138
28489W        W44383   8.625   5.894   3.127 -0.0103 -0.1029  0.1736
28490W        W44384   8.029  12.173  13.507 -0.1345  0.0849  0.0019
28491W        W44385  13.761   9.905   4.616  0.0236  0.2606  0.0451
28492W        W44386  17.567  15.057  14.734  0.2446 -0.0846 -0.1346
28493W        W44387  10.340  15.305   1.071  0.3328  0.0545  0.0681
28494W        W44388   4.459  12.468   0.200 -0.2337  0.3032  0.3280
28495W        W44389   6.395   1.369   4.692  0.2221  0.1363 -0.0622
28496W        W44390  12.422   1.977  16.242  0.0153  0.0004  0.3381
28497W        W44391  12.156  17.037  16.350 -0.1655  0.1189  0.2293
28498W        W44392   6.791  14.813  16.391  0.3191 -0.1112 -0.1298
28499W        W44393  15.484   2.031   4.300 -0.0249  0.1329 -0.3028
28500W        W44394   0.770   3.358  15.991 -0.1906 -0.1777  0.1221
28501W        W44395   4.472   2.197   2.539  0.1297  0.0081  0.0805
28502W        W44396   4.744   7.073  12.105  0.2718 -0.1044  0.0089
28503W        W44397   5.389   5.441   5.382  0.1385  0.0783 -0.2047
28504W        W44398   0.588  14.178   4.650 -0.1869  0.3059 -0.1231
28505W        W44399   5.214  16.575  10.515 -0.1495 -0.3034  0.1844
28506W        W44400  14.110  14.507   1.959  0.0920  0.0755 -0.0944
28507W        W44401   3.451  17.692  12.987 -0.2747  0.0759  0.1197
28508W        W44402  17.533   7.962  13.787  0.1033  0.2696  0.1049
28509W        W44403   4.727  15.980  14.614 -0.2231  0.1661 -0.2188
28510W        W44404  16.524  14.588   0.650 -0.0922  0.0556  0.0294
28511W        W44405   8.534  16.560  12.280  0.2042  0.0217  0.2354
28512W        W44406   3.651   5.349   5.124 -0.2007 -0.0380 -0.0003
28513W        W44407   2.683   6.045  11.793  0.1109  0.1207  0.0157
28514W        W44408   7.101  15.200  16.207 -0.1547  0.0895  0.0988
28515W        W44409   4.431  11.976   6.132  0.1678  0.3576  0.1024
28516W        W44410   6.950  10.767  14.574  0.0165 -0.1108 -0.0937
28517W        W44411  12.100  16.061  14.130  0.1706  0.1077  0.5232
28518W        W44412  15.545  15.795  14.813 -0.0895 -0.0224 -0.3617
28519W        W44413  13.928   3.017   2.463  0.2147  0.1561  0.6832
28520W        W44414  13.786   4.136  16.416 -0.1554 -0.3094  0.0734
28521W        W44415  15.510   4.580  15.605 -0.2392 -0.1878  0.2020
28522W        W44416  10.991   4.806   5.540  0.1792 -0.0547  0.1131
28523W        W44417   5.095  15.677  11.889 -0.1825  0.0631  0.0690
28524W        W44418   5.258  15.212   2.826  0.0836 -0.0750  0.0160
28525W        W44419  14.077  15.336  16.547  0.0028  0.1046 -0.1389
28526W        W44420   1.229  11.887   2.607  0.0458 -0.0688  0.1809
28527W        W44421  13.529  14.021   0.192 -0.2841  0.2820 -0.1129
28528W        W44422   8.281  15.040   5.085 -0.2767  0.2767 -0.3144
28529W        W44423  13.598   2.472  15.466 -0.5331 -0.0124  0.0890
28530W        W44424   0.545   2.509  13.173  0.0546  0.3689  0.1095
28531W        W44425   9.129  13.850   3.973 -0.0260 -0.0502 -0.1590
28532W        W44426   3.244   8.431   3.161 -0.0881 -0.1255 -0.0712
28533W        W44427   3.010  10.352   3.736 -0.4329  0.3421 -0.0680
28534W        W44428  13.011   9.143   0.510  0.1781  0.0896  0.1129
28535W        W44429  17.668   1.375  12.244  0.0115 -0.4168 -0.0823
28536W        W44430  13.762   7.454   4.171 -0.2217 -0.2549 -0.2223
28537W        W44431   1.003   3.651  12.942  0.1280 -0.0680  0.1344
28538W        W44432   1.199   0.815   3.665 -0.2250  0.2666  0.0769
28539W        W44433   5.817   0.324   0.213  0.3868  0.3635 -0.2297
28540W        W44434  17.046  16.547  13.829 -0.2920 -0.0047 -0.1633
28541W        W44435   0.961  13.772   2.998 -0.0613 -0.1632 -0.0679
28542W        W44436  11.595  11.659  11.900  0.0399  0.0102 -0.0033
28543W        W44437  14.727  10.613   4.449 -0.0270  0.0754 -0.0169
28544W        W44438   5.161   3.814   5.800 -0.4201 -0.4174  0.0097
28545W        W44439   5.410  12.148   2.036  0.1603 -0.0771  0.1904
28546W        W44440  10.131  17.745  16.480 -0.2330  0.2678  0.1448
28547W        W44441  10.936   8.664  15.561  0.1182  0.0836 -0.3589
28548W        W44442   2.693  10.358  16.800  0.0319  0.1558 -0.2689
28549W        W44443  14.790   0.583  14.248  0.1922  0.0038 -0.1528
28550W        W44444   5.192   5.737   2.308  0.2600 -0.0481  0.1719
28551W        W44445   2.235  13.264  14.168  0.3617 -0.2286  0.0914
28552W        W44446  13.192   5.475  15.468  0.1147  0.0990  0.0233
28553W        W44447  16.799   3.258   1.141 -0.1547  0.1597  0.1424
28554W        W44448  13.531   8.362   3.423  0.0373  0.0456 -0.3126
28555W        W44449   0.270   9.476  12.748 -0.0471 -0.0609  0.0667
28556W        W44450  15.755   8.514   4.141  0.0047 -0.1961 -0.2515
28557W        W44451   6.811   1.323  15.351  0.1721  0.1776 -0.0311
28558W        W44452   4.148   1.110   1.695 -0.1753 -0.0279 -0.2713
28559W        W44453   2.233  17.020  13.470 -0.3084  0.3550 -0.1141
28560W        W44454  10.651  12.044  16.539  0.2194  0.2150 -0.0455
28561W        W44455  13.159   8.736   3.289  0.1350 -0.1251  0.3905
28562W        W44456   8.969  15.179  14.817 -0.0367  0.0804 -0.1036
28563W        W44457   0.924   2.923  11.720 -0.0306  0.1833 -0.0497
28564W        W44458  15.548  16.586  14.813  0.0511  0.0511  0.0827
28565W        W44459  15.760   3.264  14.629  0.0213 -0.0962 -0.0863
28566W        W44460   3.165   9.372   1.796  0.4209 -0.1562 -0.0370
28567W        W44461  15.795  14.240  16.407  0.0737  0.0377  0.1451
28568W        W44462   9.874  15.485   2.880 -0.2520  0.1977  0.1551
28569W        W44463  17.769  12.808   2.498 -0.0156  0.1230  0.0279
28570W        W44464   8.887  17.751   2.518  0.1390  0.0173  0.0297
28571W        W44465   7.340   4.782   0.934 -0.4138 -0.4417 -0.0135
28572W        W44466   5.803   1.318  14.333  0.1795  0.0356  0.2261
28573W        W44467  15.726  11.892   0.885  0.1766 -0.0551  0.0568
28574W        W44468  13.940  11.013   0.844 -0.0310  0.2436  0.1191
28575W        W44469   3.868   3.160  14.309  0.1364 -0.1079  0.1917
28576W        W44470   7.602   3.403  12.276  0.0143 -0.0280 -0.2684
28577W        W44471  15.654   5.974   1.766  0.2547  0.3544  0.2918
28578W        W44472  11.237   5.228  16.678 -0.0167 -0.1102  0.2559
28579W        W44473  12.069  17.690   3.467 -0.2463  0.1620  0.0358
28580W        W44474   2.626  16.713   1.140 -0.2858  0.2316  0.0924
28581W        W44475   2.828  13.080  13.460  0.4410 -0.1567  0.2063
28582W        W44476  13.893   2.526   4.861  0.0387  0.3543 -0.0212
28583W        W44477   1.271   1.818   2.714  0.1158  0.1486 -0.1802
28584W        W44478  17.050  12.864  15.071 -0.0484  0.0097  0.3374
28585W        W44479  14.478  16.812   3.015 -0.2090 -0.1431  0.0604
28586W        W44480   6.475   5.677  16.024 -0.1711 -0.1758 -0.0896
28587W        W44481   6.431   7.676  14.222 -0.1178  0.0223 -0.0245
28588W        W44482   1.483   7.655   1.517  0.1495  0.0136  0.3287
28589W        W44483   4.985   5.631  16.241  0.1139  0.2662 -0.1655
28590W        W44484   4.688  10.998   3.112  0.1460 -0.0780 -0.3501
28591W        W44485   0.672  16.708   0.460  0.1259  0.2221 -0.0536
28592W        W44486   3.852   5.587  15.563  0.0236  0.2392  0.0956
28593W        W44487  14.653   2.590  15.770 -0.1742  0.1502  0.0605
28594W        W44488  12.880   8.032   1.223 -0.0860 -0.0665  0.1646
28595W        W44489  12.731   6.972  12.059  0.0778 -0.1852  0.0058
28596W        W44490  13.980  14.515   5.986  0.0760  0.1672  0.2608
28597W        W44491   6.808   5.767  16.738 -0.4711 -0.1272 -0.0344
28598W        W44492  11.542   1.262  14.401  0.0902 -0.0957  0.1196
28599W        W44493  15.941  11.670  16.573 -0.0849  0.1745 -0.0293
28600W        W44494   1.169  15.849  15.605  0.2424 -0.2247 -0.1541
28601W        W44495   5.898  14.723  16.819  0.2050  0.1226 -0.0097
28602W        W44496  10.515   2.693  16.151 -0.1456 -0.1759 -0.0528
28603W        W44497   0.175   4.707  11.308  0.2650  0.0112 -0.1556
28604W        W44498   8.527   4.493   4.365 -0.2515  0.1944 -0.0278
28605W        W44499   0.815  12.165   2.132  0.2452 -0.0261 -0.3735
28606W        W44500  10.308   8.045   6.200 -0.1137  0.0838  0.2713
28607W        W44501  16.623   1.344  15.003  0.1007  0.1383 -0.0625
28608W        W44502   6.020  11.109   3.415 -0.2227 -0.0403 -0.2287
28609W        W44503  16.507  13.363   1.243  0.0296 -0.0339  0.1513
28610W        W44504  11.523   4.808  12.315  0.0510 -0.0675  0.0121
28611W        W44505  16.639  12.694  15.204  0.3858 -0.0127  0.1162
28612W        W44506   4.013   8.179  10.420 -0.0552  0.0492  0.0430
28613W        W44507   5.943   4.247  13.196  0.1120 -0.0096  0.4156
28614W        W44508  17.112  15.518   2.757  0.0553 -0.0182 -0.0574
28615W        W44509   7.530  15.312  13.008 -0.0915 -0.1285 -0.0429
28616W        W44510  15.044   0.378   0.516 -0.3154 -0.1034  0.1260
28617W        W44511  10.779  16.060  14.323  0.0175  0.2497  0.1276
28618W        W44512   9.164  16.689   3.310 -0.2321  0.1483 -0.1207
28619W        W44513   1.561   3.814  11.633  0.1503 -0.4427 -0.2841
28620W        W44514   1.660   6.926   5.414 -0.0996 -0.0566  0.3416
28621W        W44515   4.407   7.668   5.046  0.0457 -0.1230 -0.0654
28622W        W44516   5.325   6.255  13.410  0.0666  0.0219  0.2174
28623W        W44517   4.613   7.426  14.065  0.0305 -0.0573 -0.4278
28624W        W44518   2.320   7.363   1.821 -0.0551  0.1589 -0.0211
28625W        W44519  12.957   5.564  14.816  0.1466  0.0669  0.0267
28626W        W44520   1.978  16.496  14.454 -0.4459 -0.2448 -0.1345
28627W        W44521  16.555   2.417  11.721  0.1343  0.1091 -0.0739
28628W        W44522   9.850  10.871   3.679 -0.0359  0.0785 -0.0569
28629W        W44523   6.310   1.686   3.314  0.0856  0.2083 -0.1231
28630W        W44524   8.792  15.131   6.366  0.1651 -0.1972 -0.1686
28631W        W44525   5.218   2.098   1.774 -0.0232  0.2093 -0.0424
28632W        W44526   6.069   6.434   4.075  0.1347 -0.0568 -0.4187
28633W        W44527   2.387  17.639   0.037  0.1145 -0.0755  0.0400
28634W        W44528   2.941   4.129   0.245  0.0982 -0.3031  0.0437
28635W        W44529  15.386  14.534  14.586 -0.0893  0.1373 -0.0272
28636W        W44530  17.679   9.096   4.640  0.0929  0.2503 -0.0154
28637W        W44531  12.330   0.703  15.290 -0.1582 -0.0248  0.0229
28638W        W44532   7.201  13.838  13.245 -0.1564 -0.0479  0.5127
28639W        W44533  14.184   9.507   4.096 -0.1505 -0.1624  0.1972
28640W        W44534   2.587   0.663  16.808  0.0416  0.1413 -0.0507
28641W        W44535  17.107   1.209  11.126 -0.1323 -0.0265  0.2375
28642W        W44536   8.518   9.848   1.639  0.6179 -0.2129 -0.0710
28643W        W44537  10.929  16.810  11.722 -0.0473 -0.1267  0.0081
28644W        W44538  12.550  10.736  13.445  0.0668 -0.0047  0.4123
28645W        W44539   7.536   7.367  12.813 -0.1505  0.1554  0.1704
28646W        W44540   6.408   5.684   4.239 -0.0869 -0.2211  0.2509
28647W        W44541  16.247   3.275  15.436  0.0333 -0.0578 -0.0707
28648W        W44542  16.248  11.649   6.141 -0.0200  0.2219 -0.0397
28649W        W44543   6.031  16.865   5.215  0.0548  0.1118  0.2098
28650W        W44544   1.102   0.676  12.556 -0.0325 -0.0614  0.1820
28651W        W44545   4.343   2.738   4.907 -0.1676  0.3168  0.1829
28652W        W44546   2.398  16.748   3.267  0.2520  0.1470  0.2559
28653W        W44547  17.400  16.456   3.905 -0.0336  0.3366 -0.4074
28654W        W44548   0.416  13.160  13.113  0.0092  0.1010 -0.1528
28655W        W44549   0.616  12.308  12.307 -0.1654 -0.0324  0.1034
28656W        W44550   1.775  17.642  12.660 -0.3153  0.0171 -0.0523
28657W        W44551  11.051  14.339   0.283  0.2323 -0.1028  0.0160
28658W        W44552  17.046  17.017   2.214 -0.1271  0.0938  0.1964
28659W        W44553  13.308  12.521   2.084  0.0636 -0.1760 -0.2226
28660W        W44554   6.327  16.957  15.926 -0.2295  0.0534 -0.1176
28661W        W44555   2.489  12.403   1.160 -0.1463 -0.0257  0.0229
28662W        W44556   2.919  15.167   3.570 -0.1068  0.1658 -0.1780
28663W        W44557  13.018   0.875   5.743 -0.0372  0.2368  0.1253
28664W        W44558  10.944   6.697   1.232 -0.4156 -0.1881 -0.0795
28665W        W44559  11.801   5.713   4.785 -0.0527  0.1143  0.0898
28666W        W44560  12.182   5.917  14.548  0.0711 -0.1450 -0.1195
28667W        W44561  14.648  10.504  16.450 -0.0473 -0.2860 -0.3380
28668W        W44562   3.244  10.191   1.566  0.0965 -0.1918 -0.4564
28669W        W44563  11.779  16.407  15.894  0.3002 -0.1615 -0.0947
28670W        W44564  11.416   7.269  16.546  0.0865  0.1292 -0.0840
28671W        W44565  16.190   4.516  14.659 -0.2194  0.2560  0.0464
28672W        W44566  14.351  12.805  16.179  0.2817  0.1404  0.1968
28673W        W44567  13.057  13.447   1.148  0.0285 -0.0216  0.2165
28674W        W44568  15.175   6.958  12.884 -0.1817 -0.3294  0.1187
28675W        W44569   2.452   1.651   3.406 -0.0687 -0.2409 -0.2751
28676W        W44570  15.072   4.286   3.575 -0.2740  0.0020  0.0046
28677W        W44571  10.779   4.353  15.813 -0.0010 -0.2632 -0.2971
28678W        W44572   2.893   8.196  11.703 -0.2908  0.1256 -0.3709
28679W        W44573   0.542  13.777  12.778  0.0845 -0.0840 -0.0567
28680W        W44574   4.086   7.316   1.055 -0.0422 -0.0473 -0.2090
28681W        W44575   4.781   1.749   3.291  0.0729 -0.1617 -0.0661
28682W        W44576   6.774   3.871  13.439  0.1467  0.2088 -0.1743
28683W        W44577  16.897   8.486   0.201 -0.1525  0.1063 -0.3433
28684W        W44578   4.059   5.359   2.652  0.3359  0.0277  0.2371
28685W        W44579   7.876  14.120   2.927 -0.1083  0.0391  0.1522
28686W        W44580  13.299  13.676  15.680 -0.3204  0.0726 -0.0411
28687W        W44581   9.654   4.287   2.214  0.0635 -0.1757  0.2913
28688W        W44582  13.536   3.233   0.299 -0.0845 -0.1135 -0.1035
28689W        W44583   2.879  17.746  11.577 -0.3362  0.0774  0.0810
28690W        W44584   2.780   0.543  10.508 -0.3781  0.1306 -0.1960
28691W        W44585   7.263   4.753   2.312 -0.1852 -0.0810  0.0303
28692W        W44586   8.647   2.599   1.546 -0.0426  0.2025 -0.4060
28693W        W44587   6.594   9.667   5.068  0.0151 -0.0302  0.3074
28694W        W44588  10.282  10.187  13.211 -0.2079 -0.0354  0.1674
28695W        W44589   3.360   5.045  11.726  0.1683 -0.3975  0.0053
28696W        W44590  12.878   3.670  15.628 -0.2858  0.1306 -0.0133
28697W        W44591  17.075  14.702   2.779  0.1519 -0.0594 -0.1215
28698W        W44592   0.593   6.244  14.966 -0.2496 -0.2578  0.1447
28699W        W44593  17.171  10.833   3.062 -0.0720 -0.0629 -0.4695
28700W        W44594  15.192   0.916   5.794  0.2256  0.0414  0.0285
28701W        W44595   1.827   4.842  14.941 -0.0456  0.0763  0.0941
28702W        W44596   4.691  10.541   4.382 -0.2716 -0.0123  0.1744
28703W        W44597  15.228  14.844   1.735 -0.2366 -0.1157 -0.2478
28704W        W44598  11.271   0.920  12.319  0.0145  0.2945 -0.2664
28705W        W44599  10.033   1.944   2.676  0.2087 -0.1347 -0.0790
28706W        W44600   0.312  17.144  16.061  0.0920 -0.1300  0.1403
28707W        W44601   2.525   7.732   1.404 -0.2851  0.1911 -0.2084
28708W        W44602  12.784  17.374   0.219 -0.1903 -0.1024 -0.1218
28709W        W44603   4.014  10.413   5.753 -0.2190 -0.2093  0.2084
28710W        W44604  12.824   9.186   3.288 -0.0235  0.2198  0.0067
28711W        W44605   1.764   7.368   4.464  0.3459 -0.0939  0.0754
28712W        W44606   1.815   6.497  13.129 -0.0357 -0.3962 -0.3129
28713W        W44607  17.542  14.112   6.372  0.2127  0.0638 -0.1480
28714W        W44608   6.424   6.581   2.095 -0.0174 -0.3396 -0.2474
28715W        W44609   7.881   2.310   0.358  0.2727  0.0706  0.2864
28716W        W44610   9.913   4.201   5.873 -0.1951  0.1145  0.2193
28717W        W44611   8.605  13.482  16.816 -0.2767  0.1801 -0.1610
28718W        W44612  15.262  13.805   6.110 -0.0753  0.1031  0.0583
28719W        W44613  13.336   4.582  14.098  0.1110 -0.0672  0.1269
28720W        W44614  13.701   5.184  15.283  0.1467  0.2177 -0.0080
28721W        W44615   4.760   7.572  11.965  0.1644  0.2617 -0.2555
28722W        W44616  14.696   7.735  12.313  0.0675 -0.0997 -0.1619
28723W        W44617   5.058   8.784   3.879  0.0263 -0.2840  0.2366
28724W        W44618  13.161   7.254  15.024  0.0414 -0.1151  0.1704
28725W        W44619  12.037  14.510  15.645  0.1099 -0.0315 -0.1322
28726W        W44620  17.461   4.531   0.058  0.1383  0.0961  0.0277
28727W        W44621   6.155  10.784   3.044 -0.0057  0.0124  0.0996
28728W        W44622   7.039  12.221  14.716 -0.1292  0.2124  0.2380
28729W        W44623  11.557   7.812   6.126 -0.0820  0.1901  0.1089
28730W        W44624  17.504   6.878   0.759 -0.2579  0.1271  0.0530
28731W        W44625   8.723   5.026  12.266  0.1258 -0.0790  0.1555
28732W        W44626  10.980   9.162  13.667  0.1140 -0.0177  0.1470
28733W        W44627   7.878   1.614  13.346  0.2888 -0.0181 -0.0830
28734W        W44628  16.242   2.444   4.237 -0.0797  0.0581  0.0202
28735W        W44629  10.794   9.667   4.701  0.3710  0.2872  0.0669
28736W        W44630  12.290  13.815  12.851  0.0603  0.1392 -0.1646
28737W        W44631   5.441   9.514  12.441 -0.3277  0.0408  0.0692
28738W        W44632  12.938  10.011  16.253 -0.0497 -0.2269  0.0419
28739W        W44633   7.292   6.047   0.597 -0.1324 -0.2834 -0.0966
28740W        W44634   0.232   4.474  10.443  0.0609 -0.0955 -0.2585
28741W        W44635   7.927  10.363  11.682 -0.2566  0.1996 -0.1768
28742W        W44636   3.920  13.744   3.721 -0.0915 -0.2523 -0.1734
28743W        W44637  16.789  11.637   3.122 -0.3303  0.0511  0.1974
28744W        W44638  13.522   4.753  11.263 -0.1346  0.0983 -0.4974
28745W        W44639   6.454  11.025  10.580 -0.0760 -0.1297 -0.0814
28746W        W44640   1.556   6.546   2.805 -0.0305 -0.0782  0.2727
28747W        W44641  10.036  11.555   4.770 -0.3629  0.1736 -0.0579
28748W        W44642  14.174   3.858   3.495 -0.3239 -0.1871  0.0925
28749W        W44643   0.314  12.635   0.058 -0.0811 -0.0845 -0.3940
28750W        W44644  11.624   4.757  13.187 -0.0578 -0.1042 -0.2130
28751W        W44645  15.096   4.384  12.286  0.1960 -0.2220 -0.2732
28752W        W44646   3.942  12.607   5.315 -0.0190  0.0796  0.0453
28753W        W44647  13.789  16.781   3.920 -0.0837  0.1081  0.0671
28754W        W44648   4.516   7.800   1.007  0.0251 -0.1194 -0.0219
28755W        W44649   8.736   3.295  10.947  0.1128  0.0855  0.3045
28756W        W44650  13.537  16.634  15.611 -0.0554  0.4452 -0.0376
28757W        W44651   6.312   4.892   3.515  0.2051  0.1170  0.1510
28758W        W44652  11.748   7.155  13.893  0.2756 -0.0501 -0.3901
28759W        W44653   7.068  10.734  16.355 -0.0404 -0.0263 -0.0946
28760W        W44654  12.413  15.724  13.840  0.3627  0.2270  0.0532
28761W        W44655  10.828   8.961  14.982  0.2718  0.4127  0.1147
28762W        W44656  13.414   8.972   6.188  0.1612 -0.3792  0.1058
28763W        W44657  16.882   5.543  11.274  0.2388  0.3221 -0.3048
28764W        W44658  11.502   4.196   1.272  0.1676  0.0755  0.1231
28765W        W44659   8.853  11.979   1.734  0.0057  0.1490 -0.0658
28766W        W44660  10.834   5.926  12.779  0.0136 -0.0228  0.0726
28767W        W44661  17.077  17.651   0.155  0.1110 -0.2244  0.2088
28768W        W44662  12.394  16.423   2.007  0.1697  0.3122 -0.1159
28769W        W44663   4.087   6.132   0.314  0.3517  0.1138 -0.1216
28770W        W44664   1.359   2.646   1.523  0.0268 -0.1890 -0.0982
28771W        W44665   3.048   6.091  14.421  0.1743 -0.0071 -0.0617
28772W        W44666   1.939   8.231   2.953 -0.0509 -0.1256 -0.1453
28773W        W44667   6.558   4.802  15.599  0.0984  0.1385 -0.0610
28774W        W44668   5.839   7.829  13.348 -0.0513 -0.0182  0.2328
28775W        W44669  14.039   7.659   4.580 -0.1967  0.3750  0.2856
28776W        W44670  11.933  16.019   4.231 -0.0977 -0.1322  0.0214
28777W        W44671  12.600   0.467  11.915 -0.3802  0.0665  0.0755
28778W        W44672  16.923  14.460   2.313 -0.2579 -0.0746  0.0289
28779W        W44673   6.788   2.793   4.818 -0.1092 -0.3159  0.0384
28780W        W44674  15.797   6.864  13.449 -0.0628 -0.0830  0.0586
28781W        W44675  16.610  13.043  12.145 -0.2695 -0.0980  0.0217
28782W        W44676  11.748   0.667   3.221  0.0086  0.1569 -0.0198
28783W        W44677   6.513   1.719  13.261 -0.0992 -0.1005  0.1421
28784W        W44678   5.090   2.813  12.753 -0.0141  0.0797  0.1242
28785W        W44679   6.519  14.846   3.951  0.4840  0.0594 -0.3823
28786W        W44680   5.197  15.003  15.565 -0.1407  0.2627 -0.2286
28787W        W44681   7.844   6.651   5.398 -0.0219  0.0956 -0.0344
28788W        W44682   9.913   8.008   5.613  0.0891 -0.1224  0.1764
28789W        W44683   1.370  16.901  12.301 -0.3041  0.0977 -0.0672
28790W        W44684  12.183  12.701   5.400  0.2089  0.0254 -0.2336
28791W        W44685   3.105  17.090  14.619 -0.3470 -0.0091 -0.3723
28792W        W44686   2.058  10.915  16.659 -0.0766  0.0374  0.2330
28793W        W44687   4.828  11.520  13.295  0.2934  0.0377 -0.1702
28794W        W44688  11.068   6.510  16.924 -0.1783  0.2750  0.2172
28795W        W44689  15.266   1.283   5.407  0.1035 -0.2223  0.2164
28796W        W44690   2.757   6.711  15.526  0.0849 -0.0407 -0.2220
28797W        W44691  16.250  15.319   2.494  0.1477 -0.0012  0.0666
28798W        W44692  11.801  12.919  12.840  0.1972 -0.0391  0.1891
28799W        W44693   0.882  15.307   3.163  0.0876  0.0602  0.1504
28800W        W44694   4.381   3.682   0.075 -0.2626  0.1825  0.0425
28801W        W44695  14.237  13.758   2.666  0.0261 -0.1035  0.1878
28802W        W44696   6.594   0.488   5.036  0.2485 -0.1080  0.1887
28803W        W44697   4.053  12.605   3.443 -0.1524  0.2929  0.0704
28804W        W44698  15.932  11.443  13.613  0.0964  0.1939 -0.1984
28805W        W44699  16.816   1.528   3.729  0.4235 -0.2879  0.0933
28806W        W44700   7.070   6.381   4.198  0.0806 -0.4358 -0.1270
28807W        W44701   0.155   2.810   0.058  0.1002  0.1094 -0.4611
28808W        W44702   7.030   4.131   4.995  0.1121 -0.0104 -0.1938
28809W        W44703   3.074  16.252  15.447 -0.1111 -0.0614 -0.0369
28810W        W44704   0.779   7.256   2.713 -0.0023  0.2564  0.0808
28811W        W44705   9.174   3.199  14.649  0.1488  0.1430  0.1411
28812W        W44706  11.870   4.563  13.590 -0.3588 -0.0143  0.1063
28813W        W44707  11.901  12.291  15.250  0.2964 -0.0881  0.0934
28814W        W44708  16.486  14.429   0.185 -0.2783  0.3150 -0.1019
28815W        W44709  14.321   4.006  13.690 -0.1904 -0.1208 -0.0036
28816W        W44710   4.616  15.971   3.270  0.2661  0.2428  0.1156
28817W        W44711  15.559   0.523  16.392  0.1066 -0.2272  0.2689
28818W        W44712   5.486  15.289   2.358  0.0196 -0.1355 -0.0470
28819W        W44713   4.868   1.833   0.799  0.1301 -0.2783 -0.2350
28820W        W44714  10.733   8.717  12.489 -0.0188  0.0818  0.3050
28821W        W44715   0.447  14.403  13.728  0.1145 -0.0726  0.0347
28822W        W44716   3.425  12.938  13.514  0.0300  0.2527  0.1098
28823W        W44717  11.463  16.336   2.980 -0.1063 -0.0909 -0.2481
28824W        W44718   3.590  17.777   5.068 -0.1047  0.1186 -0.0066
28825W        W44719  15.185  12.065   2.057  0.2521  0.0760 -0.0955
28826W        W44720  10.464  15.564   1.992 -0.1318 -0.1289 -0.1518
28827W        W44721   7.208  10.757   6.254  0.0491 -0.0486 -0.0711
28828W        W44722  16.343  12.321   1.412  0.2893  0.5619 -0.1231
28829W        W44723   9.625   0.582  11.221  0.2944  0.4940 -0.0472
28830W        W44724   2.122  14.911   2.911  0.1352 -0.2334 -0.1391
28831W        W44725   3.529  16.963  14.811  0.0711  0.0209 -0.1175
28832W        W44726   5.211   3.700  12.956 -0.1158  0.0750  0.1904
28833W        W44727  15.417  11.850   1.282  0.1013  0.1760 -0.3087
28834W        W44728   3.636   4.864   4.347  0.0459 -0.2602  0.2722
28835W        W44729  13.085  16.562  15.424 -0.2413  0.4526 -0.2292
28836W        W44730   9.034   2.417  15.217 -0.0247  0.0266  0.0319
28837W        W44731   1.629   4.906   5.558 -0.2188 -0.0073 -0.3836
28838W        W44732   7.300   2.259  14.011  0.3327 -0.0813 -0.2270
28839W        W44733   5.843   9.772   1.442  0.2331  0.0772 -0.2989
28840W        W44734  12.697   7.867   0.284  0.1817 -0.2821 -0.0014
28841W        W44735  16.778   3.838   4.448 -0.1729 -0.2805  0.1049
28842W        W44736   0.917   8.041   3.341 -0.0856  0.1675 -0.0350
28843W        W44737  14.883   5.099   5.976  0.1347 -0.1536  0.1791
28844W        W44738   5.502   7.847  14.360 -0.0120 -0.0513  0.0016
28845W        W44739  10.391  13.174  15.565 -0.1715  0.2571  0.1710
28846W        W44740   2.738  11.773   5.709 -0.4791  0.1109 -0.0831
28847W        W44741  11.868   4.787   3.246  0.1832  0.0631  0.2957
28848W        W44742   4.580   7.631   2.373 -0.0532  0.0280 -0.0689
28849W        W44743  10.314  16.909   1.632  0.0690 -0.0820  0.0628
28850W        W44744   7.501   0.682  13.295  0.2081  0.0212 -0.1252
28851W        W44745   9.087  15.074  14.298  0.1878 -0.2128 -0.3710
28852W        W44746   9.692  11.613   3.936 -0.0249  0.0520  0.1058
28853W        W44747   2.197   8.360   5.184 -0.1371  0.0935 -0.0496
28854W        W44748  15.826   6.873   3.020 -0.0171 -0.1516 -0.0071
28855W        W44749  16.529  15.971   5.095  0.0607  0.0881  0.0915
28856W        W44750   6.538   0.756   6.269 -0.0303 -0.0990  0.0767
28857W        W44751   2.484  12.556   5.573 -0.0612  0.0245  0.0971
28858W        W44752   2.952  14.872  13.889 -0.1128 -0.1879  0.0277
28859W        W44753  12.028   9.162   4.701 -0.2522 -0.1523  0.2942
28860W        W44754   5.594   8.864  14.842  0.1406  0.3294 -0.1082
28861W        W44755  15.370   7.543  11.784 -0.2223 -0.1119  0.4297
28862W        W44756   7.563  10.596  12.924  0.1080  0.1886 -0.1998
28863W        W44757  14.871  12.850   1.616 -0.1602 -0.1682  0.2030
28864W        W44758   9.003   9.717  12.015 -0.0474 -0.1474  0.1659
28865W        W44759  12.214   0.262  11.404 -0.3731 -0.1157  0.0375
28866W        W44760  12.418  14.387  16.436  0.1138  0.1938  0.1845
28867W        W44761  15.706   7.657   2.117  0.0101 -0.1811  0.1481
28868W        W44762   0.175   6.201  12.514  0.0645 -0.1749  0.3493
28869W        W44763   5.722   5.816   2.976  0.0063  0.2873 -0.1704
28870W        W44764   3.559  10.949   5.331  0.0926  0.1821 -0.0290
28871W        W44765   2.833  14.720   0.578 -0.3392  0.1372 -0.0390
28872W        W44766  15.920   5.289  16.263  0.1978 -0.1836 -0.0897
28873W        W44767  14.282  12.900   2.987  0.1585  0.0226 -0.0447
28874W        W44768  15.773  10.679   2.197  0.4001 -0.1867 -0.0064
28875W        W44769   9.858   9.864  16.816  0.1654  0.3175  0.0908
28876W        W44770   8.929   1.005   1.870 -0.1868  0.4782  0.0301
28877W        W44771  16.272  16.346   1.233 -0.3124  0.1631  0.0491
28878W        W44772  15.484   2.515  16.359  0.0677 -0.1064 -0.2179
28879W        W44773   3.069   8.347  16.594 -0.1209 -0.2290 -0.1118
28880W        W44774   8.950  14.339   5.374 -0.0912 -0.0583 -0.0814
28881W        W44775  15.472  16.579   0.647  0.3391 -0.0117  0.2253
28882W        W44776  13.409   1.139  12.868 -0.1452  0.1162 -0.3278
28883W        W44777  12.472  11.813  13.411  0.3793 -0.2897 -0.1241
28884W        W44778   3.945  16.983   0.492  0.2826 -0.1129  0.1530
28885W        W44779  14.097  10.813  15.563  0.2942  0.1376  0.0278
28886W        W44780   0.242   9.128  11.908  0.0043  0.2621 -0.0117
28887W        W44781  13.862  12.351  16.770  0.1726  0.1100  0.2312
28888W        W44782   1.447  14.640   3.380  0.1323  0.0579  0.3557
28889W        W44783   8.769  11.166   2.139  0.2492  0.2064  0.1163
28890W        W44784   8.935   8.092   1.691  0.0303 -0.0424 -0.3224
28891W        W44785   5.211   5.825   3.063  0.1619 -0.1830  0.1735
28892W        W44786   5.391  12.272   1.018  0.0281  0.0827 -0.2144
28893W        W44787   9.180   5.274  14.260 -0.0243 -0.0394 -0.0748
28894W        W44788   8.849   1.418  16.713  0.0919  0.1185 -0.1285
28895W        W44789   9.845  16.124  15.429 -0.0965  0.0225  0.0272
28896W        W44790   6.914   3.929   1.639 -0.1520 -0.2472 -0.0250
28897W        W44791   0.632   5.108  13.445  0.1989 -0.0321  0.1026
28898W        W44792  12.646   1.660  12.764 -0.1897 -0.1558  0.1292
28899W        W44793   3.393  15.130   1.771  0.0073  0.0008  0.1085
28900W        W44794  16.380   8.556  12.392 -0.1787 -0.0635 -0.0550
28901W        W44795   0.001  15.685   6.037 -0.0407  0.3809 -0.3574
28902W        W44796   1.945   4.048   0.672 -0.1101  0.1499 -0.1354
28903W        W44797   5.645   4.247   1.667 -0.2792  0.3816  0.2496
28904W        W44798   8.032   9.594   1.316 -0.2172  0.2482 -0.3177
28905W        W44799   6.983   7.555  12.924  0.1051  0.1847 -0.0878
28906W        W44800   5.393  14.076  13.882  0.0134 -0.1220  0.0083
28907W        W44801   2.665   8.631   3.286  0.2492 -0.0485  0.1810
28908W        W44802   1.492  13.810   4.770  0.1332 -0.3187  0.0935
28909W        W44803   4.265   1.736  13.699 -0.0284 -0.0284  0.0316
28910W        W44804   4.339   5.459   1.783  0.2099 -0.3729  0.0296
28911W        W44805  11.481  14.209  15.387  0.0489  0.0354 -0.0160
28912W        W44806   7.753   2.786   1.172 -0.0535  0.0004  0.2297
28913W        W44807   3.025  15.368   3.093 -0.3777  0.3163 -0.1184
28914W        W44808   1.563  14.583  11.510 -0.0618  0.2130 -0.1255
28915W        W44809   9.307  11.993   2.275 -0.0414  0.0137 -0.0195
28916W        W44810   9.545  15.482  16.687 -0.1031  0.0528 -0.2253
28917W        W44811   8.080   3.672   3.479  0.0442 -0.0443  0.3257
28918W        W44812   4.000   9.763  12.233 -0.1268 -0.1447  0.0017
28919W        W44813   7.619   8.828   5.104 -0.3399 -0.1474 -0.1919
28920W        W44814   9.190   0.738  12.416 -0.1983  0.0331  0.0316
28921W        W44815  17.500   6.661  13.782  0.2404 -0.3174  0.2408
28922W        W44816  15.983   3.301  16.287  0.1476  0.0435 -0.1068
28923W        W44817   5.409   5.236  14.716 -0.0131  0.1296 -0.2311
28924W        W44818  10.179  10.490  14.238 -0.0456 -0.0608 -0.0432
28925W        W44819  15.681  11.637  12.999  0.1191  0.0041 -0.2032
28926W        W44820   7.964  14.382   0.629  0.1358  0.2149 -0.0820
28927W        W44821  16.701  14.378   6.126  0.3442 -0.2227  0.1494
28928W        W44822   9.236   8.853   1.133  0.2516 -0.1532 -0.0693
28929W        W44823   2.216  14.534   3.766  0.0142 -0.1015  0.0090
28930W        W44824   7.082   5.850   1.758  0.1942  0.1711  0.0943
28931W        W44825   3.201   0.787   1.882 -0.1681  0.0343  0.2916
28932W        W44826  13.519   5.848  13.147 -0.1924 -0.3224  0.0122
28933W        W44827  13.048  12.264  14.939 -0.3029  0.5451 -0.0307
28934W        W44828   5.351   7.121   6.079  0.2187 -0.0844 -0.0391
28935W        W44829   9.882  14.304   6.426  0.2276  0.1306  0.0608
28936W        W44830  11.704  12.159   4.640  0.3659 -0.0732  0.0540
28937W        W44831  14.457   3.593   5.351 -0.0227 -0.1552  0.1614
28938W        W44832  15.149   7.236  10.854  0.1705 -0.0970  0.0174
28939W        W44833   4.848   0.173  12.616 -0.0823 -0.2492 -0.1173
28940W        W44834   8.485   1.870   3.704  0.1678 -0.0579  0.0541
28941W        W44835  15.349  14.340   1.335 -0.0648  0.0260 -0.0382
28942W        W44836  13.704   1.079   0.381  0.1008 -0.0426 -0.2153
28943W        W44837  11.291   2.641   2.119 -0.1374  0.3171  0.1231
28944W        W44838   1.508  12.238   3.396 -0.0365 -0.0389 -0.2744
28945W        W44839  15.039   9.050  11.004  0.0442  0.0458  0.1647
28946W        W44840   1.793   6.629  15.589 -0.1110 -0.2455 -0.4379
28947W        W44841  11.779  13.990   3.344 -0.0442 -0.1819  0.0770
28948W        W44842   5.697  10.039  11.946 -0.2017  0.1284 -0.3973
28949W        W44843   9.745   1.956  11.866 -0.1139 -0.1191 -0.1937
28950W        W44844   8.297  14.160   3.318 -0.2751  0.2353  0.0265
28951W        W44845  15.021   5.343   4.812 -0.5278 -0.0985  0.1122
28952W        W44846   6.639   9.487  13.447  0.1798 -0.0171 -0.0142
28953W        W44847   5.618  13.990  16.399  0.3062 -0.1239  0.0402
28954W        W44848  12.546   0.434   2.903 -0.1082 -0.1868  0.1400
28955W        W44849  12.601   2.712  16.789  0.0752 -0.0327 -0.1869
28956W        W44850  14.960   8.999   3.100 -0.3490 -0.1675 -0.1988
28957W        W44851  14.214   7.219  14.032 -0.0148  0.0500 -0.1530
28958W        W44852   8.822  10.929  14.810  0.1771  0.0129 -0.0570
28959W        W44853  17.488   5.408   0.761 -0.0140 -0.3994  0.0155
28960W        W44854   0.078  15.227   1.339  0.1758  0.0101  0.1353
28961W        W44855   2.415  12.643  12.230  0.1319  0.4842 -0.1013
28962W        W44856   0.765  17.599  13.293 -0.1332  0.0849 -0.0140
28963W        W44857  16.843   2.366   1.677  0.1839  0.0689 -0.0118
28964W        W44858  14.448   0.664  11.812 -0.0825 -0.3371  0.0785
28965W        W44859  11.711  16.028  13.191  0.2611 -0.1519 -0.0052
28966W        W44860  15.652   2.438   1.816 -0.0447 -0.3040  0.1920
28967W        W44861  17.547   3.236  14.231 -0.0301 -0.1894 -0.1095
28968W        W44862  15.279  16.751  15.883  0.3640 -0.0396 -0.1188
28969W        W44863  17.025  10.996  15.568 -0.0983  0.2407 -0.0714
28970W        W44864   8.725  11.965   3.232 -0.4468 -0.1354 -0.1525
28971W        W44865   6.157   4.782   2.173  0.0161 -0.1573 -0.2060
28972W        W44866  13.838   6.092   1.517  0.0029 -0.0531  0.0692
28973W        W44867   1.693   9.221  11.851  0.0904  0.1245  0.0359
28974W        W44868  10.605  12.183   6.054 -0.2494 -0.2516  0.1000
28975W        W44869  11.344   3.745  10.676  0.0783  0.2682  0.0531
28976W        W44870   0.448   3.297  14.670 -0.1914  0.3705 -0.1126
28977W        W44871   3.956   6.980  14.901 -0.0681 -0.2243 -0.0300
28978W        W44872   7.159  11.219  16.415  0.1733 -0.2741  0.0339
28979W        W44873  14.236  16.379   4.162 -0.2207 -0.3314  0.1081
28980W        W44874  16.490  12.238  12.146  0.1000  0.1245  0.0858
28981W        W44875  11.711   8.441   4.238  0.0782 -0.1864  0.1132
28982W        W44876   3.125  10.225  15.980 -0.0552  0.0392  0.0621
28983W        W44877  14.633   0.036   5.631 -0.1147  0.1273 -0.1755
28984W        W44878  12.632  15.360   3.834  0.1766  0.2669  0.0739
28985W        W44879  16.255   9.800  12.688 -0.1462 -0.0031  0.1855
28986W        W44880   6.194   8.904   5.585  0.2249 -0.0573 -0.1244
28987W        W44881  14.081   4.217   4.701  0.0401 -0.1095 -0.0185
28988W        W44882  17.254  14.413  16.025 -0.0013 -0.0493 -0.0512
28989W        W44883   5.346   0.483   4.394  0.0755 -0.0707  0.0555
28990W        W44884  14.334   4.317   1.279  0.0176 -0.0482  0.1811
28991W        W44885  13.946  12.178   4.558 -0.2065 -0.0971  0.1414
28992W        W44886   1.571  11.352   2.892 -0.0652 -0.0471 -0.2160
28993W        W44887   5.388  14.656   2.893  0.0824  0.4026  0.0310
28994W        W44888  14.415  12.639   1.430  0.0607 -0.0553  0.0505
28995W        W44889   6.674   4.748   1.097  0.1581 -0.1115 -0.0578
28996W        W44890   5.169   6.852   1.348  0.1969  0.0708 -0.0188
28997W        W44891   5.922  10.518   5.703  0.1636 -0.2093  0.1687
28998W        W44892   1.733  16.292  16.797 -0.1112 -0.0259 -0.4560
28999W        W44893  13.975  16.286   2.861 -0.1329 -0.2886 -0.1067
29000W        W44894   7.945   3.913  12.951  0.3984 -0.0526  0.0463
29001W        W44895   3.351   5.839  16.253 -0.1730 -0.0944  0.1731
29002W        W44896   1.447   5.237   2.669 -0.2289  0.0656 -0.0608
29003W        W44897   8.594  15.499   3.932  0.0524  0.0750 -0.3627
29004W        W44898   0.858   7.779  15.728  0.2108 -0.2450  0.1973
29005W        W44899   5.976   9.859  16.602 -0.1646 -0.1943  0.1904
29006W        W44900  12.377  16.623   5.688  0.4079 -0.2891 -0.0653
29007W        W44901  14.307   8.882  15.236  0.2881 -0.3344  0.2242
29008W        W44902   6.252   7.199  15.087 -0.1252  0.2444  0.0682
29009W        W44903   6.287   4.932  16.472  0.0875  0.3098  0.0637
29010W        W44904   8.254   0.207   2.847  0.2691  0.1030 -0.0749
29011W        W44905  11.231   2.198   3.438 -0.3057  0.0360 -0.2310
29012W        W44906   6.620   5.730   5.177 -0.2509  0.2149  0.1643
29013W        W44907  14.562   0.514   0.606 -0.0065 -0.0292 -0.1454
29014W        W44908  14.403  11.169  15.285 -0.0786 -0.3441 -0.1849
29015W        W44909   8.633  11.329   5.428  0.1788  0.0587  0.1511
29016W        W44910   0.395   2.166  14.035  0.1203  0.1104  0.0863
29017W        W44911  12.006  13.235   2.692 -0.4031  0.1083 -0.0810
29018W        W44912   5.848  12.248   2.795  0.0528  0.2641  0.0699
29019W        W44913   7.629  13.133  16.476 -0.0789 -0.0902 -0.2756
29020W        W44914  11.784  10.416  15.026  0.2529  0.1502 -0.0922
29021W        W44915   2.442   1.242   5.107 -0.0477  0.2129  0.1082
29022W        W44916   6.856  12.677  16.881  0.0018  0.1462  0.0851
29023W        W44917  17.376   8.194   5.327  0.1637 -0.3121  0.1002
29024W        W44918  10.831   9.236  13.096  0.3432  0.1368 -0.1314
29025W        W44919  12.313   3.359   5.602 -0.0051  0.1161 -0.0000
29026W        W44920   7.741  17.551  16.660 -0.0756  0.0879 -0.3768
29027W        W44921   3.569  16.932  16.472  0.2204 -0.4591  0.0601
29028W        W44922   0.909   2.047   4.064 -0.0841 -0.0077  0.1592
29029W        W44923   5.259   0.616  12.529 -0.1252  0.3393 -0.1698
29030W        W44924   3.654   4.607  14.690  0.0810 -0.3472  0.1213
29031W        W44925   4.355  10.227  15.212  0.1970 -0.1041 -0.1034
29032W        W44926   5.010   1.198   3.267  0.0822 -0.0767 -0.0561
29033W        W44927  13.944   9.998   5.528 -0.1109  0.1233 -0.1387
29034W        W44928   4.834  13.826  15.020 -0.1908 -0.0289  0.1378
29035W        W44929  11.037  11.411   5.890 -0.2176  0.0758  0.2734
29036W        W44930  17.432  14.219   0.654  0.1763 -0.0473  0.2263
29037W        W44931   3.152   9.926   3.117  0.3753  0.3058  0.0926
29038W        W44932  15.435   2.906  12.956  0.0832 -0.0773  0.0898
29039W        W44933  10.558   1.934   1.924 -0.3448  0.0970 -0.2324
29040W        W44934   7.409   2.078   5.085 -0.2657 -0.0671 -0.2326
29041W        W44935  14.070   1.553  12.022  0.0776  0.1357  0.0293
29042W        W44936  14.187  12.443  15.820 -0.0490 -0.2706 -0.1701
29043W        W44937   9.081   2.991  13.939  0.0848  0.0898 -0.0314
29044W        W44938   0.943  11.492  12.688 -0.3870 -0.0523 -0.1238
29045W        W44939  11.907  15.010  14.122 -0.0146 -0.0160 -0.0918
29046W        W44940   2.635  13.824  15.210  0.0492  0.3567 -0.0111
29047W        W44941   7.922  11.210  13.862  0.0324 -0.2199  0.3103
29048W        W44942  11.655   7.000   4.575 -0.1563 -0.1847  0.1083
29049W        W44943  12.780  12.045   0.849 -0.1968  0.0179  0.1822
29050W        W44944  11.224  14.447  13.818  0.1216 -0.3802  0.1155
29051W        W44945   3.782  11.488   3.042 -0.1488  0.1023 -0.0959
29052W        W44946  10.863   9.696  13.639  0.0956  0.0682  0.1029
29053W        W44947  17.173  16.076  12.971  0.1186  0.3654 -0.3002
29054W        W44948   4.450   8.974   2.742 -0.0693  0.0999  0.0916
29055W        W44949  10.591  15.703  15.725  0.1649 -0.2486 -0.0761
29056W        W44950  14.559  15.106  13.555  0.2830 -0.1482 -0.1182
29057W        W44951   5.525  11.720  11.750 -0.0280 -0.2708  0.2769
29058W        W44952   9.809   8.197  12.057  0.0292  0.0796 -0.0199
29059W        W44953   7.913  11.070  12.238 -0.2053 -0.0146 -0.0431
29060W        W44954  10.539  16.760   2.292 -0.2923 -0.0820 -0.2713
29061W        W44955   1.946  11.285   1.937  0.0800 -0.1121  0.0323
29062W        W44956  10.290  15.949  13.041 -0.0798 -0.1977 -0.0427
29063W        W44957   0.249   3.906  14.714  0.0028  0.0204 -0.0025
29064W        W44958   3.491   1.574   0.272  0.2124  0.0892  0.4130
29065W        W44959  17.454  14.716  13.683 -0.3759 -0.2826  0.1511
29066W        W44960  17.404  14.042   1.161  0.0780 -0.1395 -0.3854
29067W        W44961   5.454  14.043  13.035 -0.0069 -0.2087  0.3611
29068W        W44962  16.599   9.869   3.830  0.1731 -0.1146  0.0024
29069W        W44963  12.094   7.454   1.425 -0.0267  0.0068  0.0273
29070W        W44964   9.775   3.620  14.022 -0.1142  0.3333 -0.1819
29071W        W44965   3.610   3.161   1.028  0.1515  0.1951  0.2280
29072W        W44966  12.438   8.026   3.163  0.1757 -0.0451  0.0722
29073W        W44967  12.011   1.858  16.021  0.0172  0.0764  0.2474
29074W        W44968  12.730  13.351   0.133  0.0056 -0.0142  0.1672
29075W        W44969   5.764  14.685   5.553  0.3632  0.0091 -0.3940
29076W        W44970  14.261  11.891   4.314  0.3266  0.0929  0.0846
29077W        W44971   6.319   0.459   0.362  0.0971 -0.0841  0.1690
29078W        W44972   4.546   4.216   3.831 -0.3881 -0.0236  0.2029
29079W        W44973   0.687  12.259  16.856  0.2377  0.0637 -0.1818
29080W        W44974  10.587   4.245   3.601 -0.0406  0.1667  0.2281
29081W        W44975  14.609   9.988  12.338 -0.0671  0.0289 -0.1773
29082W        W44976  17.078   9.020  15.138 -0.1758  0.3647  0.1191
29083W        W44977   7.845   5.233   1.893 -0.1708  0.0263  0.1838
29084W        W44978  14.829  12.521  16.701  0.2905 -0.0703 -0.2650
29085W        W44979  16.309   8.917  14.699  0.3335  0.1377  0.3334
29086W        W44980  15.488  12.450  14.969 -0.2060 -0.3433  0.0232
29087W        W44981  13.985  11.820  12.457 -0.3266  0.2696  0.2156
29088W        W44982  17.059  13.893  12.594  0.1608 -0.0461 -0.2467
29089W        W44983   2.220  14.026  13.559 -0.0153  0.0189  0.1208
29090W        W44984  15.505   8.286  14.175 -0.0753  0.0484  0.2157
29091W        W44985  11.726  12.743   3.625  0.2817  0.2345  0.0977
29092W        W44986   0.363   7.829   3.361  0.3851 -0.0907 -0.2408
29093W        W44987  11.216  13.045   4.466 -0.2631 -0.2743 -0.0525
29094W        W44988   2.200  10.578  15.841 -0.1305 -0.1290  0.0145
29095W        W44989  11.083   0.810  16.032 -0.3708  0.1649  0.2453
29096W        W44990  15.990  14.450  16.881  0.0046  0.2899  0.0140
29097W        W44991  11.824   7.034  16.638 -0.3157  0.3345 -0.1061
29098W        W44992   0.384   1.952  13.470 -0.1628  0.2018 -0.2077
29099W        W44993   2.685   7.910  14.617 -0.4128 -0.0858 -0.0262
29100W        W44994  17.395  10.666   1.056 -0.0787 -0.0483  0.0474
29101W        W44995  12.971  16.740   4.708 -0.0626 -0.1247 -0.0171
29102W        W44996   6.988   7.100   2.423  0.2605 -0.1866 -0.3276
29103W        W44997  11.319  14.135   4.143 -0.1894 -0.1553 -0.1189
29104W        W44998  13.200   0.127   5.236  0.0097 -0.0081 -0.1630
29105W        W44999   4.891   5.984   5.136 -0.0023  0.1487 -0.1019
29106W        W45000  13.114   8.160   5.740  0.2902 -0.1161  0.1800
29107W        W45001   4.023  14.109  11.886  0.0451  0.0668 -0.0469
29108W        W45002  14.692  10.009   2.622 -0.1766 -0.3676 -0.0877
29109W        W45003   8.516  17.186  16.243 -0.1705  0.2163 -0.2157
29110W        W45004   9.135   5.216  16.436  0.0825 -0.0302 -0.0380
29111W        W45005  15.374   5.815   0.424 -0.0007 -0.2034  0.2247
29112W        W45006   2.176  13.806  11.753 -0.0400  0.0727  0.1043
29113W        W45007   4.676  13.796  10.548  0.3678  0.0651 -0.1606
29114W        W45008   7.835   9.272  15.771 -0.0344 -0.0229  0.2016
29115W        W45009  15.048   3.980   4.688  0.0162 -0.0082 -0.1911
29116W        W45010  10.034   6.439   0.292  0.0121  0.2086 -0.1470
29117W        W45011  13.522  15.422   2.077  0.2328 -0.0964 -0.2483
29118W        W45012  17.845   5.140   5.783 -0.3399  0.0896  0.3874
29119W        W45013   0.673   4.268   2.802  0.0824 -0.2276  0.1292
29120W        W45014  13.104  15.525   4.601 -0.1021 -0.2147  0.0541
29121W        W45015   4.284  13.981  11.415  0.3417 -0.0511 -0.1995
29122W        W45016   4.623   4.593  13.500  0.1089 -0.2075  0.0005
29123W        W45017   5.243   6.531  12.705 -0.2116 -0.0848  0.0092
29124W        W45018  17.513   7.738   1.341  0.0891 -0.0484 -0.0129
29125W        W45019  13.368  11.303   2.763  0.1191 -0.0236  0.0076
29126W        W45020   3.804   1.102   2.768 -0.2957  0.2389 -0.0281
29127W        W45021  10.542  10.813  12.050  0.4927 -0.0147  0.0716
29128W        W45022   9.500   4.803   0.612 -0.1610  0.0979  0.3157
29129W        W45023   7.870  13.466   5.891  0.2127  0.2268 -0.0525
29130W        W45024   6.908   7.491   4.301  0.1136  0.3551  0.2696
29131W        W45025   5.912   3.138  13.192 -0.0113  0.0192  0.0214
29132W        W45026   3.588   5.111  14.881 -0.1374  0.0388 -0.0919
29133W        W45027   4.256   9.533  14.748 -0.0385  0.4522 -0.3208
29134W        W45028   0.373   8.032  15.955  0.1370  0.0824 -0.0687
29135W        W45029   9.594   4.230  10.506  0.0734 -0.3022  0.0131
29136W        W45030   5.669   0.376   4.024 -0.1268  0.0004 -0.1502
29137W        W45031   5.687  10.152   3.587 -0.0269  0.0376  0.1818
29138W        W45032  16.773  15.901  15.428 -0.0384  0.1865 -0.1179
29139W        W45033   5.622   9.467  14.851  0.2872 -0.1180 -0.2078
29140W        W45034   2.433  14.319   4.625  0.1612  0.0861 -0.0240
29141W        W45035   4.694  11.152   4.103  0.2895 -0.0821  0.2450
29142W        W45036  10.926  15.410  11.946 -0.1706 -0.1825  0.3752
29143W        W45037   8.742  14.274  16.742  0.2510 -0.3427 -0.3744
29144W        W45038  17.219   5.981   0.775  0.1845  0.0070 -0.2034
29145W        W45039   6.014   6.058   3.469 -0.0545  0.0761  0.1641
29146W        W45040   3.167   5.109  14.189  0.0440 -0.0030  0.1362
29147W        W45041   9.369   8.212   2.741 -0.1218 -0.1488 -0.1896
29148W        W45042   0.014   7.797   3.819 -0.3844  0.1983 -0.1079
29149W        W45043  10.189  11.886   0.359  0.2216  0.3797 -0.2273
29150W        W45044  13.381  13.228   0.837 -0.2947 -0.0810  0.1390
29151W        W45045  16.576   3.539   3.799  0.0317  0.0111 -0.0631
29152W        W45046   9.665   5.112   4.459  0.1054 -0.1323 -0.0903
29153W        W45047   6.730  16.419  13.235  0.0144  0.1394 -0.0132
29154W        W45048  10.461   0.040   1.702  0.2331 -0.0676  0.2440
29155W        W45049   2.150   9.904   3.937 -0.1194  0.1118  0.0296
29156W        W45050   7.752   6.884  16.245 -0.2040  0.3210  0.0329
29157W        W45051   5.360   6.237  14.687  0.0100  0.2979 -0.2532
29158W        W45052  14.532  11.119  12.933 -0.2028 -0.2033  0.0320
29159W        W45053  13.031  10.880  12.589  0.3944  0.1151 -0.2979
29160W        W45054   5.668   0.176  14.460 -0.0355  0.1481  0.0987
29161W        W45055   4.063   4.427  14.421  0.3228  0.0187  0.3661
29162W        W45056  10.677   7.919   5.298  0.0781 -0.0824  0.2050
29163W        W45057   4.519  14.809   1.312 -0.1801  0.1513 -0.0005
29164W        W45058   2.676   1.222   4.672 -0.1120 -0.1565  0.2251
29165W        W45059   8.414   0.607   4.393 -0.1147 -0.1990  0.3048
29166W        W45060  14.870  12.071   4.270  0.0373  0.0478 -0.0057
29167W        W45061   8.078   3.367   4.018 -0.2392  0.3980  0.3242
29168W        W45062  13.623   6.967  14.858  0.1314 -0.0174 -0.0770
29169W        W45063   6.774   3.669   4.752  0.1025 -0.0195 -0.0862
29170W        W45064  13.467   2.321   1.132  0.1579  0.0437 -0.2021
29171W        W45065  10.959   0.405  14.503 -0.0857  0.1339  0.0435
29172W        W45066   7.634  10.160  14.727  0.1090 -0.0160 -0.1055
29173W        W45067  16.293  13.179  12.581  0.3126  0.1944 -0.0948
29174W        W45068  14.304  12.677  16.653 -0.1070  0.1519  0.0419
29175W        W45069   3.707  14.967   0.020 -0.1962 -0.1334  0.0476
29176W        W45070   0.197  12.401   1.462 -0.0151  0.2265 -0.0383
29177W        W45071  13.994   6.321   2.876  0.0298  0.1294  0.1514
29178W        W45072   9.759   6.001  14.066 -0.0103 -0.1314 -0.0031
29179W        W45073  15.017  15.776   4.399 -0.1332 -0.2131  0.1643
29180W        W45074  13.629  11.408   4.561 -0.1291 -0.0511 -0.0308
29181W        W45075   7.652   4.546  14.365  0.1382 -0.0703 -0.0103
29182W        W45076   8.771   2.005   5.817 -0.1458 -0.1829 -0.0990
29183W        W45077   7.063   2.417  16.676  0.1146  0.1941 -0.2898
29184W        W45078   2.264   2.700   2.041 -0.0185  0.0569  0.3107
29185W        W45079   7.164  13.389   1.195  0.1059 -0.1518 -0.0255
29186W        W45080  10.717   1.389   0.748  0.2455 -0.0151  0.1357
29187W        W45081  14.206   5.514  15.918 -0.0736 -0.0392 -0.1082
29188W        W45082  14.870   0.655  14.766  0.2990 -0.0780 -0.0578
29189W        W45083   6.975   6.216  12.770  0.1047 -0.2361 -0.1643
29190W        W45084  14.544   2.889  12.184  0.2033  0.0033 -0.2104
29191W        W45085  15.420   6.237   6.163 -0.2729  0.0274  0.0491
29192W        W45086  12.665   1.346  12.187 -0.0118 -0.0732  0.0596
29193W        W45087   1.588   1.990  16.045 -0.3531 -0.0733  0.0510
29194W        W45088  10.714  13.246  15.949 -0.1498 -0.1124 -0.1278
29195W        W45089   8.406   5.587  15.779  0.1296  0.0576  0.0099
29196W        W45090  10.508   9.713  13.286  0.1786 -0.0372 -0.0075
29197W        W45091  13.249  14.669  14.674  0.2273 -0.0442 -0.1146
29198W        W45092  11.369  11.081  15.321  0.1397  0.0936 -0.1211
29199W        W45093  12.641  11.112   3.048 -0.0150 -0.1770 -0.2422
29200W        W45094  17.396  12.064  15.690  0.1333 -0.1552 -0.0231
29201W        W45095   9.620   8.815   3.424  0.0753 -0.3081  0.0657
29202W        W45096   3.941  15.916   3.980  0.0732 -0.0921  0.2507
29203W        W45097   1.904  12.137   2.968  0.0255  0.1267  0.0880
29204W        W45098   5.286  12.053  15.656  0.0142  0.0466  0.0206
29205W        W45099   4.496  17.536   1.717 -0.0433 -0.1100  0.2044
29206W        W45100  13.940  11.061   2.255 -0.1985 -0.0634 -0.2215
29207W        W45101  13.035  15.609   0.487 -0.1155  0.1069 -0.1912
29208W        W45102   2.609   4.998  15.473 -0.0164  0.0217  0.0631
29209W        W45103   5.624   2.430  14.817 -0.1305 -0.1719  0.1574
29210W        W45104   1.573  12.124  13.757 -0.3168 -0.0394  0.1677
29211W        W45105  11.474  14.992   1.479  0.0636  0.0512 -0.2126
29212W        W45106  17.118   3.407  14.080 -0.2381 -0.2010  0.0670
29213W        W45107   0.068   9.314  13.178  0.0639 -0.2304  0.2215
29214W        W45108   8.364   4.505  12.451  0.3034 -0.0529 -0.0111
29215W        W45109  10.959   1.414   2.670 -0.0030  0.2590 -0.0675
29216W        W45110   3.834  10.185   0.880 -0.2044  0.0391  0.2156
29217W        W45111   4.140   0.312   0.529  0.1615 -0.0599  0.2393
29218W        W45112   8.425  10.197   5.514  0.0374 -0.0167  0.2281
29219W        W45113   0.144  14.928  15.957  0.0118  0.0917  0.2683
29220W        W45114   2.951   0.059  15.038  0.2044 -0.1446  0.2117
29221W        W45115   7.770  15.461  14.561  0.0162 -0.2733  0.2529
29222W        W45116  10.954  15.205  16.446 -0.1744  0.1625 -0.2675
29223W        W45117  12.253   5.431   2.526 -0.1943 -0.4807  0.0710
29224W        W45118  15.897  11.484   3.461  0.2039 -0.2270 -0.1597
29225W        W45119   2.725  11.442  11.795  0.2957  0.2431 -0.0363
29226W        W45120   6.969  13.068  11.420 -0.2653 -0.1675 -0.1221
29227W        W45121   5.200   8.320   1.010  0.1818 -0.0661 -0.0993
29228W        W45122   0.887   5.555  15.933  0.0994  0.0249 -0.1905
29229W        W45123   0.847  16.120  13.597  0.2751  0.2541  0.1027
29230W        W45124   2.224   0.455  12.848 -0.1033 -0.1248 -0.1478
29231W        W45125  10.566  10.209   2.733  0.0768  0.0743 -0.0607
29232W        W45126  12.238   9.241   2.568  0.1283 -0.0031 -0.3077
29233W        W45127   1.610  17.383   4.154 -0.0891  0.2322 -0.0637
29234W        W45128  12.109   9.226   0.303 -0.3105  0.3266  0.1059
29235W        W45129   4.074  17.333   3.908  0.1412 -0.0667  0.0407
29236W        W45130  10.431   0.504   0.502 -0.1987 -0.1694 -0.0630
29237W        W45131   5.934   8.409   1.716 -0.1405 -0.0190 -0.0264
29238W        W45132  14.904  13.782  13.355  0.0911 -0.2471  0.0649
29239W        W45133   8.811   9.951   4.453 -0.1554 -0.4652  0.0729
29240W        W45134   1.512   4.387  12.541  0.3136  0.2852 -0.1611
29241W        W45135   1.695   9.332  13.112  0.0241 -0.0965 -0.2340
29242W        W45136  17.825  15.770  15.030  0.1121 -0.0783 -0.0318
29243W        W45137  14.775  13.027   3.734 -0.1123  0.2242  0.2479
29244W        W45138   9.730  11.497   2.763  0.1198 -0.2727 -0.2424
29245W        W45139  16.415  13.120  15.860  0.0484 -0.1516  0.0707
29246W        W45140  14.728  12.435  12.248  0.1630 -0.0600 -0.1663
29247W        W45141  10.726   9.704   2.721 -0.4651  0.1123  0.1324
29248W        W45142  11.564   9.604  16.062  0.3109 -0.0886 -0.0871
29249W        W45143  14.088   7.871  16.774  0.2377 -0.2240  0.0875
29250W        W45144  11.958   5.875   4.304  0.3835 -0.0097 -0.0739
29251W        W45145  10.082  12.325  13.305 -0.0260  0.1050  0.3826
29252W        W45146  15.432  14.494  12.179 -0.0009 -0.0140  0.0231
29253W        W45147   0.923  16.966   5.306  0.0085  0.1765 -0.2586
29254W        W45148  10.080   9.419  12.310 -0.0609  0.0863  0.0101
29255W        W45149  12.245  16.361   4.618  0.0063  0.0157 -0.0908
29256W        W45150   3.826   0.240   1.463  0.1464 -0.0846 -0.1397
29257W        W45151  17.742   1.052  16.735 -0.1428  0.0113 -0.1158
29258W        W45152   2.684   7.611   5.288  0.1277  0.2708 -0.1715
29259W        W45153   4.387   0.279  14.742  0.2351  0.1173  0.0406
29260W        W45154  14.096  15.603   3.686 -0.1654  0.0740 -0.0082
29261W        W45155  15.439   0.027  14.653 -0.3168 -0.1393 -0.1758
29262W        W45156  12.987   6.748   3.314 -0.0449  0.1086  0.0267
29263W        W45157  15.198  17.379   5.273  0.0253  0.0760  0.0261
29264W        W45158   0.746  13.044   3.627  0.1441 -0.0506 -0.2788
29265W        W45159   1.879  17.521  11.213 -0.0946  0.0767 -0.0698
29266W        W45160   4.258   0.956   0.497  0.1195 -0.3492  0.0796
29267W        W45161   3.450   0.724   2.947 -0.2458 -0.1589 -0.0894
29268W        W45162  12.753  10.651   3.202  0.2864  0.1304  0.0385
29269W        W45163   0.235  13.395  14.696  0.1692  0.0287  0.0406
29270W        W45164   6.914  13.146   3.626 -0.1419  0.1330 -0.0345
29271W        W45165   0.736  13.064  13.462 -0.0516  0.0205 -0.3823
29272W        W45166   9.084  17.122  12.721 -0.0961 -0.0589  0.1760
29273W        W45167  13.276   4.234  16.126 -0.2768  0.0020  0.2917
29274W        W45168  10.318   7.511   3.809 -0.1352 -0.0256 -0.1224
29275W        W45169  16.235  17.652   0.849 -0.4766  0.0021 -0.1765
29276W        W45170  16.113   7.247   4.859  0.0748 -0.2400 -0.0766
29277W        W45171  16.763  16.826  14.666  0.1009 -0.0612 -0.2320
29278W        W45172   9.026   2.415   0.047 -0.0672  0.0121 -0.1231
29279W        W45173  16.751  10.911   4.631 -0.1804  0.0080 -0.1762
29280W        W45174   7.215  16.522  13.077 -0.1127 -0.0672  0.3982
29281W        W45175  10.804   6.886   3.414  0.2747 -0.1408  0.1259
29282W        W45176   9.912   5.474  16.206  0.1722 -0.0046 -0.1744
29283W        W45177   2.756   2.637   1.182 -0.3805  0.3927  0.0073
29284W        W45178   6.562   4.684  16.755 -0.1149  0.2243 -0.0221
29285W        W45179   7.356  15.565   1.900  0.0994  0.0800 -0.0250
29286W        W45180   6.572   5.122   2.241  0.0079  0.2290  0.0198
29287W        W45181  12.247  16.705  16.919  0.3072 -0.0078  0.3147
29288W        W45182   1.261   7.751   5.709  0.1327  0.0062 -0.0491
29289W        W45183  16.344  11.548   5.632  0.2261  0.2796 -0.0752
29290W        W45184   9.253   2.576   3.705  0.0831  0.0876 -0.3092
29291W        W45185  11.946  17.631  16.637  0.0554  0.2027 -0.1262
29292W        W45186  15.320   1.949  16.391 -0.1116  0.0458  0.0664
29293W        W45187  15.430   5.998   4.660  0.1843  0.1806  0.5175
29294W        W45188  17.332   5.322   4.682 -0.0115 -0.1050 -0.0872
29295W        W45189  11.734  16.537  13.082 -0.2194  0.1233 -0.0562
29296W        W45190  13.834  10.596  13.252  0.2283 -0.0404 -0.0839
29297W        W45191   0.233   9.620   4.046  0.1887 -0.2004  0.0154
29298W        W45192  13.958   2.487   1.880  0.0757 -0.2442 -0.1300
29299W        W45193  11.835  10.294   3.381 -0.1800 -0.0216  0.0178
29300W        W45194  11.671   7.030   5.081 -0.1102 -0.0326  0.2064
29301W        W45195  14.699   5.472   5.721  0.0169 -0.1398 -0.1854
29302W        W45196   5.627   5.576  15.032 -0.1384  0.0423  0.0194
29303W        W45197   0.921  17.062  12.559  0.0315  0.2472  0.2062
29304W        W45198   0.512   9.970   2.275 -0.0863  0.2082  0.0187
29305W        W45199   9.991  13.260  16.493  0.0853  0.1129 -0.1775
29306W        W45200  15.237  13.095   3.218  0.2686 -0.1406 -0.1928
29307W        W45201  13.092   6.757  16.158 -0.1635 -0.0538  0.3191
29308W        W45202   9.401   7.166  13.374 -0.1160  0.0028 -0.0955
29309W        W45203  16.938  10.644   5.073  0.0754  0.0607 -0.1700
29310W        W45204  12.081  14.609   4.026  0.0504  0.2026 -0.3203
29311W        W45205  10.912   3.261   4.962  0.0623  0.2674  0.2118
29312W        W45206   2.666  13.622   4.090 -0.0174 -0.0840  0.0413
29313W        W45207  13.879  10.555   2.324  0.1178  0.3157 -0.2832
29314W        W45208   3.251  15.453  14.767  0.0397  0.1814 -0.2422
29315W        W45209   6.177   5.897  15.686  0.0060 -0.3779 -0.0649
29316W        W45210  12.502  17.402  11.973 -0.0156 -0.2347  0.2424
29317W        W45211   5.738   3.771  11.299 -0.2072 -0.1800 -0.2691
29318W        W45212   9.521   1.436   4.739  0.2157 -0.0400 -0.0790
29319W        W45213   8.580  16.750   4.863  0.0523  0.0694 -0.1822
29320W        W45214  14.337  14.279   3.451 -0.1248  0.2140 -0.1505
29321W        W45215   7.001   4.878  16.486 -0.2112  0.2381 -0.2765
29322W        W45216  11.873  17.281  15.628  0.1008  0.3202  0.0596
29323W        W45217   1.578  13.560   2.959 -0.3411 -0.0196 -0.1927
29324W        W45218  13.316   6.006  15.543 -0.1061  0.2072 -0.0463
29325W        W45219   4.365   9.582   0.418 -0.1519  0.3918  0.0088
29326W        W45220   8.661   3.695   0.202 -0.1070  0.2586 -0.1050
29327W        W45221   2.477  15.469  15.245 -0.2591 -0.1730  0.0228
29328W        W45222  14.683   7.877   5.135 -0.2257  0.0656  0.1204
29329W        W45223   0.991  16.845   1.555  0.3783 -0.0094 -0.2091
29330W        W45224   3.752   2.639   3.687  0.0132  0.0294  0.1295
29331W        W45225   8.789   3.045  14.966  0.0298  0.3248 -0.1490
29332W        W45226   7.164  17.519  13.450 -0.0825 -0.0001  0.0768
29333W        W45227  15.042  15.835  14.953 -0.2490 -0.1917  0.1638
29334W        W45228   1.475   4.848   0.902  0.0749 -0.1555  0.0718
29335W        W45229   0.327   5.044  14.845  0.1605 -0.0427  0.1129
29336W        W45230   2.010   7.674  12.397 -0.1551  0.1494 -0.0310
29337W        W45231   1.313   7.158  14.665 -0.4037 -0.1770 -0.0067
29338W        W45232   4.885   9.117  13.565  0.2916  0.2238 -0.0711
29339W        W45233  11.764   1.366  13.353 -0.0708  0.2431 -0.3571
29340W        W45234   6.795  12.722   5.362 -0.0241  0.0778 -0.0941
29341W        W45235   8.228  17.569  16.168  0.0898 -0.2337 -0.1038
29342W        W45236  17.348   9.925   4.963 -0.3435  0.1698  0.2864
29343W        W45237  15.757  10.751  13.599 -0.0464 -0.2388 -0.0649
29344W        W45238   7.536   7.349   1.089 -0.1767 -0.4096 -0.0031
29345W        W45239  16.957   2.419  14.192 -0.1451  0.4540 -0.0490
29346W        W45240  17.411  13.293   0.058  0.2773 -0.2494 -0.0245
29347W        W45241   9.295  14.982  16.771  0.0303  0.0447  0.0187
29348W        W45242  10.091  17.332  16.100 -0.3528 -0.1304 -0.3583
29349W        W45243  15.556   3.612  13.719  0.1234  0.0890 -0.2365
29350W        W45244   8.024  17.342   2.479  0.0349  0.1929 -0.1403
29351W        W45245   9.261  16.905  15.090 -0.1383  0.2095  0.0979
29352W        W45246   3.709  14.089  13.782 -0.0398  0.2825 -0.0427
29353W        W45247   2.287  11.835  14.716  0.1607 -0.0368  0.2904
29354W        W45248  16.199   0.377   2.390  0.0498  0.0643  0.3013
29355W        W45249   3.485  11.433  12.963 -0.0823 -0.1447 -0.0640
29356W        W45250  11.774   5.724  12.807  0.1817  0.0492  0.1749
29357W        W45251  11.572   8.080  14.240 -0.0764  0.2110 -0.2940
29358W        W45252  15.874   9.593   3.573  0.0786  0.0324  0.2268
29359W        W45253   1.689  16.713   3.617  0.3715 -0.1683 -0.0238
29360W        W45254  13.077  16.953   5.892  0.2540 -0.0865 -0.2571
29361W        W45255   8.999   0.134  14.389 -0.1403  0.1246 -0.0617
29362W        W45256  13.991  13.908   1.052  0.1112  0.0199 -0.0561
29363W        W45257   1.935   5.624  13.457 -0.0304  0.2762 -0.1622
29364W        W45258  14.270   0.648   3.924  0.1755  0.1745 -0.0295
29365W        W45259  13.632   7.302  15.263 -0.2136  0.1431  0.0590
29366W        W45260  12.177  12.227   1.470 -0.0511 -0.0388 -0.1170
29367W        W45261   8.006   1.899  13.788  0.3702 -0.1617  0.4627
29368W        W45262  13.021   2.551   1.053  0.1325 -0.1924 -0.4008
29369W        W45263  15.087  15.263   1.401  0.0195  0.0190  0.0306
29370W        W45264  11.242   6.717   3.155 -0.0863  0.1546 -0.0954
29371W        W45265  10.842   7.138  12.265  0.0830  0.1342  0.0533
29372W        W45266   4.386   7.850  16.466  0.2107  0.2140  0.1664
29373W        W45267  16.838   3.495  14.574 -0.0363 -0.0121  0.0615
29374W        W45268  14.585  12.392   5.049 -0.0229 -0.1839  0.2199
29375W        W45269  17.656   3.865  16.160  0.1394 -0.1605 -0.0629
29376W        W45270   3.175   5.130   2.274 -0.0040  0.1961 -0.1430
29377W        W45271  17.472   8.457  13.517  0.0680 -0.0893  0.0866
29378W        W45272  10.764   6.043   2.643  0.2089 -0.1046  0.2221
29379W        W45273   6.365   4.400   6.069 -0.0420 -0.0576 -0.0254
29380W        W45274  13.502  11.035   4.318  0.1976 -0.1762  0.1120
29381W        W45275   8.058  17.369  14.457 -0.0013 -0.0400 -0.0586
29382W        W45276  10.702  11.311  14.702 -0.1982 -0.1245 -0.2792
29383W        W45277  13.976   6.657   2.052  0.1917 -0.0971 -0.0211
29384W        W45278  17.097   3.387   2.068 -0.3394  0.0556  0.4016
29385W        W45279   1.116   2.511   0.360 -0.0534 -0.1974  0.1634
29386W        W45280   9.092   5.126  13.353 -0.1081 -0.3562  0.1723
29387W        W45281   2.020  15.860   4.857 -0.0648  0.3794  0.3811
29388W        W45282   7.788  10.959  15.214  0.0484  0.0315  0.2121
29389W        W45283   9.651   9.658   1.622  0.1680 -0.3334 -0.0809
29390W        W45284  15.252   3.802   3.192  0.1526  0.0439 -0.1109
29391W        W45285  17.398   2.529  14.818 -0.1076 -0.0067 -0.3198
29392W        W45286   4.843   6.643   0.145  0.0482 -0.0790  0.2061
29393W        W45287   8.417   3.428   3.197  0.2496 -0.1690  0.4071
29394W        W45288  10.930   8.519  14.112  0.0243  0.3239 -0.0933
29395W        W45289  12.671   9.180  14.520  0.0569 -0.4255 -0.0637
29396W        W45290   1.050  13.186   4.311  0.0053  0.0555 -0.0462
29397W        W45291   2.134   7.816   3.671 -0.1452  0.1270  0.2311
29398W        W45292  11.349   5.965   3.628  0.0393 -0.0498  0.0092
29399W        W45293   7.669   8.273   6.455  0.1019  0.2526 -0.1000
29400W        W45294   5.454   0.815   4.747 -0.3295  0.1512  0.0252
29401W        W45295   1.481  16.187  15.891  0.2528  0.0838  0.1097
29402W        W45296  12.812   4.388  11.768  0.0183 -0.1747 -0.1624
29403W        W45297  15.987  15.392   0.269 -0.1612 -0.3423  0.0754
29404W        W45298   3.216   1.889  15.404 -0.2342  0.0670  0.1443
29405W        W45299  17.384   6.067   3.988  0.1051 -0.2123  0.0696
29406W        W45300   6.244  11.442  16.467  0.0031  0.0010  0.3239
29407W        W45301  15.737  10.402   3.603 -0.0575 -0.0576 -0.1238
29408W        W45302  15.736   5.982  16.039 -0.0182  0.0495  0.4356
29409W        W45303  13.219   5.258  13.334  0.1856 -0.1242 -0.0658
29410W        W45304   7.376   3.308   0.919  0.1250 -0.1465  0.4082
29411W        W45305   1.995  17.280  14.384  0.2363  0.3781  0.1266
29412W        W45306   8.566  15.336   5.674 -0.2635 -0.1054 -0.1795
29413W        W45307  17.603  10.546  14.925 -0.0839  0.0084  0.1670
29414W        W45308   5.408  10.861  15.923  0.0656  0.0664  0.0536
29415W        W45309   6.240   5.751  12.430 -0.0067  0.0431 -0.1329
29416W        W45310   8.767   4.832   5.199  0.0061  0.1691 -0.0683
29417W        W45311  15.566   2.909   2.593  0.0248  0.3265 -0.3076
29418W        W45312   1.495  17.368  14.631  0.0181  0.2324 -0.3860
29419W        W45313  11.071   0.447   4.838 -0.3167  0.4818 -0.2684
29420W        W45314   0.035   5.805   4.563 -0.2296  0.0522 -0.1754
29421W        W45315  16.522  14.223   3.193  0.2539  0.1372 -0.0888
29422W        W45316   4.059  10.790   3.132  0.1407 -0.1855  0.0227
29423W        W45317   7.880   3.549  14.598 -0.2385  0.4585  0.3068
29424W        W45318   1.526  13.817  10.915  0.0248 -0.3093 -0.0424
29425W        W45319  11.873  14.568  16.151 -0.4235 -0.1655  0.2802
29426W        W45320  15.528   1.159  12.379  0.2786 -0.1058  0.0031
29427W        W45321  16.086  17.842   3.778 -0.1549 -0.1196  0.1354
29428W        W45322   8.415   4.268   3.677  0.1823 -0.1286  0.2827
29429W        W45323  15.653  13.789  16.612  0.2331 -0.0739  0.0651
29430W        W45324   5.715   5.482  16.695 -0.1035 -0.0350 -0.3192
29431W        W45325  16.315  16.477   1.998 -0.3467 -0.2391  0.0471
29432W        W45326   8.909   9.295   3.492 -0.1978  0.0523 -0.1618
29433W        W45327   2.826   5.021  15.013 -0.1928 -0.3192  0.1681
29434W        W45328   9.650  15.060  11.750 -0.1954 -0.3402  0.1008
29435W        W45329   2.098   2.278   1.775  0.0416  0.0815  0.0890
29436W        W45330   4.943   3.837  13.640  0.0934  0.0424 -0.1780
29437W        W45331   3.005   8.792  12.135 -0.1943  0.1471  0.1732
29438W        W45332   6.274   5.502   1.465 -0.1424  0.3274 -0.2374
29439W        W45333  15.278   5.624   9.996  0.1535 -0.1070 -0.0168
29440W        W45334  10.053   1.056  11.820  0.2200  0.1951 -0.2221
29441W        W45335  12.541  13.357   2.721  0.0144  0.0032 -0.2400
29442W        W45336  13.495   9.985   0.413  0.3435 -0.3368 -0.2818
29443W        W45337   0.560  12.179  13.956 -0.1142  0.0099  0.1461
29444W        W45338  10.498  16.231   0.009  0.0540  0.1471  0.0317
29445W        W45339   5.339   6.228   4.773 -0.0906  0.0025  0.0266
29446W        W45340  15.608  14.491  13.658 -0.0665 -0.0200 -0.0229
29447W        W45341   1.332   2.168   0.733 -0.0953  0.1912  0.1863
29448W        W45342   4.522   6.689   3.514  0.0254  0.0437  0.3322
29449W        W45343  11.166  12.589  16.911  0.0632  0.1028  0.2311
29450W        W45344   0.885   2.107   2.495  0.0062  0.3495  0.3256
29451W        W45345  14.069   8.907  15.671  0.0976  0.1459 -0.0363
29452W        W45346  15.500   3.334   3.499 -0.0526 -0.1886  0.1854
29453W        W45347  16.382   8.347  15.301 -0.0001  0.0465 -0.1392
29454W        W45348  13.757   1.429   3.907  0.3074  0.3537 -0.1266
29455W        W45349   2.750   9.119   5.381  0.2544  0.2885  0.1607
29456W        W45350   4.344   7.810  12.830  0.2298  0.2773 -0.3340
29457W        W45351   0.719   8.920  16.134  0.2936 -0.2409  0.4068
29458W        W45352  16.585  11.275   6.008  0.4385 -0.0877 -0.0520
29459W        W45353  11.390  17.387  13.358 -0.0995  0.1551  0.0672
29460W        W45354  10.205   2.344   2.967 -0.0944 -0.0328 -0.1247
29461W        W45355  12.385  16.992   4.101  0.1384 -0.0770 -0.1787
29462W        W45356  13.922  17.461   5.054  0.0271  0.0750 -0.1593
29463W        W45357  10.999   9.734   4.271  0.2061  0.0652 -0.1179
29464W        W45358  16.966   0.549   2.318 -0.2112 -0.1578  0.1859
29465W        W45359  11.089  12.153  13.862 -0.0835  0.0567 -0.0894
29466W        W45360   7.716   5.253   4.219 -0.1692  0.3706  0.1264
29467W        W45361   9.534  15.384  13.335  0.0086  0.0172 -0.1634
29468W        W45362  13.342   2.548   5.325 -0.1367 -0.2376 -0.1880
29469W        W45363   0.390   2.506   2.777 -0.0281 -0.1682 -0.1141
29470W        W45364  13.464  14.974  13.270  0.0579 -0.2754 -0.3382
29471W        W45365   4.342  14.965   0.305  0.1803 -0.0231  0.3384
29472W        W45366   9.105  10.548   5.385  0.0507 -0.0004  0.1038
29473W        W45367  16.259  12.202   0.033  0.1182 -0.2264 -0.0859
29474W        W45368   3.428  11.855  12.610  0.0750  0.0994 -0.1748
29475W        W45369  13.155   8.662   1.101  0.0477 -0.0083 -0.0804
29476W        W45370   9.308  16.393  14.971  0.3640 -0.0161  0.0219
29477W        W45371  15.903  13.595   1.243 -0.0344 -0.1322  0.0158
29478W        W45372   6.865   1.209   2.995 -0.1072 -0.0536 -0.2154
29479W        W45373  14.780   0.197   0.904 -0.1402  0.1619 -0.2420
29480W        W45374   4.176   3.715  15.549  0.0704  0.1614 -0.2894
29481W        W45375  14.970   4.368   4.322  0.2702 -0.0527 -0.0456
29482W        W45376  10.373  17.222   2.995  0.0084 -0.0584 -0.1608
29483W        W45377   9.980   0.016  13.594 -0.1787 -0.0010  0.0063
29484W        W45378   6.043  16.031   3.595  0.3958 -0.0750  0.0857
29485W        W45379  10.490  14.155   1.078 -0.1291 -0.1499  0.1488
29486W        W45380   9.665  10.505  14.547 -0.2308  0.1528 -0.0031
29487W        W45381  15.672   8.621   2.050  0.1189 -0.1890 -0.1223
29488W        W45382  15.999  10.627  13.201  0.1921  0.3853  0.3083
29489W        W45383   6.414  14.358   3.010  0.2606  0.0694 -0.1953
29490W        W45384   6.276   9.869  13.527 -0.4605 -0.0202 -0.2784
29491W        W45385  17.292  13.375  14.734 -0.3101  0.0542  0.1675
29492W        W45386  11.562   9.186  13.834  0.2436 -0.3326 -0.0889
29493W        W45387   5.565   9.077  12.766  0.1099  0.4845 -0.0160
29494W        W45388   9.110   8.180   0.177 -0.1213 -0.1555  0.0475
29495W        W45389   7.293  12.885  12.696  0.1811  0.0457 -0.1425
29496W        W45390  17.044   2.317   3.090  0.1283  0.0290 -0.2894
29497W        W45391   4.166  17.703   1.417 -0.2266 -0.2585  0.3805
29498W        W45392  11.394  10.998   2.196  0.2346 -0.2079 -0.1257
29499W        W45393   5.642  14.648  12.543  0.1312  0.2409 -0.2022
29500W        W45394   1.499   3.443  13.041  0.0086 -0.1749 -0.0159
29501W        W45395  15.107   0.784   0.176  0.0385  0.2196 -0.4535
29502W        W45396  15.157  17.156  15.002  0.1226  0.3598 -0.1502
29503W        W45397   4.257   2.248   1.903  0.1508  0.2558 -0.1140
29504W        W45398  14.840   8.372   1.681  0.1734 -0.2489 -0.2774
29505W        W45399  15.344   7.089   4.212 -0.2879 -0.0876 -0.1779
29506W        W45400  10.673   4.623   0.006  0.4058 -0.0280 -0.2091
29507W        W45401  10.693  17.045   0.586 -0.0674 -0.1405 -0.2998
29508W        W45402   1.459   2.211  14.720 -0.2647 -0.1242  0.1847
29509W        W45403  11.555   6.443  15.583  0.0224  0.1608 -0.0682
29510W        W45404   4.064  13.857  16.374  0.3299  0.1442  0.2216
29511W        W45405  11.909   3.683  14.519  0.0813  0.0354 -0.0217
29512W        W45406  13.350  15.850   1.788  0.0615  0.2552 -0.1288
29513W        W45407   1.319  14.565   2.933  0.2230  0.2313  0.1360
29514W        W45408  10.611   1.515  11.973 -0.0913 -0.0922  0.1905
29515W        W45409  17.215   4.302   2.161  0.1598 -0.1322  0.1745
29516W        W45410   1.897   5.111   1.151  0.4200  0.3143 -0.1242
29517W        W45411  16.190   2.227  11.360 -0.0459  0.0428 -0.4159
29518W        W45412   9.440   7.225   6.451 -0.1102 -0.1710 -0.1254
29519W        W45413   8.420   6.241   6.121 -0.0460  0.0899 -0.0212
29520W        W45414   0.470   2.176   3.179  0.2447 -0.1452  0.1541
29521W        W45415   2.697   9.134  16.644 -0.0442 -0.0301  0.0678
29522W        W45416  15.287   1.229  15.775  0.1816  0.0035  0.1738
29523W        W45417   2.662   7.206  12.923 -0.2076 -0.0167 -0.2324
29524W        W45418  11.219   7.269  13.688 -0.3624  0.0616  0.0932
29525W        W45419   1.759  16.213   3.642  0.3477  0.1403  0.0779
29526W        W45420  13.832   1.622  12.489  0.0236  0.0354 -0.1660
29527W        W45421   4.420   6.923   0.242  0.0882  0.0605 -0.0823
29528W        W45422   3.646  10.977  12.750 -0.3402  0.0142  0.3039
29529W        W45423   1.207  12.435  12.540  0.0755  0.0579 -0.2072
29530W        W45424  15.062  17.219  16.769  0.0120  0.2551  0.2504
29531W        W45425   4.139  13.376   2.993  0.1631 -0.1994 -0.0620
29532W        W45426   5.895  12.149   2.023  0.1024 -0.3270 -0.0544
29533W        W45427  16.734  12.268   4.116 -0.2499 -0.1635 -0.0324
29534W        W45428   6.105   7.403  13.288  0.1073 -0.1758 -0.1100
29535W        W45429   7.956  15.647  13.840 -0.0414  0.2467  0.2706
29536W        W45430   8.378  14.571   0.185 -0.0981 -0.1030 -0.1287
29537W        W45431  12.296  10.337   0.410 -0.1216 -0.1580  0.1026
29538W        W45432   5.885  17.563  15.899 -0.0966 -0.2172 -0.1414
29539W        W45433   3.438  13.378  16.865 -0.0860  0.1980  0.0197
29540W        W45434   4.054   8.810  11.380 -0.0133  0.1291 -0.1832
29541W        W45435  13.162   8.186   2.098  0.1412 -0.0480 -0.1948
29542W        W45436   3.540   1.951  15.808 -0.2757  0.1171 -0.1715
29543W        W45437   1.611   5.879  12.324  0.0145  0.1424  0.0359
29544W        W45438   0.918   8.541   0.096 -0.2567  0.0249 -0.1794
29545W        W45439   6.311   6.402   3.673 -0.1462 -0.2565  0.0064
29546W        W45440   8.805   2.398  14.584  0.0453 -0.1295 -0.1278
29547W        W45441   1.401  10.877   1.492  0.0847 -0.0430  0.0896
29548W        W45442   1.332  16.597  16.207  0.2381  0.2892 -0.0733
29549W        W45443   4.833  16.595   4.759  0.2429  0.2229 -0.0516
29550W        W45444   4.766   6.960   0.608 -0.0414 -0.0678 -0.3543
29551W        W45445  12.588   3.936   3.383  0.0759  0.0774  0.0058
29552W        W45446   8.692   3.736   1.113  0.0262  0.0740 -0.1092
29553W        W45447   1.010  12.330  11.965  0.0799 -0.0396  0.3476
29554W        W45448   6.078  14.106   2.593  0.0871 -0.0092 -0.3992
29555W        W45449  15.238  15.355  13.204 -0.2347 -0.0143 -0.3233
29556W        W45450   3.999   6.054   1.837 -0.1548  0.0079  0.0873
29557W        W45451   7.933   7.987   2.859  0.0424  0.2305  0.0203
29558W        W45452  16.573  17.276   5.611 -0.1809  0.0098 -0.2174
29559W        W45453  10.425   4.738   3.484  0.0360 -0.1625  0.2512
29560W        W45454   1.015  10.021   0.089  0.0242 -0.1130 -0.0583
29561W        W45455  15.275   6.102  14.570 -0.2183  0.0104 -0.1221
29562W        W45456   8.761   9.508  16.221  0.0944  0.2820 -0.1335
29563W        W45457  17.736   0.123  11.267 -0.0638 -0.1254  0.3763
29564W        W45458   9.174  14.761   1.164 -0.2505  0.0278 -0.2357
29565W        W45459   7.300   9.403   2.348 -0.0060 -0.0733 -0.2898
29566W        W45460   3.198   9.970   3.975  0.0068  0.0141 -0.0518
29567W        W45461   5.457   6.673   4.461  0.1242  0.0227 -0.1409
29568W        W45462  16.941   4.816  14.020 -0.1730 -0.0659  0.3391
29569W        W45463   6.264  10.006  12.143 -0.3713  0.3892  0.0578
29570W        W45464  10.760  13.565  14.436 -0.2850 -0.4172  0.0370
29571W        W45465  17.108   0.159  14.159  0.2198  0.0211 -0.2589
29572W        W45466  10.902  16.560  14.328  0.1598 -0.2148  0.0978
29573W        W45467   8.597  13.397  14.572  0.1926 -0.0229 -0.1327
29574W        W45468   3.366   4.447   4.115  0.2091 -0.3445  0.0739
29575W        W45469   5.092   2.198   4.183  0.0460 -0.2518  0.0488
29576W        W45470   3.150   7.182  14.327  0.0698 -0.4952 -0.1359
29577W        W45471  15.329   6.043   3.518  0.0563 -0.1527  0.3098
29578W        W45472   1.575   5.476   3.977 -0.1110 -0.3136 -0.0315
29579W        W45473   7.517  17.510  12.206  0.0486  0.1972  0.1333
29580W        W45474   7.096  11.061   1.999  0.0119 -0.2941 -0.2480
29581W        W45475  15.614  14.726   4.878  0.1629  0.1039  0.0129
29582W        W45476  13.768   4.289  11.091 -0.0429 -0.0739  0.1895
29583W        W45477  14.779   4.567   2.146  0.1242 -0.1115 -0.2207
29584W        W45478   4.744   7.396   5.348 -0.1062  0.1357 -0.3538
29585W        W45479   4.953   3.509  14.933 -0.1215  0.0895 -0.1582
29586W        W45480   9.166   1.742   1.683 -0.1278 -0.1068 -0.0968
29587W        W45481   1.275  13.009  11.374  0.1565 -0.0193 -0.2300
29588W        W45482  14.675   4.740   1.202  0.0301 -0.2757 -0.2744
29589W        W45483   6.883  15.656  16.288  0.1861 -0.4146 -0.1102
29590W        W45484   6.938   6.071   2.545  0.4029 -0.0950  0.1635
29591W        W45485  15.401  10.480  16.600 -0.0462 -0.1400 -0.0859
29592W        W45486   8.208  11.439   3.688  0.2501 -0.1986 -0.0048
29593W        W45487   5.200  14.944  12.391 -0.4351  0.1353  0.2255
29594W        W45488   6.917  14.011  11.858  0.1418  0.3185 -0.2312
29595W        W45489  10.375  14.159  12.406 -0.1906  0.2862  0.1031
29596W        W45490   4.532   3.819   3.420  0.0788  0.1685 -0.0569
29597W        W45491   2.662   5.819   0.592  0.0170  0.3642 -0.2361
29598W        W45492   2.999   7.700  14.212  0.0569 -0.2753 -0.1191
29599W        W45493   0.309   3.043   4.646 -0.2884  0.3187  0.3824
29600W        W45494  10.453   9.442  10.848  0.0752 -0.2355  0.0626
29601W        W45495   5.657  11.293  14.603 -0.2404  0.2355 -0.1708
29602W        W45496  15.584   7.335  13.304  0.1823  0.0359  0.0581
29603W        W45497  15.630  16.079   0.733  0.0817 -0.1343 -0.0057
29604W        W45498  15.336   9.663  14.755  0.0022 -0.0095  0.1889
29605W        W45499  17.735  15.785  12.285 -0.3253  0.1560 -0.1133
29606W        W45500   4.477  10.008   1.370 -0.1418  0.0974 -0.1509
29607W        W45501   7.252   0.977   0.869  0.0271 -0.3848 -0.0391
29608W        W45502   1.371  11.974   4.602 -0.0099  0.1405 -0.1972
29609W        W45503  14.748   5.354  11.889  0.3030 -0.0723 -0.0387
29610W        W45504  10.939   1.900  13.657 -0.0118 -0.0285 -0.2461
29611W        W45505  10.017  13.576   3.368 -0.0732 -0.0380  0.1320
29612W        W45506   9.279  11.012   4.386  0.0589  0.0700 -0.2721
29613W        W45507  17.199  11.795  12.875  0.2501 -0.0293 -0.1299
29614W        W45508   3.854  13.175  13.388 -0.0181 -0.4087 -0.1183
29615W        W45509  14.524  11.889   4.757  0.0971  0.1373  0.2182
29616W        W45510   7.121   4.401   3.592  0.2124  0.0800 -0.0545
29617W        W45511   6.603  15.786   3.979 -0.1015 -0.1527  0.1625
29618W        W45512  12.988  10.253   2.949  0.0050  0.0312 -0.1111
29619W        W45513   7.389   3.297  16.923 -0.0598 -0.1246 -0.0785
29620W        W45514   9.667   3.973  14.663 -0.1635 -0.3340 -0.0721
29621W        W45515   0.625   8.726  14.912  0.0536  0.0577 -0.2566
29622W        W45516   6.226   8.485   2.534  0.0347 -0.2533  0.0687
29623W        W45517   5.198  10.555  15.588 -0.0516 -0.2190  0.0274
29624W        W45518  17.122   5.436   4.225 -0.2757  0.4131 -0.1252
29625W        W45519  12.446   7.830  13.962 -0.0083 -0.1420  0.2830
29626W        W45520  17.408   7.049   6.083  0.1979  0.0465 -0.0598
29627W        W45521   5.217   3.444   3.042 -0.0604 -0.0147  0.0952
29628W        W45522   5.627   8.829   0.221  0.1831 -0.4354 -0.0256
29629W        W45523   3.173  16.876  12.374  0.1547 -0.0761 -0.0836
29630W        W45524   0.143  13.299  12.631 -0.3538 -0.1142  0.2441
29631W        W45525   7.145   8.126  14.702  0.3223  0.0467 -0.0309
29632W        W45526   0.348   6.549  11.472 -0.0575 -0.3054 -0.0287
29633W        W45527  14.299  15.823   0.917 -0.1135 -0.2722 -0.0138
29634W        W45528  14.618  14.911  13.002  0.2554  0.2201 -0.1195
29635W        W45529  17.461   8.834  13.870  0.1152  0.1593  0.0013
29636W        W45530  10.894   6.074   5.782 -0.0267 -0.3355 -0.2584
29637W        W45531  15.214   6.224   0.128  0.3236  0.1217 -0.2272
29638W        W45532  13.564  16.504  12.030 -0.0586  0.2016 -0.0745
29639W        W45533  16.058   3.036  14.983  0.0582 -0.2691 -0.2271
29640W        W45534   9.479   1.688   3.574  0.1733 -0.1478 -0.2179
29641W        W45535   5.895  12.827  15.721 -0.1476  0.0213 -0.4397
29642W        W45536   3.710  14.480   3.356 -0.0511 -0.1131 -0.0342
29643W        W45537   6.318  11.016  14.527  0.1046 -0.1103 -0.0267
29644W        W45538  10.828   4.437   4.352  0.4743  0.2001 -0.0111
29645W        W45539   3.515   0.783  16.449  0.0321  0.1455 -0.0679
29646W        W45540  14.359   7.844  13.440 -0.2503  0.0797 -0.1130
29647W        W45541  14.776  13.991   0.848 -0.0467 -0.1641 -0.1044
29648W        W45542  13.487   5.130  10.396 -0.0792  0.1622 -0.0644
29649W        W45543   0.492   2.370   6.302 -0.0737  0.0335 -0.2038
29650W        W45544  16.004   6.230   1.519 -0.3092  0.1680 -0.0602
29651W        W45545  12.789   9.974   1.190 -0.2020 -0.0135  0.0176
29652W        W45546   5.601  12.206   1.580 -0.2259 -0.3020  0.0956
29653W        W45547   2.300   5.407   0.708 -0.3160  0.0465  0.0304
29654W        W45548   9.899   4.336  12.867  0.1717 -0.0357  0.1967
29655W        W45549  17.796   0.770  14.586 -0.0806  0.1362 -0.0801
29656W        W45550  10.125   1.475   3.011  0.0012 -0.0763 -0.2957
29657W        W45551   1.720  16.170  13.449 -0.0709  0.0552 -0.4241
29658W        W45552  12.568   5.450   1.156 -0.0802 -0.0602  0.0612
29659W        W45553   1.422   6.535  16.006 -0.1185  0.1270  0.0090
29660W        W45554  11.954  14.736   0.732 -0.0911  0.1654  0.0244
29661W        W45555   0.981   7.941   0.733  0.1404  0.1887  0.0639
29662W        W45556   8.480  15.540  16.428  0.0631 -0.0444  0.0008
29663W        W45557  13.007  14.788  16.679  0.2214  0.0294  0.2433
29664W        W45558  14.690  13.590  13.883 -0.2430  0.0187  0.0745
29665W        W45559   7.127  15.964   0.504 -0.2053  0.2526 -0.1275
29666W        W45560   7.746   6.086   0.419 -0.0270  0.2957 -0.0907
29667W        W45561  13.706  10.468  15.780 -0.0991  0.0257 -0.2237
29668W        W45562   9.335   2.544  13.717  0.0357 -0.0586  0.0576
29669W        W45563  14.719   0.273  16.438 -0.2193  0.0682  0.1308
29670W        W45564   5.865  10.839   5.092  0.0097 -0.0844 -0.3535
29671W        W45565   7.374  13.245   0.316 -0.2261 -0.1221 -0.2646
29672W        W45566  15.630   2.510   4.958  0.0960  0.0193  0.1536
29673W        W45567  11.294  15.107  15.129  0.4059 -0.0419  0.3338
29674W        W45568   5.654   3.067  11.616 -0.0496 -0.2454 -0.0258
29675W        W45569   5.592  12.347  15.982  0.0044  0.2358 -0.2864
29676W        W45570   5.110   2.620  11.665 -0.0201 -0.3919  0.2549
29677W        W45571   6.896   3.120   5.980  0.0983  0.0206 -0.0889
29678W        W45572   5.412  15.271  14.387 -0.0198  0.2136 -0.2785
29679W        W45573   4.505  10.629  14.307  0.2021 -0.0577 -0.1028
29680W        W45574  15.783   1.661  13.917  0.0581 -0.0291  0.1613
29681W        W45575   6.681   1.210   2.205 -0.6691  0.2677 -0.0464
29682W        W45576  13.013  12.676  12.210 -0.0286  0.0223  0.1599
29683W        W45577  14.796  10.727   0.760  0.1761 -0.0279  0.0920
29684W        W45578   7.472   9.036  16.140  0.0121  0.0493  0.0105
29685W        W45579   4.059  12.173   0.098 -0.2325 -0.1122  0.0996
29686W        W45580  17.555  17.787   5.403 -0.4167 -0.1137 -0.2788
29687W        W45581   7.896   3.181   5.501 -0.1380  0.2882 -0.1309
29688W        W45582   4.344  16.643   3.995 -0.1403  0.0268 -0.3197
29689W        W45583   0.289  10.487   4.192  0.2468 -0.0897  0.2036
29690W        W45584   9.072   2.779   1.876  0.0709 -0.1659 -0.1829
29691W        W45585  17.115   0.199   5.561  0.1949  0.0498 -0.0789
29692W        W45586   7.765   6.113  13.213 -0.0454  0.0644 -0.3640
29693W        W45587   3.227  13.250   3.368  0.0576  0.3647  0.2530
29694W        W45588   4.986   6.127   2.571  0.1563  0.6509 -0.0160
29695W        W45589  14.582   9.614  13.672 -0.1603 -0.1638 -0.3802
29696W        W45590  10.836  17.374  15.272 -0.0855  0.1215 -0.0067
29697W        W45591   5.618  17.701   4.943 -0.0906 -0.0699  0.3685
29698W        W45592   3.192   7.393   2.787 -0.0012  0.0028  0.1435
29699W        W45593  15.107  14.661   6.414 -0.1538  0.5009  0.2786
29700W        W45594  10.781  14.336   4.737  0.1234  0.0546  0.1026
29701W        W45595  16.881   5.920   5.301 -0.0116  0.0394 -0.1523
29702W        W45596  16.060   3.290  10.311 -0.1600  0.4302  0.1365
29703W        W45597  15.272  16.215  14.645 -0.0627 -0.0942  0.2519
29704W        W45598  15.026  13.252  15.407  0.1057 -0.0410 -0.1636
29705W        W45599   6.883  14.275   5.158 -0.0539  0.0304 -0.0030
29706W        W45600   2.067  11.848   5.936  0.0793  0.2763 -0.1382
29707W        W45601  10.525   1.947   3.206 -0.1731 -0.0097  0.1502
29708W        W45602   9.604   5.143  16.639  0.2835 -0.5145 -0.0340
29709W        W45603   8.228   3.520  13.297  0.3617  0.1385  0.1769
29710W        W45604   8.234   9.597   4.972  0.0920 -0.1812 -0.0211
29711W        W45605   1.489   5.897  16.706 -0.2238 -0.4073  0.0887
29712W        W45606   9.237   6.876   4.300  0.1006  0.1027  0.3136
29713W        W45607  17.484   5.542  12.751  0.4342  0.2940  0.2112
29714W        W45608  14.332  15.284   1.523  0.2537  0.0161  0.0551
29715W        W45609  11.290   5.574  12.739 -0.0559 -0.0146  0.1227
29716W        W45610  17.314   3.911  13.829  0.1061  0.1690 -0.0810
29717W        W45611   7.144  10.930  12.814  0.1418 -0.1951 -0.2036
29718W        W45612  11.968  15.958  12.714  0.0178 -0.0257 -0.2042
29719W        W45613  15.222  11.167   2.243 -0.1759 -0.3490 -0.2587
29720W        W45614  10.261   7.113  11.583 -0.0113 -0.0483  0.1099
29721W        W45615  11.751  10.290  12.154 -0.1331  0.4108 -0.0906
29722W        W45616   2.248   9.685   4.735 -0.4061  0.0117 -0.0464
29723W        W45617  15.307  14.867   3.651 -0.2432  0.0943 -0.1365
29724W        W45618  17.476   7.258  13.131 -0.3665  0.0373 -0.1509
29725W        W45619   9.647  13.800   3.165 -0.2357 -0.1430  0.0053
29726W        W45620   4.166   5.393  12.947  0.3770 -0.1971  0.1926
29727W        W45621   5.607  17.644  11.000  0.0741 -0.0707  0.1371
29728W        W45622  15.654   5.660   5.445  0.1117 -0.1148 -0.0509
29729W        W45623  17.453   0.542   4.088  0.2173 -0.1112  0.0885
29730W        W45624   7.022  14.901  11.748 -0.0180 -0.4778  0.3073
29731W        W45625  12.347  10.804   1.126  0.1330 -0.5010 -0.1564
29732W        W45626   7.730   8.131  16.004 -0.2102  0.1291 -0.0494
29733W        W45627   8.748   9.078   4.906 -0.0521  0.3080 -0.2415
29734W        W45628  13.294  17.418  13.519  0.2527  0.0395 -0.1857
29735W        W45629   7.891  11.376  16.902  0.1154 -0.0500  0.1348
29736W        W45630  13.646  12.311   5.046 -0.1548 -0.5318  0.2020
29737W        W45631   9.044   9.054   0.662  0.1296 -0.2135 -0.0770
29738W        W45632  16.544  12.190  14.998  0.1670  0.1052 -0.3932
29739W        W45633  12.132   8.370   1.864 -0.1077  0.1816  0.2294
29740W        W45634   6.266  13.717   4.694  0.2982 -0.2065  0.2282
29741W        W45635   8.962  15.111  13.361  0.2420 -0.2584 -0.0338
29742W        W45636  17.416  16.942   0.683 -0.4876  0.0445 -0.3098
29743W        W45637   1.078  12.656  14.995 -0.2373  0.5278 -0.5435
29744W        W45638  13.757   9.432  16.349 -0.0369  0.0353 -0.0684
29745W        W45639  14.228  10.020   3.811 -0.4102  0.1885 -0.3484
29746W        W45640   1.686   9.493  14.705  0.1485  0.2410  0.2510
29747W        W45641  12.093  12.367   4.372 -0.1005 -0.0890 -0.0481
29748W        W45642   3.923   3.380  15.238 -0.0656  0.0771 -0.1497
29749W        W45643  11.398   7.943   4.914  0.0327  0.1720  0.1382
29750W        W45644  12.788  12.761   6.098 -0.0280  0.1276  0.0178
29751W        W45645  12.062   6.578   3.209  0.1642  0.2694  0.2420
29752W        W45646   5.710  11.585  16.469 -0.1052 -0.1095 -0.0119
29753W        W45647   3.576   3.480   1.526 -0.1673 -0.2323  0.0104
29754W        W45648  10.916   3.524  12.030  0.0407 -0.3085  0.1544
29755W        W45649   7.522  11.257   1.977 -0.1020 -0.3333  0.1049
29756W        W45650   1.181   7.320  11.470 -0.0937 -0.0001  0.2800
29757W        W45651  16.023  17.474  13.280  0.2642  0.1518 -0.1892
29758W        W45652  13.993  12.794  12.577 -0.3634  0.0449 -0.1585
29759W        W45653   5.877   8.934  13.246 -0.1814  0.0723 -0.2113
29760W        W45654   7.120   6.845   6.837 -0.0832  0.3714  0.0890
29761W        W45655   2.228  15.800   3.561 -0.0239  0.2948 -0.0701
29762W        W45656   0.574  12.070  11.898  0.1419 -0.0278 -0.2158
29763W        W45657   7.842  12.963   4.068 -0.0060 -0.0537 -0.2197
29764W        W45658  17.099  14.302   3.041  0.1969 -0.3606 -0.0952
29765W        W45659   6.559   4.948   4.576 -0.1356  0.1359  0.0879
29766W        W45660  13.147   1.203  12.105 -0.1631 -0.0712  0.3983
29767W        W45661   2.428   4.669  16.605  0.3413  0.3085 -0.1434
29768W        W45662   1.582  14.244   2.524 -0.0180 -0.2294  0.0287
29769W        W45663   3.440   7.925   2.961  0.0400  0.0138  0.1343
29770W        W45664   6.507   0.289   1.985  0.1966  0.2223 -0.4787
29771W        W45665  12.306   7.528   3.366 -0.3773  0.2146  0.0208
29772W        W45666   5.923  13.233   3.568 -0.3464  0.0652  0.0856
29773W        W45667   8.987   1.584  11.932 -0.1514  0.0188  0.0401
29774W        W45668  11.283   4.255   4.700 -0.0343  0.0210 -0.0322
29775W        W45669  14.614   4.608   3.458 -0.0902 -0.4724  0.1383
29776W        W45670   5.659   6.545   1.413  0.1501 -0.0438 -0.1470
29777W        W45671  17.477   4.828  13.970  0.0744  0.3846  0.6003
29778W        W45672  15.142   3.305   0.763  0.0459  0.1256  0.1068
29779W        W45673  17.514   9.015   3.685  0.0704  0.1060  0.1219
29780W        W45674   8.236   7.137  15.561  0.2920  0.0611 -0.1622
29781W        W45675  10.471   0.362  11.486 -0.0344  0.1510 -0.0646
29782W        W45676  16.544   0.755  12.036 -0.0868 -0.1238  0.1706
29783W        W45677  11.295   5.853   1.144  0.1135  0.2220 -0.5029
29784W        W45678  16.065   2.572   5.338 -0.0970  0.1337 -0.2017
29785W        W45679   1.620  10.071   2.889  0.2407 -0.1356 -0.4407
29786W        W45680   2.956   9.328   0.110 -0.3010  0.0097  0.0471
29787W        W45681   6.664  17.729  12.588  0.1003  0.0780  0.1302
29788W        W45682  13.458  16.788   5.675 -0.0397 -0.1041  0.1761
29789W        W45683   3.775  16.827   5.203 -0.1139  0.2557  0.0983
29790W        W45684   3.653  16.488   0.353  0.0589  0.1068 -0.0334
29791W        W45685  12.959   9.631   4.892  0.0920  0.0643 -0.0966
29792W        W45686   1.237  16.148  11.484  0.0857  0.2659  0.0899
29793W        W45687   2.417  10.544   3.962  0.2608  0.0301  0.2955
29794W        W45688   5.003  13.942   1.360 -0.0196  0.0966  0.0234
29795W        W45689  17.120  13.120   2.922  0.0674  0.0797 -0.0418
29796W        W45690   7.841  13.422   2.349  0.0147 -0.0401 -0.0161
29797W        W45691  14.780  14.933  15.841  0.1443 -0.0101  0.2673
29798W        W45692  13.308  17.740  16.601  0.0716  0.2007  0.2137
29799W        W45693   6.554   7.994  16.698 -0.0947 -0.0573 -0.3506
29800W        W45694   5.539   1.705  15.216  0.1665 -0.2445  0.2002
29801W        W45695   8.048   8.777   1.639  0.0511  0.0616 -0.3058
29802W        W45696  15.669   3.880  11.429  0.0135 -0.0628  0.0633
29803W        W45697  10.787   5.567   5.599 -0.5135 -0.1687  0.4763
29804W        W45698   2.672  12.594   4.040 -0.4475 -0.1400  0.2700
29805W        W45699   8.142   0.632   3.041  0.0025  0.1798 -0.1610
29806W        W45700   7.750  16.975   2.239 -0.0557  0.0570 -0.1113
29807W        W45701   7.132   1.820  11.788  0.0494 -0.0965 -0.4308
29808W        W45702  11.038  17.428   0.516 -0.0027 -0.1195 -0.0718
29809W        W45703  14.804  10.287   4.037 -0.3088  0.0837 -0.3462
29810W        W45704   7.757   1.856  16.320  0.0015 -0.1131  0.0083
29811W        W45705   8.133  12.174   1.345  0.3065  0.0097 -0.2291
29812W        W45706  15.903   4.200  15.531 -0.1107  0.1100 -0.0638
29813W        W45707   1.755   0.316  16.311 -0.1185  0.4052  0.1405
29814W        W45708  16.977   2.932   4.356  0.1524 -0.1489  0.1445
29815W        W45709   0.965   2.929   0.145  0.1863  0.2287 -0.3726
29816W        W45710   5.872   0.914  13.348  0.1219  0.3084  0.0196
29817W        W45711   5.797  14.750   6.072  0.0069 -0.2004  0.1649
29818W        W45712  17.617   7.550  16.040  0.2739 -0.1403  0.0264
29819W        W45713   8.574  16.759   4.094  0.0295 -0.1096 -0.0199
29820W        W45714   5.888   4.471  12.783 -0.1029  0.0367  0.1863
29821W        W45715   3.161  10.907  12.442 -0.2119 -0.0708  0.0326
29822W        W45716   3.771  17.285  14.428  0.0308 -0.0290  0.0825
29823W        W45717   4.676  17.346   0.504 -0.0673 -0.0717  0.2052
29824W        W45718  12.500  10.121  12.641 -0.0781 -0.1107  0.0116
29825W        W45719  17.594   1.422  11.747  0.1860 -0.2165  0.2123
29826W        W45720  17.273   8.519   0.621  0.1780  0.2256 -0.1569
29827W        W45721   0.733  16.792  14.108  0.0751 -0.4061 -0.2007
29828W        W45722   1.365   0.096  12.574 -0.0248 -0.1859  0.2647
29829W        W45723   0.194  12.273   0.433  0.2040 -0.1711  0.1294
29830W        W45724  14.605  16.761   4.929 -0.1722  0.2628 -0.0480
29831W        W45725   0.712  10.199   4.190 -0.0877  0.3208  0.2112
29832W        W45726  14.218   5.267  15.224  0.0220 -0.1269  0.2419
29833W        W45727   3.499   6.508   0.797 -0.1781  0.0875  0.0528
29834W        W45728  16.119   3.019  15.873 -0.2396 -0.0275 -0.0832
29835W        W45729  11.401   2.955  16.006  0.0001  0.4493  0.3238
29836W        W45730  14.746   0.867   1.572  0.0394 -0.0816  0.1207
29837W        W45731   3.513   2.643   1.070 -0.4654  0.1097  0.1459
29838W        W45732   1.779  13.865   5.302  0.1866 -0.1180 -0.2183
29839W        W45733  10.266   4.641   4.951 -0.1789 -0.0666 -0.0267
29840W        W45734  17.160  16.247  14.172 -0.1129  0.1545 -0.0610
29841W        W45735   7.474  15.890   0.022  0.0804 -0.0313 -0.0009
29842W        W45736   5.990  11.114  15.273 -0.1532  0.0848  0.0224
29843W        W45737   4.810   3.224  14.553  0.0548  0.1389  0.0183
29844W        W45738   5.640  16.183  11.148 -0.0620  0.0438  0.1000
29845W        W45739   7.511  16.387  16.100 -0.0853  0.1280 -0.0578
29846W        W45740  10.380   6.624   5.547 -0.2171 -0.2039  0.2243
29847W        W45741  17.133  13.620   6.257  0.0824  0.0490  0.1714
29848W        W45742   6.777   0.638   1.633 -0.2663  0.1634  0.3706
29849W        W45743  16.202  15.716   3.412  0.2863  0.0473  0.0882
29850W        W45744  16.555  17.005  15.457  0.1294 -0.2984 -0.1451
29851W        W45745   2.506   0.697   2.434 -0.0040 -0.0281  0.3629
29852W        W45746  13.901   4.987   5.210  0.1654  0.1610  0.2410
29853W        W45747  16.485   8.569  11.845 -0.1044 -0.2366  0.2012
29854W        W45748   8.624  12.138   3.994  0.3054  0.0898  0.0180
29855W        W45749  11.547  12.355   0.346 -0.0124 -0.0885  0.0530
29856W        W45750   8.614   7.847   2.888 -0.2541 -0.0437 -0.2024
29857W        W45751   6.483  10.323  15.277  0.0120  0.2921  0.0092
29858W        W45752  12.601   0.399  16.910  0.1175  0.1178  0.1855
29859W        W45753  15.587   1.879   0.290  0.2260 -0.0198  0.0846
29860W        W45754  16.901   5.798  15.210  0.2224  0.0418 -0.0428
29861W        W45755  15.873  12.396   2.936  0.1701  0.2838  0.1688
29862W        W45756   9.388  13.281  16.641  0.1428  0.0149 -0.0232
29863W        W45757  16.282   0.215  12.266  0.0534 -0.2390  0.0734
29864W        W45758   4.917   9.842  11.638  0.0954 -0.4832 -0.1646
29865W        W45759   0.110   0.097   0.560 -0.1984 -0.1734 -0.1797
29866W        W45760   2.044   1.904  13.571  0.0724 -0.2090  0.2648
29867W        W45761   1.361   6.173  16.319  0.2439  0.1669 -0.0317
29868W        W45762   8.955   7.993  14.771  0.0529 -0.2096  0.0471
29869W        W45763   4.190  14.344   1.637  0.2117  0.0531 -0.0941
29870W        W45764   8.719   5.715   1.638  0.5106  0.1360  0.4161
29871W        W45765   1.946  11.030   5.262  0.1225  0.1902 -0.0928
29872W        W45766   0.467  13.762   4.331 -0.2434 -0.0961  0.0836
29873W        W45767   8.338   5.590   1.264  0.0451  0.0976 -0.0265
29874W        W45768   1.056   3.603  16.404  0.0389  0.1798  0.1485
29875W        W45769  13.644  14.493  16.864 -0.0197 -0.1989 -0.0924
29876W        W45770   7.855   0.503   4.456 -0.1722  0.0372 -0.0027
29877W        W45771  16.378   6.537   4.779 -0.2438  0.1559 -0.1434
29878W        W45772  14.206   4.528  12.268 -0.1113  0.1307 -0.1774
29879W        W45773  14.808   7.036   0.513  0.2892 -0.4528 -0.1688
29880W        W45774   1.801   3.506   1.380 -0.2950 -0.0661 -0.0105
29881W        W45775  15.759   2.911   2.178 -0.0114  0.1223  0.2152
29882W        W45776   3.181  16.711   1.022  0.0759  0.0912 -0.3041
29883W        W45777  14.731  11.555   4.340 -0.0326 -0.1048  0.0164
29884W        W45778  12.966   2.531   3.056  0.1989  0.2831 -0.0709
29885W        W45779   7.094   1.085   5.672 -0.0799 -0.0317 -0.1910
29886W        W45780  16.352   9.452   3.574 -0.1235 -0.2420 -0.0327
29887W        W45781  13.233  16.434   0.831 -0.2604  0.0371 -0.1810
29888W        W45782  16.117   5.753  15.726  0.3544  0.4086  0.0204
29889W        W45783  17.023   7.286   3.796  0.1119  0.1353 -0.0537
29890W        W45784   9.831  16.153   3.431 -0.1369 -0.2986  0.0662
29891W        W45785   9.179  17.427   2.195 -0.1375  0.1509  0.0844
29892W        W45786   9.819   2.537  11.181 -0.0601  0.1487  0.1509
29893W        W45787  13.673   7.809   1.656  0.3394 -0.0732  0.0160
29894W        W45788  17.164   9.099  16.614  0.1702  0.1485  0.2685
29895W        W45789  12.948  15.435   1.759  0.1324 -0.0420  0.0629
29896W        W45790   1.487   9.017   2.791 -0.0685 -0.2362 -0.1302
29897W        W45791   7.242   5.484  15.533  0.2598 -0.0231 -0.1620
29898W        W45792   3.608  11.425  14.796  0.2455 -0.2107  0.1924
29899W        W45793   3.591  10.458   1.359  0.3452 -0.5587  0.2059
29900W        W45794   8.260  10.822   0.485  0.1691  0.0192 -0.0689
29901W        W45795  13.994  13.460   0.745  0.0809  0.0804  0.0058
29902W        W45796  10.013  16.037   4.899 -0.1528  0.3334 -0.0221
29903W        W45797  12.010   5.665  12.020  0.0475  0.3386 -0.0929
29904W        W45798   0.585  15.828  14.313  0.0578 -0.3342  0.5452
29905W        W45799   9.846   7.498  11.388 -0.0113  0.0207  0.0828
29906W        W45800  14.062  16.289   2.359  0.1158  0.1265 -0.0493
29907W        W45801   9.353   6.800  15.922  0.1441  0.1124 -0.0856
29908W        W45802  15.153   4.300   3.050  0.0446 -0.0238  0.2923
29909W        W45803   7.700   4.128   4.254 -0.1669 -0.3161  0.0596
29910W        W45804   4.536   9.821  15.458  0.0855  0.0622 -0.0209
29911W        W45805  17.342   7.002   2.159  0.4112  0.0590  0.0680
29912W        W45806   1.162  11.846  13.858 -0.0334  0.3010  0.0134
29913W        W45807   1.987   3.142   2.773  0.1363  0.0053 -0.0577
29914W        W45808   6.294   8.474  11.889 -0.1770 -0.0160  0.1760
29915W        W45809   2.758   6.705   0.158  0.0341  0.1200 -0.1497
29916W        W45810  16.466   8.923   4.047 -0.0687  0.1857 -0.0863
29917W        W45811   0.248   8.069  13.900  0.0951  0.0864  0.2110
29918W        W45812   6.859  12.391  10.657 -0.1101 -0.1614  0.2603
29919W        W45813  15.531   0.540   4.403  0.0850 -0.0796  0.1449
29920W        W45814   0.767   9.572   1.688  0.1182 -0.2269  0.0084
29921W        W45815   1.936  17.446   2.578 -0.1526  0.3540 -0.2832
29922W        W45816  15.874   7.560   4.515  0.1467 -0.2174  0.1467
29923W        W45817   0.189  11.770   0.599  0.1772 -0.1000 -0.3774
29924W        W45818  11.262  12.145  12.536  0.0295  0.0635 -0.1651
29925W        W45819  17.243  15.760  15.471 -0.0528  0.1916 -0.0563
29926W        W45820  12.507   9.711   4.110 -0.2340  0.0867 -0.2655
29927W        W45821  11.278  12.569  15.792 -0.0421 -0.0228 -0.0652
29928W        W45822   2.797  17.256  14.259  0.0461 -0.0059  0.0031
29929W        W45823   3.613   6.370  15.657 -0.3201 -0.1531  0.0062
29930W        W45824  13.756   7.307   2.551  0.2591 -0.1682 -0.2643
29931W        W45825   7.610  12.780  15.263 -0.0492  0.3390  0.0461
29932W        W45826   7.747  16.965  14.333 -0.1452  0.0412 -0.1386
29933W        W45827   7.405   1.731  15.333 -0.2528  0.1319  0.1281
29934W        W45828   2.297   4.348   5.403  0.0343 -0.3047  0.2397
29935W        W45829   6.055  14.907   5.205 -0.0154  0.0467 -0.0642
29936W        W45830   6.741   3.645  10.813 -0.1051  0.0412  0.0033
29937W        W45831  17.086   0.189  11.834 -0.0968  0.0488 -0.0498
29938W        W45832   3.254   5.387  15.817  0.1797  0.1085 -0.0141
29939W        W45833  12.661   1.206  13.046  0.3075 -0.1238  0.3762
29940W        W45834  16.969   5.214  15.477 -0.4002 -0.3520  0.0305
29941W        W45835  11.505   5.996   4.506  0.4476  0.1319 -0.2449
29942W        W45836   8.513   8.275   2.512  0.0956  0.0669  0.1248
29943W        W45837   2.091  16.032   5.292 -0.3097  0.1330 -0.1606
29944W        W45838  11.259   5.054  13.479  0.0655  0.0750  0.1639
29945W        W45839   0.076  17.101   5.234 -0.2814  0.3741 -0.1952
29946W        W45840  12.820  12.105  12.259  0.0410  0.1043  0.1634
29947W        W45841   3.697   4.068   3.838  0.2828  0.0742  0.3711
29948W        W45842   7.103   6.353  15.859  0.1606  0.2159  0.3163
29949W        W45843   8.434   2.786  16.788 -0.0333 -0.2465 -0.3115
29950W        W45844   4.167  10.829   5.667 -0.1792  0.1674  0.3800
29951W        W45845   8.598   8.954   0.463  0.0757  0.6181  0.0409
29952W        W45846   8.585  15.920   3.582 -0.1719 -0.2011  0.1357
29953W        W45847  13.547   5.699   4.578  0.1335  0.2434  0.1073
29954W        W45848  12.493  12.916   2.345  0.2019 -0.0119 -0.2638
29955W        W45849   6.419  10.459   2.222  0.1077  0.0835  0.0914
29956W        W45850   1.754  10.969  14.717  0.3199  0.0496  0.0438
29957W        W45851   5.805   4.300   6.054  0.0656  0.2480 -0.0818
29958W        W45852   5.417   6.649   3.449 -0.0484  0.2141 -0.0081
29959W        W45853   8.091  13.008   2.503  0.0062 -0.1625 -0.0754
29960W        W45854   7.118   1.985  14.957 -0.0592 -0.2818 -0.0419
29961W        W45855  13.277   3.789  15.228 -0.2832 -0.1799  0.0270
29962W        W45856   0.258   1.286   3.640  0.0312 -0.1520 -0.1387
29963W        W45857   0.198  13.441   4.047 -0.1384 -0.0134 -0.0900
29964W        W45858   3.725  13.441  16.443 -0.1567  0.2944 -0.2666
29965W        W45859   8.481   8.408   3.533  0.5588 -0.0551  0.0065
29966W        W45860  17.302   9.516   3.546 -0.1797  0.1072 -0.1846
29967W        W45861   4.688   9.345  14.111  0.0521 -0.0320 -0.0007
29968W        W45862  11.591  10.543  14.054  0.5018 -0.0129  0.0732
29969W        W45863   0.487  15.760  13.678 -0.0407  0.1639  0.0677
29970W        W45864  12.760   6.468  13.994 -0.1994 -0.1343  0.0764
29971W        W45865   2.332   1.877   1.234  0.2412  0.0987  0.1928
29972W        W45866  14.862  12.280  15.177 -0.0546  0.0458  0.1130
29973W        W45867   1.227  10.605   0.163  0.2020 -0.0245  0.1253
29974W        W45868  17.350  14.664   5.073 -0.6977  0.0840 -0.1109
29975W        W45869   3.480   0.407  15.985  0.1358  0.2465 -0.0819
29976W        W45870   2.189   6.446   0.869 -0.2597 -0.2923  0.0784
29977W        W45871  12.373   6.334   6.362 -0.2655 -0.1681 -0.1366
29978W        W45872   1.967  15.998  15.832 -0.1194 -0.1286  0.1309
29979W        W45873   6.393  14.288   4.913  0.0608  0.4099  0.0397
29980W        W45874  15.132   3.395   1.703 -0.0716  0.1584 -0.1063
29981W        W45875  15.537   6.415  10.506 -0.1735  0.1095 -0.1116
29982W        W45876   7.438  10.868   5.807 -0.0848  0.1188 -0.3524
29983W        W45877   8.604  11.718   3.682 -0.0435 -0.0546  0.0372
29984W        W45878   3.376   7.154  16.110  0.0462 -0.0193  0.0425
29985W        W45879   9.116  16.012  12.534  0.1121  0.1691 -0.1386
29986W        W45880   9.455  12.847   4.614  0.1643  0.0332  0.2617
29987W        W45881  14.480  15.779  13.093 -0.1907 -0.1993  0.2561
29988W        W45882   5.635   6.106   1.604 -0.4159 -0.0437  0.0116
29989W        W45883   8.814   1.362   3.942 -0.0137 -0.0947 -0.3671
29990W        W45884   2.239   7.145  14.314  0.1272  0.3874  0.1093
29991W        W45885  17.274   8.195   0.070  0.2201 -0.4532 -0.0612
29992W        W45886  12.793  10.266  13.316 -0.0917 -0.3399 -0.1437
29993W        W45887  12.875  16.556   2.049 -0.0764 -0.1067  0.1440
29994W        W45888   1.954  13.023   3.509 -0.0331  0.4060  0.1017
29995W        W45889   2.260   6.633   0.419  0.3285 -0.3654 -0.0509
29996W        W45890   3.777   3.662   1.065 -0.0381  0.1327  0.2044
29997W        W45891   2.760   0.417   3.748 -0.3771  0.1608  0.0345
29998W        W45892  10.809   9.356  10.522  0.1934  0.1011  0.3404
29999W        W45893  16.726   3.749   1.397 -0.2776 -0.0643  0.2203
30000W        W45894   5.873  12.259   1.136  0.0760 -0.2131 -0.0489
30001W        W45895   4.341   4.189  11.839  0.0802 -0.1893  0.0676
30002W        W45896  11.551  13.988   5.062  0.1321 -0.2016 -0.0590
30003W        W45897   4.885   8.706  15.929 -0.1691 -0.1493 -0.3056
30004W        W45898  15.974   6.304   0.621  0.3355 -0.2630  0.0263
30005W        W45899  11.395   2.302   5.300 -0.0272  0.0038 -0.2708
30006W        W45900   2.602  13.570   2.674 -0.4262  0.1271  0.0862
30007W        W45901  11.347   2.651  13.333 -0.3066  0.1533  0.1055
30008W        W45902  13.888   4.782  15.983  0.0164 -0.0086 -0.4584
30009W        W45903   2.303   0.171  14.327  0.0943 -0.1435  0.2465
30010W        W45904   0.726  13.220   1.381 -0.0773  0.1728 -0.0070
30011W        W45905   1.882   8.678  13.409  0.0369  0.0508  0.0961
30012W        W45906   1.600  16.551   4.598  0.0832 -0.2441  0.2953
30013W        W45907   1.718  14.952  11.173 -0.2004 -0.1061  0.1599
30014W        W45908   5.041  16.185   4.914  0.2848 -0.1785  0.1377
30015W        W45909   4.690   4.040   4.838 -0.0999  0.0025 -0.2869
30016W        W45910   3.566  12.210   1.647 -0.0464  0.1790  0.0891
30017W        W45911  15.999  15.987  13.363 -0.0865 -0.1293 -0.0706
30018W        W45912  14.834  10.969  11.392 -0.2121  0.3177  0.0743
30019W        W45913   1.997   7.067  15.883  0.2890 -0.1408  0.1260
30020W        W45914  15.378   9.396  12.987  0.1590 -0.0491  0.2071
30021W        W45915   0.907  10.639   4.540  0.0168  0.2120  0.1581
30022W        W45916   0.965   0.443   5.849  0.3205  0.0870 -0.0704
30023W        W45917   6.245   3.112  14.870  0.0915  0.1641  0.0283
30024W        W45918   1.995  13.289   5.346  0.0236 -0.0692  0.1343
30025W        W45919  11.408   6.076  12.704  0.0219 -0.0490 -0.0136
30026W        W45920  14.817  16.138   3.015 -0.0259  0.1920 -0.0218
30027W        W45921  13.623  10.544   1.628  0.1314 -0.0746  0.1426
30028W        W45922   5.961  11.001  15.745  0.3129 -0.2210 -0.0011
30029W        W45923   2.234  13.228   1.886  0.2437  0.0426 -0.0301
30030W        W45924  12.997   2.005  15.891 -0.3018 -0.0904  0.1371
30031W        W45925   5.025  10.652  14.515  0.0706  0.3014  0.1566
30032W        W45926  12.888  12.400   4.350  0.0984  0.3756  0.1889
30033W        W45927  13.824   1.958   1.845  0.0076  0.0484  0.1459
30034W        W45928   2.385  13.050  16.387  0.0535 -0.2888 -0.1647
30035W        W45929  13.381  14.783   5.479 -0.0251  0.0943  0.1004
30036W        W45930  14.543   1.569  13.341 -0.1177  0.0456 -0.1451
30037W        W45931  14.088   9.663  13.362  0.1798 -0.0426 -0.3063
30038W        W45932  10.975   6.187  13.170  0.2923  0.0898  0.0486
30039W        W45933   8.940   1.145  16.300  0.1043 -0.0457 -0.1556
30040W        W45934  10.749   4.437  11.783  0.1667 -0.1307 -0.1442
30041W        W45935   2.488   9.210   4.064 -0.3279 -0.0471  0.0896
30042W        W45936   8.433  14.563   6.247 -0.0730  0.3000 -0.2259
30043W        W45937   0.967  13.697  16.475  0.2086 -0.1959 -0.1035
30044W        W45938  14.954  17.490  13.896 -0.1114  0.1409  0.0125
30045W        W45939  11.739  13.334   4.407  0.2991  0.0514  0.1659
30046W        W45940   2.143  17.727   5.304 -0.2511 -0.5991  0.0790
30047W        W45941   8.978   0.899   4.759  0.2422  0.0759 -0.1825
30048W        W45942   2.466  11.083  14.229  0.3295  0.3327 -0.1891
30049W        W45943  14.802   3.541   3.273  0.1656 -0.1162 -0.0647
30050W        W45944   0.564   9.294  15.239  0.1254 -0.0397  0.0467
30051W        W45945   5.445  11.784   5.183 -0.1342 -0.1099 -0.1410
30052W        W45946   4.255  10.165   0.550  0.1772  0.0141 -0.2521
30053W        W45947  12.404   7.249   0.994  0.2974  0.0850 -0.4402
30054W        W45948  12.864   9.062   6.372 -0.3243 -0.0172  0.1828
30055W        W45949  11.655  16.130   1.069 -0.3711 -0.0996  0.1213
30056W        W45950   9.638  15.875   0.011 -0.4127  0.0721 -0.0690
30057W        W45951  17.535   0.615   2.935  0.1459  0.1896 -0.1043
30058W        W45952   1.567   2.791  16.507 -0.2487  0.0387 -0.2148
30059W        W45953   1.066  11.498   2.880  0.2069  0.0445 -0.1031
30060W        W45954  17.590   8.589   2.859  0.0880  0.2980  0.3215
30061W        W45955  12.702   7.206   3.601  0.1150  0.3204 -0.0969
30062W        W45956  10.413   5.434   4.389 -0.1071 -0.1542  0.0732
30063W        W45957   1.204  12.940   5.140 -0.2574  0.1023 -0.1419
30064W        W45958   9.637   6.126  16.657  0.1694  0.2809 -0.2503
30065W        W45959   6.246   4.324   0.833 -0.1090  0.0033 -0.2163
30066W        W45960   3.273  10.082   5.380  0.2362 -0.0450  0.1589
30067W        W45961   5.852   3.334   3.886  0.4145  0.1520 -0.2447
30068W        W45962  13.365   2.244  12.966  0.0524  0.2182  0.1113
30069W        W45963   2.368  11.542  13.397 -0.1855 -0.1291  0.1357
30070W        W45964  14.839   5.303   4.087 -0.3103 -0.0091  0.1061
30071W        W45965  15.811  11.129  13.202 -0.0807  0.4380 -0.0759
30072W        W45966  10.311  11.133  11.664  0.3989  0.0159 -0.0655
30073W        W45967  16.245  11.957  13.524  0.0586 -0.1416 -0.1938
30074W        W45968  13.830   2.022   3.015  0.0304 -0.1155 -0.0632
30075W        W45969  16.442   2.365  13.463  0.2024  0.1336  0.0640
30076W        W45970   1.068  14.526   3.753  0.1897  0.0465 -0.0538
30077W        W45971  12.133   3.596   3.531  0.0231 -0.0633  0.1299
30078W        W45972   7.076   0.619  12.586 -0.2795 -0.1904  0.0502
30079W        W45973   1.935   6.353   1.402 -0.2795 -0.1355 -0.0891
30080W        W45974  15.468   3.698  15.551  0.2634 -0.4063 -0.1254
30081W        W45975   3.644   1.659   1.140  0.1069 -0.2194 -0.0952
30082W        W45976   6.074   5.841   1.784 -0.0048 -0.1310 -0.0336
30083W        W45977  15.728  17.189  15.977  0.0592 -0.2346  0.0031
30084W        W45978   3.757  15.021   6.050  0.2800  0.0392 -0.1223
30085W        W45979  13.880   1.563   2.889 -0.1466 -0.0457 -0.2232
30086W        W45980  14.307   2.957   2.085 -0.0859  0.1687 -0.1313
30087W        W45981   2.086  14.240   1.569 -0.0577 -0.1867  0.0214
30088W        W45982   5.583   2.627  11.827 -0.0941 -0.1674  0.3044
30089W        W45983   4.978  15.639  15.616 -0.1299 -0.3424 -0.0961
30090W        W45984  12.954   0.122   3.669 -0.2095 -0.0303  0.0642
30091W        W45985  11.008  16.919   2.578  0.1562  0.1860 -0.2710
30092W        W45986  14.004   5.214  16.256  0.2356 -0.0019  0.0370
30093W        W45987  11.168   7.259   1.816  0.0583  0.0823  0.1081
30094W        W45988  16.171  12.581  16.135 -0.2268  0.1353 -0.0759
30095W        W45989  10.890   3.092  16.022  0.2168  0.1001 -0.3513
30096W        W45990  15.992  16.557  12.094 -0.1602 -0.2272  0.2908
30097W        W45991   7.372  10.343   2.219 -0.1209 -0.0874  0.1414
30098W        W45992  17.102  10.877   1.457 -0.1464 -0.2884 -0.2912
30099W        W45993   1.586   7.469  11.879  0.1195  0.0604  0.2070
30100W        W45994   3.350  14.456  13.553  0.0274 -0.2195  0.2352
30101W        W45995   3.273   5.760  15.379 -0.1682 -0.1633  0.1098
30102W        W45996   5.795   1.877   3.916  0.0225  0.1213  0.0264
30103W        W45997  14.538   6.380   2.906 -0.1295  0.0404 -0.1557
30104W        W45998   8.760   8.957   3.866  0.3321 -0.0448 -0.0663
30105W        W45999  16.443  15.118   5.084 -0.1570 -0.1823  0.0354
30106W        W46000  11.891  10.845  16.641 -0.0207  0.0251 -0.2168
30107W        W46001  14.670   3.004  16.059 -0.2736 -0.0905 -0.0070
30108W        W46002  11.847   6.235  12.880 -0.1629 -0.1939  0.2243
30109W        W46003   2.664  17.609   2.607 -0.1244  0.2000 -0.1716
30110W        W46004   2.155   9.074  13.131  0.2077 -0.0759 -0.0897
30111W        W46005  13.903   3.694  11.901 -0.4013 -0.0428  0.0130
30112W        W46006  15.237   7.193   0.255  0.1444 -0.0665 -0.0609
30113W        W46007   4.209  14.461   2.829  0.2496  0.2669 -0.0033
30114W        W46008  17.588  13.997  16.104 -0.2260  0.0441 -0.1465
30115W        W46009   5.916   4.287   5.011  0.1406 -0.2315 -0.0675
30116W        W46010  12.827   3.164  11.149 -0.1171  0.3268  0.1472
30117W        W46011  17.055   9.826   6.444  0.0430 -0.2385 -0.0327
30118W        W46012   3.288   5.265   3.536  0.1063 -0.0279 -0.2715
30119W        W46013   5.651  12.635   1.873 -0.2165 -0.4090  0.0541
30120W        W46014  14.234   5.742  15.068  0.0630  0.0737  0.2099
30121W        W46015  15.466   9.807   0.913  0.0974  0.1280  0.1740
30122W        W46016   5.869  17.614  12.947  0.3774 -0.0414 -0.0489
30123W        W46017   0.101  11.948   3.684 -0.3640 -0.5534 -0.2177
30124W        W46018   0.914  16.911  16.565  0.1329  0.1649  0.0292
30125W        W46019   1.828  11.926  15.068  0.1065 -0.1219  0.1271
30126W        W46020  15.252  15.475   5.867  0.1836 -0.0122  0.1238
30127W        W46021  15.683  17.235   5.343 -0.3326 -0.0872 -0.2039
30128W        W46022   3.175  14.351   0.289 -0.2438  0.2692 -0.3632
30129W        W46023  13.752   5.500  11.968 -0.2463  0.2451  0.0374
30130W        W46024  10.083   5.687   0.832  0.0064 -0.1129 -0.1150
30131W        W46025   2.162   1.057  16.521 -0.0965  0.1344 -0.2242
30132W        W46026   5.150   4.091  16.796 -0.0756 -0.3453  0.3596
30133W        W46027   3.467  10.590  16.561 -0.0204 -0.0993 -0.4268
30134W        W46028  12.759  10.309   4.876 -0.0363  0.1168  0.1746
30135W        W46029   7.088  14.911   3.816  0.0795  0.0856  0.3289
30136W        W46030   8.261  15.077   2.909  0.0956  0.0059  0.1128
30137W        W46031   4.997   3.517   3.531 -0.1804  0.0255  0.2119
30138W        W46032   2.480   0.369  15.789  0.0233 -0.5448  0.2826
30139W        W46033   5.878   4.114  15.969  0.1688 -0.2677  0.3331
30140W        W46034  14.293  13.647  14.216  0.1546  0.0012 -0.0781
30141W        W46035  12.602  15.911  12.234  0.1546 -0.3199  0.2320
30142W        W46036   0.172  16.097  12.557 -0.1869 -0.1346 -0.1436
30143W        W46037  15.781  17.070  15.000  0.0260  0.3880 -0.1491
30144W        W46038  10.797  14.738   3.994  0.0743 -0.2044 -0.2426
30145W        W46039  13.661  13.330   3.819 -0.2094  0.1421 -0.4306
30146W        W46040   1.737   1.832   1.979  0.2876 -0.3231 -0.0516
30147W        W46041  15.754   4.430  15.091  0.1577 -0.1610  0.0085
30148W        W46042   6.141  14.583   1.293 -0.0369  0.0783 -0.0657
30149W        W46043   1.071  13.649   5.741  0.4072  0.3345  0.0464
30150W        W46044   9.653  14.961  16.380  0.0266 -0.0570  0.0197
30151W        W46045  10.651   8.410  14.783  0.0658 -0.0093 -0.0656
30152W        W46046   0.735  10.718   6.457  0.2234 -0.1388 -0.1600
30153W        W46047   9.898  14.395   4.776  0.0210 -0.1105 -0.1700
30154W        W46048   8.678   4.679  14.602 -0.1422 -0.1549  0.1630
30155W        W46049  10.725   5.824   3.182  0.1199 -0.1203 -0.1857
30156W        W46050  12.677   7.655   0.764  0.0854  0.1866 -0.0214
30157W        W46051  16.921   2.808  11.441 -0.3049 -0.0657 -0.3685
30158W        W46052   1.580   1.498   0.053  0.1789 -0.4008  0.1300
30159W        W46053   4.359   7.165   5.146 -0.0794  0.4194 -0.0428
30160W        W46054  12.721  11.601   5.190  0.0746  0.1558  0.1913
30161W        W46055  14.181   8.766   2.476 -0.0223  0.0653 -0.1782
30162W        W46056  16.852  17.832  15.173  0.3086  0.2743 -0.0472
30163W        W46057  12.807  15.290   4.314 -0.1559  0.0274 -0.0520
30164W        W46058  10.195  10.928   3.232 -0.0617 -0.1106 -0.1488
30165W        W46059   5.240  13.067  11.573  0.0289  0.0898  0.1761
30166W        W46060  16.880   1.657   5.499 -0.1372 -0.0762  0.1258
30167W        W46061   8.862   7.911  13.012 -0.0669 -0.2377  0.1794
30168W        W46062  15.579   1.259   3.620 -0.1532 -0.1457  0.2074
30169W        W46063  15.570  14.021  12.074  0.2554  0.3064 -0.2399
30170W        W46064   5.834   3.946  15.090  0.0319 -0.1646  0.4553
30171W        W46065  15.412  17.340   2.877  0.0756  0.0322 -0.1565
30172W        W46066  11.357   7.961   2.494 -0.1293 -0.0226  0.1218
30173W        W46067   8.918   3.511   4.057 -0.0310 -0.1325  0.1797
30174W        W46068  11.911   8.991  12.839  0.0929 -0.2449  0.2292
30175W        W46069   1.802   0.991   3.585  0.0365 -0.1411 -0.2680
30176W        W46070   2.256   5.803   5.146 -0.0736  0.2990 -0.3542
30177W        W46071  14.781  11.355  16.534 -0.3336 -0.1710 -0.0783
30178W        W46072  10.758   5.788   0.144 -0.6815  0.0896 -0.1598
30179W        W46073  14.351  13.709   6.124  0.0413 -0.2000 -0.1537
30180W        W46074  10.588   1.926   0.480  0.1774  0.2319  0.0577
30181W        W46075  12.163   4.530  16.484  0.1434  0.1190 -0.1973
30182W        W46076   1.182   6.213  14.782 -0.0179  0.1709 -0.0756
30183W        W46077   1.313   3.948   3.419  0.3891 -0.0862  0.2054
30184W        W46078   1.582   6.248  15.037  0.0468 -0.1796 -0.1134
30185W        W46079  13.111   8.066  15.391  0.1240 -0.0960  0.1372
30186W        W46080   0.042   5.662   0.537  0.0682 -0.1129  0.0723
30187W        W46081   1.012   0.122   5.368 -0.0670 -0.3437 -0.1317
30188W        W46082  10.261   7.774   1.208  0.1924 -0.1346  0.0120
30189W        W46083   8.749   9.618  15.229 -0.0013 -0.0621 -0.2173
30190W        W46084   1.024   8.586   3.453  0.1809  0.0395 -0.0108
30191W        W46085  13.312   1.671   4.796 -0.2250 -0.0345 -0.4033
30192W        W46086  14.832  11.009   5.712  0.0070 -0.0407  0.2564
30193W        W46087  16.335  13.783  14.397 -0.0789 -0.0153  0.1810
30194W        W46088   3.651   0.812  14.272 -0.1007  0.1818  0.0149
30195W        W46089  10.029  16.871  13.586 -0.2035  0.0726  0.1383
30196W        W46090   2.282  15.463   5.208  0.1730  0.0909  0.1079
30197W        W46091  12.595  15.338   4.782  0.0608 -0.0213  0.2103
30198W        W46092   2.724   4.571   0.977  0.0188 -0.1311 -0.4115
30199W        W46093  14.169   6.366  15.065 -0.4295  0.0954 -0.1605
30200W        W46094   9.124   8.118   6.266 -0.1075  0.2696  0.1632
30201W        W46095  15.502  13.862   5.300 -0.1406 -0.0917  0.0324
30202W        W46096   1.731  10.484   1.558 -0.0037  0.0072 -0.1333
30203W        W46097   7.461   7.302   6.541 -0.0094  0.1386 -0.1509
30204W        W46098  11.531  11.965   5.078 -0.0120  0.0524  0.0331
30205W        W46099   9.312   8.467  12.561 -0.0851 -0.0072 -0.1130
30206W        W46100   4.049   0.418  15.954 -0.0711  0.0161 -0.2209
30207W        W46101  14.457  11.103   0.877  0.2441  0.1575  0.0548
30208W        W46102   9.531   4.759   1.156 -0.1293  0.2128 -0.2371
30209W        W46103   9.231   4.315   4.377  0.1630  0.2390  0.1996
30210W        W46104  12.651   2.108   3.479  0.3773 -0.0394 -0.1963
30211W        W46105   5.187  11.257  12.392 -0.1696  0.1085  0.1067
30212W        W46106  14.385  17.238   4.843  0.2485  0.1866  0.0518
30213W        W46107   2.866   4.019   1.286  0.1433  0.0173  0.0484
30214W        W46108   0.302  13.695   2.151  0.2755 -0.3038 -0.4462
30215W        W46109  10.517   9.953   1.935  0.0532 -0.1049 -0.3645
30216W        W46110  14.333  11.122   5.713  0.0591  0.0852  0.1481
30217W        W46111   7.093  13.590   3.944 -0.0175 -0.0189 -0.1406
30218W        W46112  16.757  13.549  14.376 -0.3737 -0.0357  0.0354
30219W        W46113   5.512   3.428  12.185  0.2619  0.0245 -0.0839
30220W        W46114   1.472   4.765  11.817  0.1915 -0.0557  0.1504
30221W        W46115   4.993   0.146  13.898 -0.0624 -0.0885  0.1613
30222W        W46116   9.663  10.694   1.986 -0.1667  0.1232  0.1578
30223W        W46117   0.726   7.807   1.542  0.0848  0.2955  0.3249
30224W        W46118   5.834   7.769   2.646  0.0819 -0.0753  0.2762
30225W        W46119   8.226  13.257  15.599 -0.0374 -0.0432  0.3435
30226W        W46120   2.461  12.947   3.714 -0.1690  0.2241 -0.2650
30227W        W46121  17.252   8.814   4.441  0.0985  0.0216  0.3497
30228W        W46122   7.944   9.887  15.266 -0.2672 -0.0938 -0.1494
30229W        W46123   4.375   0.753  13.449 -0.2574  0.0622 -0.0489
30230W        W46124   8.915  15.966  16.182 -0.0854 -0.2261  0.1469
30231W        W46125  14.030   4.735   1.359  0.1131  0.0538  0.0179
30232W        W46126  11.329   5.306  14.406  0.2464  0.1253 -0.0867
30233W        W46127   7.074   9.460  15.850  0.1580 -0.0039 -0.3875
30234W        W46128   4.521  16.992   3.087 -0.1429 -0.0134 -0.0270
30235W        W46129   7.055  11.971   1.758 -0.0482  0.1348 -0.1911
30236W        W46130  10.025   8.677   2.636  0.0672  0.0156  0.1775
30237W        W46131  11.209  11.220  15.813  0.0313 -0.0829  0.1649
30238W        W46132  11.802  10.243   1.432  0.1935 -0.0396  0.4266
30239W        W46133   1.355   7.482  10.510  0.0499 -0.2880 -0.2365
30240W        W46134   7.728  15.427   3.325 -0.1564 -0.0872  0.2502
30241W        W46135  16.167  11.587  15.978 -0.1985 -0.1408  0.0383
30242W        W46136  15.070  16.665   1.858 -0.0165  0.2138 -0.1210
30243W        W46137   0.536   0.836   1.414  0.1200  0.1373  0.0317
30244W        W46138  12.284  14.866   1.088  0.1332 -0.0618 -0.0210
30245W        W46139  12.617  13.562  14.139  0.1668 -0.3409 -0.0930
30246W        W46140  15.443  15.910   1.155 -0.0538 -0.1964 -0.1048
30247W        W46141   3.478   3.579  10.576 -0.1216  0.2924  0.1569
30248W        W46142  15.429  17.030  12.539 -0.1973  0.0911 -0.0495
30249W        W46143   2.683   4.229   2.250  0.3783  0.2358 -0.0349
30250W        W46144   8.925  14.188  12.558  0.4215 -0.1063  0.0132
30251W        W46145   2.869  17.283  12.219 -0.0182  0.1706 -0.1873
30252W        W46146   3.866   8.391   4.097  0.0739  0.3614 -0.3346
30253W        W46147   5.259  14.315  14.332  0.1768 -0.0591 -0.1970
30254W        W46148  13.132   1.935   3.600 -0.2352  0.0439 -0.1889
30255W        W46149  14.244  17.163  13.020 -0.1471  0.0506 -0.3686
30256W        W46150   9.152  12.379   1.628 -0.2349  0.3178  0.1506
30257W        W46151  11.352   8.383   1.281  0.0214 -0.2407  0.1951
30258W        W46152  15.788   4.309  11.137 -0.0809 -0.4413  0.3398
30259W        W46153   5.202  14.204   5.049 -0.0009 -0.1066  0.0244
30260W        W46154   9.569   3.666   5.845  0.0104 -0.2403  0.3631
30261W        W46155  17.286   5.369   3.694 -0.1035 -0.1385 -0.2249
30262W        W46156  15.255   7.783   3.892  0.0255  0.0063 -0.4758
30263W        W46157  13.046   2.540  11.832  0.3185  0.1657 -0.0762
30264W        W46158   7.553   7.612  16.114  0.3074 -0.1943 -0.1545
30265W        W46159   9.578   2.299   1.731  0.0327 -0.2915  0.2780
30266W        W46160   9.888   0.333   1.145  0.0641 -0.0736 -0.1975
30267W        W46161   8.298   7.152   2.422 -0.0271 -0.3126  0.1960
30268W        W46162  12.791  13.805   5.332 -0.1864 -0.4753 -0.0134
30269W        W46163  13.782   7.584  14.107 -0.1575  0.3769  0.1978
30270W        W46164  17.235   1.451  12.781 -0.1097 -0.1596 -0.4120
30271W        W46165  17.440   1.836   4.341  0.0526 -0.1124 -0.2121
30272W        W46166   0.419   0.251  16.483  0.0473  0.1907  0.2260
30273W        W46167  17.703   6.105   1.482 -0.0518 -0.1368  0.3020
30274W        W46168  16.855  15.996  13.901  0.2127  0.1364 -0.1281
30275W        W46169   4.403   9.112  15.732  0.1794  0.1994  0.0812
30276W        W46170  10.993   1.282  14.118  0.1101 -0.2922  0.2285
30277W        W46171  16.626   8.805  16.833 -0.1042 -0.0438  0.3059
30278W        W46172   6.960   9.713  13.747  0.2365  0.0553  0.0570
30279W        W46173   9.941  14.755  15.363  0.1245 -0.1779 -0.1988
30280W        W46174  15.470  17.382   2.346  0.3341  0.2380  0.1466
30281W        W46175  12.370  11.163   5.350 -0.0408 -0.1829  0.2608
30282W        W46176   0.197  15.963  14.015 -0.1633  0.0595  0.0283
30283W        W46177  12.330   3.191  13.858  0.1932 -0.0540  0.1056
30284W        W46178   1.770   0.314  12.715  0.0583 -0.0786 -0.1484
30285W        W46179   1.942  16.826  14.097  0.1153 -0.0976  0.1305
30286W        W46180  13.757   1.316  14.841 -0.1432  0.0542 -0.1139
30287W        W46181   0.860  13.361   3.256 -0.3266 -0.0859 -0.0298
30288W        W46182  10.485   8.775   2.447  0.0188 -0.0004 -0.1866
30289W        W46183   6.043   8.681  14.845  0.1137 -0.4082  0.0590
30290W        W46184  16.964   3.228   5.537  0.2727  0.1165 -0.0736
30291W        W46185  16.046  11.158   5.285 -0.1996  0.2230 -0.2534
30292W        W46186  11.033   4.245   1.254  0.1227  0.0358 -0.3423
30293W        W46187  10.496   8.663   0.984 -0.0375 -0.1287  0.3194
30294W        W46188   0.183   5.124   1.917 -0.2613  0.3198  0.0880
30295W        W46189   9.339   6.091  16.147  0.1316 -0.2308 -0.1900
30296W        W46190   8.187   9.962   5.958  0.1915  0.2748 -0.1946
30297W        W46191  13.254   1.202   5.007  0.1331 -0.3090 -0.3395
30298W        W46192  14.237  17.547   1.767  0.0415 -0.0752  0.0652
30299W        W46193   3.149   6.825  11.357  0.0869 -0.4300  0.2584
30300W        W46194   8.248  10.657  16.457 -0.2611  0.3981  0.0286
30301W        W46195   2.365  14.506   2.817 -0.2326  0.2396 -0.1103
30302W        W46196   7.145   9.919  14.785 -0.0151  0.1394  0.0677
30303W        W46197  14.710  12.377   1.759 -0.1754 -0.2137 -0.1911
30304W        W46198   3.512   0.384  14.400 -0.0099 -0.1287  0.0795
30305W        W46199   5.676  15.119  12.523 -0.0008 -0.3100  0.2773
30306W        W46200   0.744  12.642  12.687 -0.3146  0.1148  0.2296
30307W        W46201   7.127   6.113  14.990 -0.1072  0.0525 -0.0004
30308W        W46202   2.878  13.775  16.468 -0.0655 -0.1719  0.0986
30309W        W46203  11.322  15.835  11.914  0.2738  0.2713 -0.0824
30310W        W46204   2.060   6.602   4.623  0.3243 -0.0730 -0.0609
30311W        W46205   6.379   2.467   4.542 -0.2088  0.0907  0.0771
30312W        W46206   2.292   5.927  12.158 -0.0765 -0.0972  0.1713
30313W        W46207  13.433  11.371  15.966  0.0204 -0.1016  0.0584
30314W        W46208   4.735  14.963   0.800 -0.1806 -0.0920  0.0164
30315W        W46209   9.103  17.634  12.951  0.0818  0.1959  0.2911
30316W        W46210   6.264  15.412   0.242  0.3802  0.0947  0.2833
30317W        W46211  17.479   4.452  15.320 -0.0535 -0.0056  0.1498
30318W        W46212   5.180   4.588  16.196  0.0170 -0.0688 -0.0448
30319W        W46213  12.616   1.109  15.466 -0.1888  0.4687  0.0304
30320W        W46214  10.226   3.204   0.426 -0.0315 -0.0162 -0.0716
30321W        W46215   1.175   0.388  11.250 -0.0060 -0.3255  0.0211
30322W        W46216   4.359   5.893  12.938 -0.0003 -0.1868 -0.1273
30323W        W46217   0.955   7.488   4.161 -0.2176 -0.0673 -0.0419
30324W        W46218   1.701   9.830  11.013 -0.0610 -0.0140  0.1707
30325W        W46219   3.845   7.462  12.441 -0.0041 -0.1456 -0.0366
30326W        W46220   8.906   6.844  15.618  0.2752 -0.0854  0.1865
30327W        W46221   1.584  14.596  16.106 -0.2386 -0.1048  0.4006
30328W        W46222   9.911  16.535  13.213  0.3412 -0.0944 -0.3010
30329W        W46223  10.899   1.365  15.030 -0.0073 -0.1987  0.1618
30330W        W46224   8.805  12.457  16.761  0.1099  0.0635  0.1913
30331W        W46225  12.007   1.621  16.484  0.0860  0.2058 -0.2148
30332W        W46226   2.867   2.363  13.450  0.3044  0.0172  0.1129
30333W        W46227  15.146   7.297   0.814 -0.0593  0.0086 -0.2775
30334W        W46228   2.356   4.228  11.236  0.0105 -0.0037 -0.1999
30335W        W46229  16.991   8.087   0.471 -0.2232 -0.0047 -0.0964
30336W        W46230  16.926  14.390   0.452 -0.2787  0.0733 -0.0271
30337W        W46231   8.543  13.809   4.704 -0.1537  0.4136  0.0278
30338W        W46232   6.460  16.586  14.373  0.0519  0.2907 -0.0794
30339W        W46233   1.134   3.241  13.795 -0.0484 -0.1285 -0.0368
30340W        W46234  17.215   3.739  10.991  0.1063  0.1682 -0.2049
30341W        W46235  10.562  10.606   1.816  0.0359 -0.3297  0.0142
30342W        W46236   7.512   8.591   1.621 -0.1523 -0.0298 -0.1082
30343W        W46237   6.061  16.072   5.690  0.2787  0.1183  0.0584
30344W        W46238   6.352   8.208  13.015 -0.0479 -0.1155 -0.2478
30345W        W46239   1.485  14.218   0.675  0.2357  0.3684  0.0650
30346W        W46240   6.090   7.866  16.379 -0.0371 -0.1097 -0.3989
30347W        W46241  17.111  13.467   2.064  0.2653  0.0958 -0.0387
30348W        W46242  17.206   2.505   4.249 -0.1115 -0.0697  0.0557
30349W        W46243   9.169  10.783  12.630  0.0805 -0.1147 -0.0085
30350W        W46244  17.619   9.271  12.035  0.2826  0.0403  0.3129
30351W        W46245  12.460   7.828  12.240 -0.0976  0.1807 -0.0641
30352W        W46246   8.797  10.053  13.908 -0.1187 -0.3405  0.1833
30353W        W46247  13.271   3.770   3.833  0.0707 -0.2332  0.2230
30354W        W46248  17.661  11.429   0.475  0.0582  0.3273  0.2135
30355W        W46249   7.913   7.026  13.024  0.1187  0.1880 -0.0026
30356W        W46250  12.406   6.780  12.415 -0.3682  0.1689  0.1144
30357W        W46251   7.925   7.118   2.921 -0.0047  0.0415  0.5663
30358W        W46252   0.490  12.905   3.249  0.2174  0.3697 -0.1094
30359W        W46253  14.334   2.705   3.600 -0.0028  0.1724  0.1030
30360W        W46254   4.212   0.598   0.143 -0.1836  0.1247  0.1093
30361W        W46255  12.411   9.621  12.639 -0.1467 -0.2917  0.3893
30362W        W46256   8.586   0.645   2.829  0.1041 -0.2071 -0.0845
30363W        W46257  11.623   0.240   0.777 -0.0399 -0.0735 -0.0913
30364W        W46258  11.008   1.094   1.627  0.1597  0.2587 -0.4845
30365W        W46259  11.653   2.515   4.920  0.0161 -0.2620 -0.1110
30366W        W46260  16.647   1.624  15.846  0.1457  0.0049 -0.0676
30367W        W46261  10.616  15.814   5.486  0.3755  0.1552  0.1177
30368W        W46262  12.349   0.364   2.434 -0.1939 -0.0448  0.2082
30369W        W46263  17.186   4.483  11.817 -0.1819  0.1621  0.0477
30370W        W46264  15.744  15.693   1.847  0.1450 -0.3030  0.0523
30371W        W46265  16.336  15.321   3.052 -0.1841 -0.0471  0.0926
30372W        W46266   8.629  14.808   1.093 -0.0166  0.0088  0.1830
30373W        W46267  14.700   7.111  14.067  0.0770 -0.1252 -0.0313
30374W        W46268   2.352  13.148  13.697  0.0388 -0.3721  0.1015
30375W        W46269  14.618  16.440  15.660 -0.0393  0.0931  0.0638
30376W        W46270   5.496  13.004  14.736  0.0587  0.1285 -0.2519
30377W        W46271   9.219   4.139  13.559  0.0228 -0.2879  0.1703
30378W        W46272  16.040  15.495   1.502 -0.1095  0.4788 -0.1130
30379W        W46273  16.744  10.000   0.679  0.0207  0.0004  0.1583
30380W        W46274  10.125   1.648   5.499  0.0366 -0.1803 -0.2060
30381W        W46275  12.506   2.437   3.791 -0.0732  0.0221  0.4485
30382W        W46276  14.664  11.296   2.466  0.0861  0.2396  0.0185
30383W        W46277  10.742   4.315  10.829 -0.4747  0.3056 -0.4090
30384W        W46278  16.439   1.327   3.431  0.1718  0.1417 -0.0221
30385W        W46279  10.114  17.602   1.153  0.2043 -0.2001  0.2959
30386W        W46280   7.092  11.117  13.339 -0.0559  0.2548 -0.0443
30387W        W46281  11.970   1.681  11.254  0.1845 -0.1677 -0.0030
30388W        W46282   2.162  12.580   3.569 -0.0591 -0.2761  0.2093
30389W        W46283   1.119   4.502   0.643 -0.1360  0.2626 -0.0761
30390W        W46284   6.935  15.159  14.909 -0.2189  0.0858 -0.0636
30391W        W46285  17.037  16.811   3.448  0.0251 -0.3467  0.1015
30392W        W46286   3.674  15.520  14.486  0.3864  0.0032  0.0048
30393W        W46287  10.801  17.506  12.623 -0.1770  0.1586 -0.3531
30394W        W46288   5.589  17.517  16.285 -0.1996 -0.0795  0.0054
30395W        W46289   9.204  12.804  16.816 -0.0413 -0.0526 -0.0382
30396W        W46290   3.794   7.696  13.751 -0.0565 -0.0535 -0.2317
30397W        W46291   8.391   4.618  16.297 -0.1468 -0.1808  0.1529
30398W        W46292   9.034   0.226  16.538 -0.2112 -0.2102 -0.0437
30399W        W46293   5.214   0.939   5.901 -0.2443  0.0448  0.0803
30400W        W46294   1.771   5.853  13.946 -0.0446 -0.3514  0.0646
30401W        W46295   4.478   8.487  16.853  0.1280  0.1212 -0.2368
30402W        W46296   3.710   9.208   3.552 -0.3845  0.1684  0.3737
30403W        W46297  15.483  16.454  11.794 -0.0472  0.1406  0.2433
30404W        W46298  10.157   4.231  13.429  0.2820 -0.0042  0.0360
30405W        W46299  15.746  14.675   1.272 -0.4253 -0.2395  0.0487
30406W        W46300  12.872   6.317  15.447  0.4166  0.1802 -0.1926
30407W        W46301   8.421   3.056  13.421 -0.0539  0.2194  0.2722
30408W        W46302   5.657  14.544  13.900  0.1844 -0.0773  0.0771
30409W        W46303   6.396  13.938  15.894 -0.1455  0.2950 -0.0492
30410W        W46304   5.583  11.252  15.548  0.2044  0.1133  0.5040
30411W        W46305  11.392   3.568   5.015  0.3143 -0.0985  0.0647
30412W        W46306  12.680   6.949   5.253 -0.0992 -0.0407  0.4462
30413W        W46307   6.663   1.985  11.572  0.1974  0.0157 -0.2084
30414W        W46308  15.023   2.405  13.200 -0.2100  0.1469 -0.0676
30415W        W46309   7.427  13.710   3.269 -0.0790  0.1960 -0.0274
30416W        W46310   7.576   0.881  14.683  0.1528  0.0805 -0.0245
30417W        W46311   3.959  11.143   2.704  0.0647  0.2450 -0.0915
30418W        W46312   9.273   9.035   3.710  0.1474  0.1363  0.0641
30419W        W46313  11.881   6.247  15.204 -0.0956 -0.0316  0.3416
30420W        W46314  14.304   8.753   1.967 -0.5035 -0.3521  0.1971
30421W        W46315  11.054  10.135  14.075 -0.0167 -0.1731 -0.0836
30422W        W46316  15.983  11.492   1.759  0.1349  0.1285  0.0856
30423W        W46317   9.476  14.646   4.117  0.2783  0.4443  0.0973
30424W        W46318   9.419   5.534   5.351 -0.1847  0.0644  0.3618
30425W        W46319   0.176  16.217   1.475 -0.0364 -0.1981  0.1549
30426W        W46320   2.670  10.727   3.577  0.3185 -0.0681  0.0248
30427W        W46321   8.950  15.245   5.919 -0.2501  0.0445  0.3874
30428W        W46322  10.964   7.807   2.271 -0.1687 -0.0267 -0.0683
30429W        W46323   3.738   8.765  13.353  0.3853 -0.0753  0.0609
30430W        W46324   5.288   4.245  13.548  0.1079  0.1321 -0.0405
30431W        W46325   4.486   5.497   0.707  0.0196  0.0264 -0.2475
30432W        W46326  17.196   9.809   4.453  0.0333 -0.0171 -0.3815
30433W        W46327  15.547  17.433  13.208 -0.0036 -0.3722 -0.3736
30434W        W46328   2.401   0.367   5.381  0.0399 -0.2460 -0.2104
30435W        W46329   8.434   7.052   3.724 -0.1452  0.2797  0.0603
30436W        W46330   8.109  10.423   3.875 -0.0495 -0.2191  0.0415
30437W        W46331   7.641   8.061  14.815  0.2370  0.2561 -0.0409
30438W        W46332   1.193  12.661   5.613  0.1219  0.2302  0.1248
30439W        W46333  12.060  10.793   0.166 -0.0921 -0.4253 -0.0029
30440W        W46334   2.490  16.805   5.018  0.1303  0.2361  0.0759
30441W        W46335  11.403   5.959  15.270  0.3493  0.3940  0.0620
30442W        W46336  10.942  13.730   2.737 -0.0071 -0.0201 -0.1157
30443W        W46337  17.280  16.123  13.586  0.1635 -0.0709  0.2686
30444W        W46338  16.737  11.786  13.078 -0.0703 -0.0341  0.2381
30445W        W46339  12.469   4.612  12.093  0.0015  0.0525  0.1373
30446W        W46340  10.562  14.763   0.854  0.1576  0.0027 -0.1513
30447W        W46341   3.665  17.435  13.891 -0.1939 -0.0521  0.2749
30448W        W46342  15.624   0.341   1.719 -0.2047  0.1760  0.1040
30449W        W46343  16.904  12.049   3.697 -0.1625 -0.0026 -0.0254
30450W        W46344  13.507   7.468   3.161 -0.0604  0.1419 -0.0850
30451W        W46345  11.839   2.398  15.412 -0.0690 -0.0787 -0.2626
30452W        W46346   6.539  12.859   4.877  0.0747 -0.2948 -0.0527
30453W        W46347  13.104  17.132  11.530 -0.1591 -0.1159  0.1782
30454W        W46348  10.003  10.577   4.913  0.0943  0.2162 -0.1919
30455W        W46349   5.344   0.859  13.389 -0.3158  0.0980 -0.0980
30456W        W46350   2.382   5.939   4.105 -0.0456 -0.0397 -0.1189
30457W        W46351   1.127  13.487  14.986  0.0021 -0.2654  0.0525
30458W        W46352  12.507   6.168   3.991  0.0884 -0.1510 -0.2406
30459W        W46353  14.731   6.488   4.048  0.1635  0.0484  0.2956
30460W        W46354   8.664  10.905  13.751 -0.1485 -0.0763  0.2381
30461W        W46355  17.014   9.413  13.572  0.0224 -0.1806 -0.2314
30462W        W46356   1.247  10.627  12.496 -0.1037  0.0675  0.4177
30463W        W46357  11.241  16.554   4.387 -0.4009 -0.0053 -0.0990
30464W        W46358  16.435  14.589   3.607 -0.0182 -0.0850  0.3095
30465W        W46359  12.470   5.331  16.760 -0.0280  0.3427  0.1002
30466W        W46360   9.585  16.275   4.821 -0.3591  0.0164  0.0594
30467W        W46361   1.123   5.210   0.715  0.0481 -0.0061 -0.0284
30468W        W46362  11.805   9.621  13.794 -0.2108 -0.1293  0.3869
30469W        W46363   8.608   3.947  13.033 -0.3888 -0.1911 -0.2465
30470W        W46364  16.887  12.833   1.255  0.1201 -0.2859 -0.3343
30471W        W46365  15.902   6.245   4.871 -0.1966 -0.0057 -0.0275
30472W        W46366  10.185   4.931   4.440  0.0846 -0.1739 -0.0003
30473W        W46367  14.727  12.012   0.773  0.2951  0.0215  0.0353
30474W        W46368   8.361  15.499   0.078  0.1066  0.0518  0.0429
30475W        W46369  12.725  11.574   1.074 -0.1070 -0.1168  0.2263
30476W        W46370   7.282  15.051   1.629 -0.0774 -0.0256 -0.3435
30477W        W46371   5.523   1.047  15.133  0.1866  0.0697  0.0402
30478W        W46372  14.740   4.258  14.444 -0.0328 -0.1125 -0.1531
30479W        W46373   2.282   9.598  16.921 -0.0636 -0.1608  0.4528
30480W        W46374  10.839   6.131  12.240 -0.0590 -0.2794 -0.3042
30481W        W46375  12.851   2.143  13.002  0.0715  0.2894 -0.1199
30482W        W46376  16.086  13.140   2.063  0.1233 -0.0754  0.1144
30483W        W46377   2.107   6.301   3.839  0.1719 -0.3917  0.1040
30484W        W46378   0.078  14.395  14.091 -0.1243  0.0376 -0.0242
30485W        W46379   5.052   8.584  15.491 -0.1440 -0.1691  0.0177
30486W        W46380   6.815  15.334   2.756 -0.3472 -0.0173 -0.0894
30487W        W46381   2.809  12.954  11.900  0.0437 -0.0140  0.1355
30488W        W46382   6.790   5.205  14.191  0.0081 -0.1911 -0.4317
30489W        W46383  13.899   0.630  16.801 -0.2402 -0.0148  0.0408
30490W        W46384   1.377  12.286   4.152  0.1858  0.2002  0.2821
30491W        W46385   7.829   6.040   3.669 -0.0815 -0.1571 -0.4691
30492W        W46386  16.841   4.332  11.210 -0.0767 -0.0987  0.1044
30493W        W46387   8.913   1.402  15.874 -0.1327  0.0815  0.1017
30494W        W46388  12.570  14.934  16.877  0.1329 -0.3212 -0.2949
30495W        W46389   4.441  11.002   4.589 -0.0994 -0.0198 -0.1091
30496W        W46390   9.727  13.603   5.240  0.2686 -0.0166 -0.1723
30497W        W46391  15.316   8.217  16.170 -0.0366 -0.1024 -0.1363
30498W        W46392  13.755  10.048   2.330 -0.0732 -0.0126 -0.1431
30499W        W46393   1.167   0.631   1.203  0.1856 -0.1421  0.4143
30500W        W46394   2.660  12.779  13.838  0.1085  0.0288  0.0171
30501W        W46395  15.339  13.525   5.636  0.1447 -0.0356  0.0566
30502W        W46396  16.838   6.329  14.175  0.0686 -0.3747 -0.0097
30503W        W46397  14.351  16.808  14.464  0.0100  0.1983 -0.1219
30504W        W46398   0.927   8.266   1.224  0.0851 -0.0032 -0.1523
30505W        W46399   3.110  13.232  15.750 -0.2350 -0.0801 -0.2183
30506W        W46400   6.057  13.611  13.754 -0.0374  0.3185  0.1617
30507W        W46401  10.713  13.055  16.442  0.1194  0.0668 -0.0569
30508W        W46402   8.709   0.693  13.208  0.1011 -0.0446  0.0706
30509W        W46403   0.410   9.110  13.473  0.0384 -0.1042 -0.0624
30510W        W46404   6.806  17.088   0.983 -0.1873 -0.3093 -0.1338
30511W        W46405   4.341   1.009   2.733 -0.1562  0.1213  0.1651
30512W        W46406  16.248   9.604   0.478  0.1243 -0.0116 -0.2312
30513W        W46407   0.829  10.703   3.399 -0.0053  0.0737  0.0602
30514W        W46408   0.462  17.808  12.895  0.0283  0.2654  0.1599
30515W        W46409  14.789  12.395   3.183 -0.4444  0.1660 -0.0719
30516W        W46410   8.638  11.486   2.584 -0.0575 -0.0464  0.0198
30517W        W46411   8.416  12.232   2.432 -0.0923 -0.0450 -0.0641
30518W        W46412  10.835  17.036   3.669  0.4547  0.1108 -0.3452
30519W        W46413  11.623  14.530   1.095 -0.0039 -0.3416  0.1556
30520W        W46414   3.126   2.302  10.895  0.1038  0.1424 -0.0866
30521W        W46415   1.802   0.339  10.483 -0.0426  0.4399 -0.0851
30522W        W46416   6.665  17.617  15.166 -0.0573  0.0734  0.0731
30523W        W46417   3.949  13.188  16.916  0.0765  0.2809 -0.2590
30524W        W46418  15.810   5.163   2.833 -0.1180 -0.2089  0.0754
30525W        W46419  12.597  16.646  16.501 -0.1524 -0.3807  0.0181
30526W        W46420   5.689  10.314  14.596  0.2808 -0.0780 -0.3331
30527W        W46421   3.466   7.781  15.916 -0.1307 -0.4073  0.1906
30528W        W46422  16.561   0.515  16.768  0.1161 -0.0581 -0.1906
30529W        W46423  17.478  13.845   3.533  0.0864 -0.1947  0.0918
30530W        W46424   1.851  11.718  13.592  0.0511 -0.2146  0.0249
30531W        W46425   3.707   8.961  12.863 -0.1821 -0.0177  0.0886
30532W        W46426   8.939  10.984   5.725 -0.0678 -0.1043  0.1177
30533W        W46427   4.005  11.327  13.050 -0.3590 -0.2960  0.3097
30534W        W46428  14.430   6.261   4.352 -0.1842 -0.0071  0.1752
30535W        W46429  13.457   8.270  15.977  0.2150  0.3624 -0.0482
30536W        W46430   5.995  13.213  13.431  0.0689 -0.0275  0.1446
30537W        W46431   1.115   3.052   2.435  0.1334  0.0544 -0.0510
30538W        W46432   0.213   9.310  16.032 -0.2072  0.0953 -0.0877
30539W        W46433  13.472  11.883  15.933  0.1696 -0.0490 -0.2375
30540W        W46434  16.651  16.747   5.373 -0.1948  0.0626  0.0071
30541W        W46435  11.285  12.941   2.795 -0.0842  0.0186  0.0982
30542W        W46436   7.707   1.859   0.938 -0.1797 -0.0200 -0.3148
30543W        W46437   4.118   4.802  13.619 -0.0828 -0.1020 -0.1286
30544W        W46438  11.761  11.253   3.879 -0.0269  0.0317  0.0917
30545W        W46439   5.966   2.506   0.030  0.1265  0.2074 -0.1178
30546W        W46440   6.896   8.992  14.285  0.3815  0.2225  0.0112
30547W        W46441  15.930  11.013  14.972  0.1825 -0.0938  0.2206
30548W        W46442  14.484   8.764  13.259 -0.0233  0.1816  0.1655
30549W        W46443  15.953  13.358  14.952 -0.0549 -0.0642  0.0326
30550W        W46444   3.068   1.072   4.367 -0.1567  0.2333  0.2505
30551W        W46445  12.196  10.414  14.719 -0.4165  0.0169 -0.1613
30552W        W46446  15.442   7.746  13.440  0.2391 -0.2851 -0.4922
30553W        W46447   4.932  17.626   5.499  0.0292  0.0069  0.0526
30554W        W46448  10.781  13.137  14.159 -0.5349 -0.3389  0.2399
30555W        W46449   0.853   1.340   5.732  0.1834 -0.0107  0.3893
30556W        W46450   7.344   0.073  15.219  0.2355  0.4807 -0.3041
30557W        W46451  12.964  16.523   5.624 -0.1237 -0.0982 -0.1666
30558W        W46452   1.760   1.815   0.518 -0.0042 -0.0098 -0.0689
30559W        W46453  15.878   5.714   0.165  0.1336  0.2094  0.0224
30560W        W46454   9.873   5.145  15.709  0.3265 -0.3152  0.0782
30561W        W46455  13.274  17.623   2.565 -0.0409  0.1486  0.0806
30562W        W46456  14.359  15.905   4.912 -0.0927 -0.2430  0.2226
30563W        W46457   9.804  11.750  14.007  0.1046  0.0851 -0.3066
30564W        W46458  11.722   2.254   1.124  0.1412  0.0662  0.1733
30565W        W46459   4.163   9.338   0.820  0.0805  0.0488  0.1771
30566W        W46460   7.293   8.312   0.885 -0.3036 -0.1107  0.0864
30567W        W46461  15.205  15.989   0.520 -0.2478 -0.0316  0.0030
30568W        W46462  10.296  12.816  16.469 -0.0664 -0.0783  0.2595
30569W        W46463   8.619   6.834   1.214 -0.1912 -0.1506 -0.0586
30570W        W46464  13.398  10.887   0.764  0.0450  0.1111  0.4454
30571W        W46465  13.580  14.397   3.086  0.1960 -0.0155 -0.0800
30572W        W46466   0.648  10.818   2.040 -0.4238 -0.0350 -0.2561
30573W        W46467  17.197   8.098  11.259 -0.2831 -0.0293  0.0169
30574W        W46468  12.487  15.102  12.304 -0.0966 -0.1877 -0.1269
30575W        W46469   7.392  16.873  12.126  0.0852  0.0952 -0.0432
30576W        W46470  10.516   8.936   4.422 -0.1217  0.2490 -0.1509
30577W        W46471  16.819   6.811   0.429 -0.0507  0.1260  0.1493
30578W        W46472   1.152  12.773   0.021 -0.2421  0.2814  0.1071
30579W        W46473   1.286   1.138   4.424  0.0188 -0.1070  0.0395
30580W        W46474  12.578  17.684  12.674 -0.3602  0.3032 -0.1135
30581W        W46475  10.310  12.274  16.867 -0.1506 -0.3808 -0.1102
30582W        W46476  16.465   9.432  16.393 -0.2207 -0.0670  0.2282
30583W        W46477   6.641   9.228   1.516 -0.0389  0.2833 -0.0879
30584W        W46478  12.953   5.076   3.286 -0.1530  0.0088  0.0719
30585W        W46479   3.028  11.678   3.159  0.0094  0.0291 -0.2682
30586W        W46480   2.082  11.798  12.576  0.0219 -0.1414 -0.1279
30587W        W46481   2.646   5.363   0.362  0.0433  0.3844 -0.1474
30588W        W46482  13.552   0.841   4.545 -0.1055 -0.3533  0.0038
30589W        W46483   3.836   9.423   4.465  0.0398  0.0305  0.1160
30590W        W46484  13.762   4.261   2.960 -0.4271 -0.1399  0.1321
30591W        W46485  13.207   5.705   4.916  0.0440  0.0677 -0.3047
30592W        W46486   2.841   9.797  14.700 -0.1798  0.0096 -0.0873
30593W        W46487  11.253   3.802  16.879  0.0226  0.0559 -0.1942
30594W        W46488   5.716  16.054   1.814  0.1221 -0.0571 -0.2931
30595W        W46489  17.591  17.093  14.851  0.1026  0.1502 -0.0631
30596W        W46490  15.415   4.667   4.330  0.0140  0.0006 -0.0374
30597W        W46491   5.015  15.227  13.395  0.0740 -0.0606  0.2082
30598W        W46492  15.545   0.442  13.461  0.1743 -0.0713  0.0241
30599W        W46493   8.014   2.127  12.453  0.0240 -0.1502 -0.1783
30600W        W46494   8.401   0.980   4.017  0.2731  0.0859  0.1368
30601W        W46495  16.886   2.809   0.816 -0.3373 -0.0930 -0.2670
30602W        W46496   3.847   1.704  14.535  0.0805  0.2335 -0.2932
30603W        W46497   7.589   3.706  14.969 -0.0707 -0.0357 -0.2459
30604W        W46498  13.951  12.687   5.257 -0.0392  0.2889  0.0224
30605W        W46499  12.080   2.620   3.568 -0.1134 -0.1434 -0.0896
30606W        W46500  12.783   6.015   4.900  0.2273  0.2702 -0.1699
30607W        W46501   0.317   7.920  12.383  0.0360 -0.1621 -0.1622
30608W        W46502  10.467  16.188  12.177 -0.1451 -0.4158 -0.0775
30609W        W46503  10.556   9.381   0.501 -0.2285  0.0271  0.0617
30610W        W46504   9.368   8.582  16.795  0.0802  0.0122 -0.3597
30611W        W46505   3.978   2.331   4.772 -0.1432 -0.0408  0.1078
30612W        W46506   5.007  12.230  15.276  0.0853 -0.0871  0.1731
30613W        W46507   0.555  10.427  14.996  0.0829 -0.0252 -0.0450
30614W        W46508  11.856   8.289  16.100  0.2723 -0.2264 -0.0420
30615W        W46509   5.429  11.150  14.032 -0.0696 -0.2019  0.0348
30616W        W46510  14.243  12.717  14.419  0.2502  0.0197 -0.0297
30617W        W46511  14.222   4.362  15.986  0.1173 -0.0461 -0.0017
30618W        W46512   5.118   3.659   4.205  0.0889 -0.1420 -0.0426
30619W        W46513  16.326   4.257  13.225  0.2465  0.2801  0.0872
30620W        W46514  10.243   1.318   5.164 -0.0304  0.3478 -0.0270
30621W        W46515   3.475   3.707  13.707 -0.3745 -0.0501 -0.0917
30622W        W46516  16.895   9.806   4.823  0.2595  0.0797 -0.4116
30623W        W46517   1.670   9.248  16.485 -0.0290 -0.0374  0.1145
30624W        W46518  15.233  16.924   5.519  0.0301 -0.0032  0.3455
30625W        W46519   9.567   6.880   2.173  0.2257  0.0872 -0.0287
30626W        W46520   4.226   2.792  13.388 -0.2948  0.0923  0.0758
30627W        W46521  10.965   2.133  15.804 -0.1599 -0.0222 -0.0696
30628W        W46522  10.185   8.187   3.133 -0.0573  0.2803  0.0896
30629W        W46523  13.330   9.060  14.196 -0.0796  0.2689 -0.0615
30630W        W46524  16.075   5.022  12.526  0.1615 -0.0251  0.0026
30631W        W46525  17.037  14.172  14.834 -0.1522  0.0543 -0.0926
30632W        W46526   8.383  16.994   4.483  0.2941 -0.2578  0.3414
30633W        W46527   5.923   3.779  12.246  0.2355  0.1400  0.2613
30634W        W46528   1.686   1.298   2.217  0.3044  0.0418  0.1471
30635W        W46529   1.845  10.934  15.748  0.1602 -0.1839  0.1205
30636W        W46530   5.610  16.993  16.432  0.0040 -0.2305 -0.2522
30637W        W46531  15.085  15.017   3.178 -0.1272 -0.0163  0.0200
30638W        W46532  15.354  12.253  12.250  0.0513  0.1149  0.1203
30639W        W46533  10.830   8.502  11.973  0.1625 -0.1121 -0.0267
30640W        W46534   3.048  17.593   1.116  0.1789  0.1377 -0.2432
30641W        W46535   6.304  12.783  14.720  0.3541  0.2508 -0.1145
30642W        W46536  10.002   5.858   4.072  0.1726 -0.1442 -0.2883
30643W        W46537  15.929  10.269  11.025  0.0808 -0.1141  0.0861
30644W        W46538  10.469   2.199   4.261  0.0425 -0.1975 -0.0551
30645W        W46539   9.217   5.420   3.374 -0.0564 -0.0720 -0.1235
30646W        W46540  11.774   1.205  11.336  0.1618 -0.1405 -0.0372
30647W        W46541  13.900  12.834  16.440 -0.2118  0.2386 -0.0569
30648W        W46542   3.758  11.412   1.054  0.1566  0.0745 -0.1059
30649W        W46543   2.177   6.451  12.220  0.2540 -0.1373 -0.1700
30650W        W46544   4.987   6.829  15.802 -0.3018 -0.1399 -0.2440
30651W        W46545  11.590   3.409  15.532 -0.2141  0.1158  0.1800
30652W        W46546   0.342   1.456  13.076 -0.2413 -0.2778  0.0057
30653W        W46547   5.282  14.604   3.755  0.1400 -0.0696  0.3443
30654W        W46548  16.849  12.144   0.649  0.2995  0.2118 -0.0718
30655W        W46549   1.456  17.195  15.223 -0.3525  0.0348  0.1839
30656W        W46550  13.487   9.020   5.286 -0.0695  0.3547 -0.0499
30657W        W46551   1.295   8.915  16.798 -0.4000 -0.2912 -0.0724
30658W        W46552   6.507  12.833  13.954 -0.2043  0.4268 -0.2935
30659W        W46553   1.672   0.938   3.003 -0.0574  0.0978 -0.0099
30660W        W46554  16.857  14.357  16.316  0.2421 -0.1059  0.0459
30661W        W46555   5.328   3.881  12.024 -0.2312 -0.1366 -0.0038
30662W        W46556   8.306   3.767  14.762  0.1811  0.2526 -0.1163
30663W        W46557  17.724  11.804  16.001  0.3675 -0.0043 -0.1813
30664W        W46558   5.084   7.795  12.612  0.0779 -0.1509 -0.3440
30665W        W46559   6.727   1.380  15.872 -0.1660 -0.0331  0.1844
30666W        W46560   0.667  16.046  11.543  0.0863 -0.0998 -0.3552
30667W        W46561  10.029   5.951  15.640 -0.0782 -0.1543  0.2487
30668W        W46562   1.973   6.477   0.012 -0.2381  0.3752  0.5487
30669W        W46563  16.748   5.004   1.661  0.1756 -0.1619 -0.0020
30670W        W46564  10.175   3.323  16.367 -0.0475 -0.0480 -0.0149
30671W        W46565  15.243  11.749  13.213 -0.1372 -0.1184 -0.1249
30672W        W46566  17.340   6.408   2.887 -0.1484 -0.0815 -0.2562
30673W        W46567  11.462  11.961   2.557 -0.0626  0.0866  0.1511
30674W        W46568   2.525  13.533   2.134 -0.3041 -0.2325  0.0459
30675W        W46569   1.963  10.863  13.503 -0.0055  0.0992  0.1241
30676W        W46570  11.004  15.170   3.694  0.0495 -0.2502 -0.1512
30677W        W46571   1.049   6.784   2.959 -0.1182 -0.2240  0.0180
30678W        W46572  12.521   2.836   1.371 -0.1087  0.1219  0.1998
30679W        W46573  16.642   4.597   2.905  0.3181 -0.0844 -0.3589
30680W        W46574   0.729  12.659  13.814 -0.0228 -0.0442 -0.0319
30681W        W46575   4.230   5.394   4.140  0.0548 -0.0798  0.2415
30682W        W46576   7.041   5.226   4.811  0.1925 -0.1155 -0.1722
30683W        W46577   5.570   9.038   5.878 -0.2561  0.0598  0.2435
30684W        W46578  10.660   8.335   2.180 -0.0387 -0.1532 -0.0235
30685W        W46579   8.724   3.794   3.024  0.0942 -0.0619  0.0574
30686W        W46580  11.277  10.563   4.870  0.0723  0.2903 -0.0246
30687W        W46581  14.696   7.629   3.358 -0.0519 -0.2518  0.1067
30688W        W46582   3.779   1.202  14.549  0.0276  0.0616 -0.0055
30689W        W46583   2.119   2.361  12.617  0.2305 -0.0725 -0.1834
30690W        W46584   2.976   1.511   2.475  0.1431  0.4301 -0.0881
30691W        W46585  13.500   8.560  12.907  0.2201 -0.0441  0.0452
30692W        W46586   4.345   8.695  15.989 -0.0525 -0.0942 -0.0184
30693W        W46587   1.966   1.207   5.160 -0.2664 -0.0445 -0.1175
30694W        W46588  17.663   8.968  16.259  0.0254  0.1042  0.2630
30695W        W46589  15.398  14.802   0.780 -0.2540 -0.0628  0.0934
30696W        W46590  15.676   5.776  11.567 -0.5792 -0.1129  0.2423
30697W        W46591   5.041   5.297   2.434 -0.1517  0.1431 -0.3034
30698W        W46592   8.329   6.407   4.587 -0.0192 -0.0321 -0.0210
30699W        W46593  17.787  15.203  16.690  0.0585  0.0772  0.1208
30700W        W46594   5.247   2.401   1.383 -0.1749  0.2550  0.0902
30701W        W46595   8.492  11.776  14.266  0.1066 -0.2443 -0.1629
30702W        W46596  14.129  13.475  14.680  0.1550 -0.1409 -0.1078
30703W        W46597  12.447  16.297  11.185 -0.1999  0.3083 -0.2676
30704W        W46598  11.155   4.082  11.850 -0.1181  0.2376 -0.1281
30705W        W46599  11.157   4.549   5.187  0.1115 -0.1013 -0.2374
30706W        W46600  16.333   8.518   4.815  0.0355  0.2048 -0.2729
30707W        W46601   3.566   5.896  15.804  0.0788  0.2741  0.0031
30708W        W46602   2.456   1.996  12.806 -0.2132  0.2802 -0.1089
30709W        W46603  14.928  14.778  14.525 -0.1188  0.1040  0.0571
30710W        W46604  12.591  16.178   5.576 -0.3102 -0.1745  0.0993
30711W        W46605   9.395   4.763  13.356  0.1873 -0.0203 -0.1374
30712W        W46606   7.412  16.984   4.734 -0.0656  0.1074  0.2683
30713W        W46607  14.691   9.165  13.473  0.0090 -0.0521  0.1945
30714W        W46608   7.708  13.603   0.437  0.2675 -0.0236 -0.2614
30715W        W46609   0.400   4.563  12.213  0.0684 -0.3685 -0.1092
30716W        W46610   8.156   9.049   2.114  0.0996  0.1980 -0.2275
30717W        W46611   9.017   5.044  15.971  0.3222  0.0854  0.2364
30718W        W46612   0.166   7.419   1.926  0.1058  0.4052  0.0306
30719W        W46613   8.721  10.853   2.531  0.0383 -0.0823 -0.1394
30720W        W46614   6.767  16.483  13.877  0.0303  0.0836  0.0762
30721W        W46615  13.156   6.075  11.639 -0.0919  0.0448 -0.1669
30722W        W46616  10.688   3.745   3.782  0.1925  0.2315 -0.2514
30723W        W46617   4.948  13.234   2.033  0.2427  0.1244  0.0598
30724W        W46618   4.597   8.285  13.467 -0.0519  0.1218 -0.0905
30725W        W46619   9.491  13.455  14.733  0.1104 -0.1738 -0.0940
30726W        W46620   2.068  14.816   3.383  0.0227 -0.2032 -0.2728
30727W        W46621   8.147  10.927   4.683 -0.1753 -0.1171  0.2760
30728W        W46622  13.331   4.535  14.579  0.0410  0.2779 -0.3007
30729W        W46623  12.370  13.943  15.424 -0.1304 -0.3782  0.2716
30730W        W46624   2.713   1.835   0.078  0.1855  0.3871 -0.1974
30731W        W46625  11.974   4.780  11.336  0.0719  0.2021  0.0095
30732W        W46626   7.777   7.149  15.251 -0.0372  0.2084 -0.0787
30733W        W46627  11.547   2.426  14.759  0.0000  0.5538  0.0278
30734W        W46628   4.113  11.037   1.033  0.3474 -0.1987  0.0413
30735W        W46629   2.089  13.778   3.860 -0.0831 -0.0319 -0.1644
30736W        W46630   9.266  13.714  11.766 -0.0544 -0.3065  0.0346
30737W        W46631  12.957  17.601  11.783  0.3608 -0.0056  0.0173
30738W        W46632  12.209  13.990  12.296  0.0767 -0.0934  0.0249
30739W        W46633   3.479   3.743  11.795  0.0518 -0.2770 -0.2408
30740W        W46634   1.734  15.134  16.082  0.3510  0.0624  0.2033
30741W        W46635  13.518  15.549  14.245  0.0085  0.2129 -0.0566
30742W        W46636   7.045  10.621   4.365  0.0161 -0.2197  0.0126
30743W        W46637  11.912   1.761   3.285 -0.1685 -0.1887  0.0368
30744W        W46638  12.158   6.085   3.102 -0.1152 -0.1244  0.5752
30745W        W46639  10.436  14.338   0.586  0.2455  0.0908  0.1429
30746W        W46640   7.058  15.664   5.710 -0.0631 -0.2898  0.0988
30747W        W46641  13.404  11.790  16.816  0.2364 -0.0396 -0.1840
30748W        W46642  10.141  10.376   1.963 -0.1733  0.2721 -0.2143
30749W        W46643   7.384  13.222   6.045 -0.1247  0.1171 -0.1287
30750W        W46644   6.218   1.088  11.229 -0.0164  0.0236  0.0444
30751W        W46645   7.524   2.809   2.172 -0.0892  0.0886  0.1691
30752W        W46646  10.613  14.175   2.889  0.0218  0.0569  0.2485
30753W        W46647   5.548  13.564  13.862  0.0664 -0.0409  0.1007
30754W        W46648   2.682  10.249  11.854 -0.2454  0.0483  0.1136
30755W        W46649   9.820  13.595  14.382 -0.0720 -0.1087  0.1470
30756W        W46650  16.607   7.756  12.063 -0.1826  0.1765  0.0380
30757W        W46651   2.124  12.772   3.077  0.2934  0.3048  0.0035
30758W        W46652   2.138  14.494  13.774  0.1787 -0.1141 -0.0042
30759W        W46653   7.780  13.204  12.686  0.1221  0.1837  0.0303
30760W        W46654  17.017   9.655  16.418 -0.0843  0.0255  0.0301
30761W        W46655  15.336   0.313   3.107 -0.0981 -0.2802  0.2342
30762W        W46656  12.028   9.798   3.355  0.3922 -0.0178 -0.2361
30763W        W46657   2.028  15.917  10.489 -0.1970 -0.2777  0.0763
30764W        W46658   6.475  13.885   1.756  0.2633  0.1179 -0.1040
30765W        W46659  17.428  13.203   2.419  0.3493  0.0068 -0.0072
30766W        W46660   3.627  17.687   2.249  0.2336  0.0593 -0.0853
30767W        W46661  12.970  10.905  13.906  0.0426 -0.0689  0.0037
30768W        W46662   7.095  17.512  11.445  0.3232 -0.4201  0.1639
30769W        W46663   6.441  14.117  12.101  0.0877 -0.0574  0.0081
30770W        W46664  16.355   3.479   1.181  0.0586  0.1195 -0.2180
30771W        W46665   8.106   4.704  14.444  0.2271 -0.2485 -0.0953
30772W        W46666   9.264   1.877  11.590  0.0986  0.3627 -0.1997
30773W        W46667   3.103   7.813   4.444 -0.1436  0.3243  0.0370
30774W        W46668   2.162   9.250   1.728 -0.0109  0.1649 -0.0401
30775W        W46669   1.385   4.338  10.784  0.1655 -0.0500 -0.2270
30776W        W46670   7.702   1.416   0.665  0.0548 -0.1446 -0.3200
30777W        W46671   2.188   3.870   4.588 -0.0928 -0.0209  0.3278
30778W        W46672   3.830   1.659  12.557 -0.2801  0.1035 -0.0814
30779W        W46673   4.729   2.746   3.106  0.1464  0.2670  0.1797
30780W        W46674   9.624  13.883   0.606 -0.2655  0.0650  0.0914
30781W        W46675   6.221   0.092  14.279  0.0712 -0.1881  0.0506
30782W        W46676  10.367   9.640   4.969  0.2004 -0.0721  0.2465
30783W        W46677  16.571  15.728  12.240  0.3397  0.0189 -0.0654
30784W        W46678   8.833   6.851  16.126  0.0699 -0.0897 -0.0496
30785W        W46679   5.555   9.958   2.259  0.1121 -0.3997  0.0561
30786W        W46680  13.511   9.142  15.406 -0.0199 -0.0582 -0.2636
30787W        W46681   6.888  11.224   1.603 -0.0979  0.2120  0.2776
30788W        W46682   2.264  13.676   5.314  0.0058 -0.0752  0.0021
30789W        W46683   4.219   0.590  13.910  0.1769  0.1720  0.1925
30790W        W46684   1.918  13.649  16.307 -0.0111  0.1569 -0.1873
30791W        W46685  10.992   9.277   3.433 -0.3001 -0.0629 -0.1847
30792W        W46686   8.795   3.531   4.600 -0.0514  0.1288 -0.0430
30793W        W46687   3.292   3.751  15.713 -0.2258  0.1443  0.2732
30794W        W46688   8.954   0.951  12.807 -0.3252  0.0820  0.2065
30795W        W46689   9.731   8.174  12.541  0.1914 -0.0959 -0.0605
30796W        W46690   2.839   7.206   4.641  0.0137 -0.1591  0.1945
30797W        W46691  16.342   8.307   1.023  0.2884 -0.0531 -0.1408
30798W        W46692   3.357   4.641  14.143  0.0641  0.3053  0.0136
30799W        W46693   2.059   9.682  15.083  0.0349  0.0633 -0.0260
30800W        W46694   8.198  15.379  12.114  0.2737 -0.0636 -0.1714
30801W        W46695  17.601  10.927  16.388 -0.1239 -0.2254 -0.0301
30802W        W46696   9.908   9.953  16.209  0.0968 -0.0941  0.2011
30803W        W46697  11.321   9.800   4.613  0.0543  0.0093 -0.1183
30804W        W46698   5.106   6.056   0.907 -0.1341 -0.1820  0.1226
30805W        W46699  14.231  10.165   2.335 -0.3943 -0.0406 -0.1178
30806W        W46700  11.604   7.239  16.088  0.0115  0.1578  0.3369
30807W        W46701   1.407  11.497  11.970 -0.1559  0.2156  0.1759
30808W        W46702   5.747   4.411   0.821  0.1760 -0.0422 -0.1313
30809W        W46703   5.787   7.089   0.245  0.0374 -0.0312  0.2952
30810W        W46704  10.188   2.833   2.917  0.0576 -0.1778  0.1006
30811W        W46705   0.228   7.893   6.495  0.0814 -0.0115  0.1737
30812W        W46706  11.489   4.108   6.562 -0.1979  0.0566  0.2777
30813W        W46707   9.151   3.659   0.264  0.4581 -0.0398 -0.1855
30814W        W46708  17.113  13.102  12.304  0.2106 -0.3251 -0.4563
30815W        W46709   6.242   1.698  15.948  0.3685 -0.0885 -0.2751
30816W        W46710  13.712  16.120   1.636  0.2848  0.1920  0.2834
30817W        W46711   1.877   2.613  13.521 -0.1190 -0.1396  0.2840
30818W        W46712   8.239  15.246   1.924  0.0359  0.0972  0.1280
30819W        W46713   0.763  13.976  11.866 -0.2105  0.0017  0.1007
30820W        W46714   6.803  12.354   4.849 -0.0283 -0.2487 -0.2514
30821W        W46715  16.192  14.308  15.415  0.1685  0.2822 -0.0880
30822W        W46716  13.019   4.609  11.340 -0.1261  0.2514  0.4238
30823W        W46717  13.009  11.852  11.738  0.1289 -0.0874 -0.0931
30824W        W46718   7.719  10.039  12.353 -0.1660  0.0381 -0.0369
30825W        W46719  16.717  10.353  14.472 -0.0945 -0.3017 -0.0283
30826W        W46720  15.325   7.328   1.492 -0.1008 -0.0009  0.0097
30827W        W46721   8.014   1.037  16.407  0.0890  0.0916 -0.1528
30828W        W46722  11.438   1.813   5.006  0.0174 -0.0459  0.0662
30829W        W46723   7.341  15.461   2.968 -0.2276 -0.1979  0.0919
30830W        W46724   9.732   6.152   3.627  0.0277  0.0742  0.0928
30831W        W46725  14.471   4.382  15.114  0.3610 -0.0620  0.0103
30832W        W46726  13.258  11.344  12.569 -0.0456 -0.0735 -0.2585
30833W        W46727   7.859   4.095   3.659 -0.0243  0.1916 -0.2319
30834W        W46728  15.051  12.837   2.340  0.1129  0.2850  0.1389
30835W        W46729  16.723   6.479  16.179 -0.1009  0.0265 -0.0930
30836W        W46730  12.031   5.205   2.897  0.4128 -0.0716  0.1020
30837W        W46731  11.373   7.084  12.167 -0.2674  0.2159 -0.5844
30838W        W46732  11.825   7.269  12.013  0.1317 -0.1699  0.1198
30839W        W46733   7.041  12.782   4.892 -0.0649  0.0698  0.0354
30840W        W46734   8.066  13.194  11.869 -0.0975 -0.0630 -0.1181
30841W        W46735   6.469  14.740   2.176  0.0390 -0.0166 -0.0118
30842W        W46736   9.680  15.011  12.309 -0.1732  0.0398  0.1282
30843W        W46737   4.682   9.426   0.838  0.1226 -0.0870  0.0759
30844W        W46738   8.928   4.288   6.234 -0.0372  0.0445  0.0961
30845W        W46739   7.546   6.019   1.580 -0.0901 -0.0990 -0.1510
30846W        W46740   9.827   9.777   4.607 -0.1558  0.4340  0.1342
30847W        W46741   2.860   1.001   0.830  0.0716  0.2419  0.1628
30848W        W46742  14.882   9.824   1.662  0.2873  0.3494 -0.3000
30849W        W46743  16.330  17.163  13.503  0.0839  0.0689  0.0310
30850W        W46744   0.074   6.645   0.323 -0.0149 -0.2278 -0.1651
30851W        W46745   8.523  13.841  14.342  0.0172  0.2102  0.0229
30852W        W46746  14.770   2.321   2.624 -0.0595 -0.1516  0.2131
30853W        W46747   9.712   4.030   4.572 -0.1452 -0.0589 -0.0422
30854W        W46748   8.724   3.843   5.573 -0.3991 -0.0326 -0.0546
30855W        W46749   5.374   8.748   2.858 -0.4256  0.0501 -0.0241
30856W        W46750  16.578  10.953   3.120 -0.0450 -0.0356 -0.1898
30857W        W46751  12.457   8.684  14.200  0.0597  0.2115  0.0637
30858W        W46752  13.915   4.578   0.058 -0.3557  0.1178  0.1248
30859W        W46753  16.468   2.778  15.229  0.1332 -0.0291 -0.0770
30860W        W46754  16.251  13.965   1.339 -0.0909 -0.0356  0.1683
30861W        W46755   0.504  16.403  13.203 -0.1618 -0.1447  0.4281
30862W        W46756   5.907  15.093  11.687 -0.0347 -0.3207  0.1690
30863W        W46757  10.398   7.863   5.686  0.1909  0.3182  0.0142
30864W        W46758   1.561   2.948  13.062  0.1072 -0.1258 -0.2264
30865W        W46759   0.431   5.097  12.036  0.2974  0.0359 -0.1075
30866W        W46760  12.378   2.873  15.951 -0.1735  0.0251 -0.2047
30867W        W46761   0.958  13.101   5.523  0.1154 -0.2115 -0.2303
30868W        W46762   3.772  16.177  12.029  0.1267  0.3105 -0.2482
30869W        W46763  13.021  11.456   5.555 -0.0841  0.0251 -0.1660
30870W        W46764  11.616   9.951   4.234  0.1676  0.0225  0.1004
30871W        W46765  15.982  13.474  16.400 -0.1167 -0.1585 -0.1175
30872W        W46766   6.050   2.163  13.308 -0.0619  0.4360 -0.1624
30873W        W46767  15.787   0.132   5.689  0.0744 -0.0943  0.1040
30874W        W46768   9.656   0.335  14.766 -0.1911 -0.1661  0.0506
30875W        W46769   8.164  11.172  16.475 -0.0098  0.3605  0.0284
30876W        W46770   1.816  15.334   5.129 -0.1294  0.1249  0.0102
30877W        W46771  14.949   8.540  16.288  0.1024  0.0159  0.5478
30878W        W46772   2.272  12.738   0.875  0.1089 -0.0598  0.0648
30879W        W46773   1.957   1.700  11.440 -0.1534 -0.2344 -0.1280
30880W        W46774   3.601  11.077   3.322 -0.0300 -0.0070 -0.0478
30881W        W46775  12.160  10.110  15.226  0.0418 -0.0141  0.2880
30882W        W46776   8.738  10.945   1.553  0.0737  0.0568  0.0687
30883W        W46777   3.405   5.582   3.898 -0.0321  0.0439 -0.1183
30884W        W46778   2.057  16.664  16.791 -0.2785 -0.0197  0.1779
30885W        W46779   4.965   8.150   1.571  0.0960 -0.2475  0.1124
30886W        W46780  16.309  12.024   0.877  0.4216 -0.1044 -0.0676
30887W        W46781   4.500  12.135   2.485  0.2558  0.0370 -0.0781
30888W        W46782  16.871   5.627  14.701  0.3784  0.0500  0.1224
30889W        W46783  14.759  16.749  14.239  0.2262 -0.1992  0.0909
30890W        W46784   7.922   6.692   0.272 -0.1863  0.5361 -0.1037
30891W        W46785   4.045   8.931   4.164 -0.2781 -0.0560 -0.3541
30892W        W46786  17.063   4.958   0.222 -0.1360 -0.0445 -0.1460
30893W        W46787   6.791  11.522  13.416  0.0888  0.3860  0.0605
30894W        W46788  13.960   8.186   5.898 -0.0605 -0.2690  0.1488
30895W        W46789   7.044   9.066   2.892  0.0360  0.0973  0.1259
30896W        W46790   0.128  17.638   4.184 -0.1107 -0.1444  0.2983
30897W        W46791  11.291  13.086   2.003 -0.0422 -0.1232  0.0252
30898W        W46792  15.577  16.603  16.780 -0.3856 -0.1432  0.3916
30899W        W46793   1.031  10.170  15.205 -0.1851  0.0672  0.1382
30900W        W46794   0.102   2.694   0.563  0.2653 -0.0495  0.1012
30901W        W46795  12.676   4.547   4.202  0.0383 -0.0864  0.0373
30902W        W46796  10.846   1.590  16.088  0.2127  0.2291 -0.2596
30903W        W46797  12.116  14.676   0.203  0.2781  0.2129 -0.4353
30904W        W46798  10.041  13.681   3.930 -0.3832  0.2100 -0.1978
30905W        W46799   6.854   0.736   1.007  0.1556  0.3628  0.2103
30906W        W46800  14.227   6.032   5.479 -0.0076 -0.0740  0.2654
30907W        W46801   0.310  15.945   1.920 -0.1208 -0.0532  0.3738
30908W        W46802   4.988  14.585  15.824 -0.1585  0.1390  0.0073
30909W        W46803  14.298  14.430  11.811  0.1796 -0.0163 -0.1751
30910W        W46804  12.908  12.342   1.263  0.1608  0.2019 -0.0568
30911W        W46805  11.689   5.896   3.262 -0.1918 -0.2121  0.3425
30912W        W46806   5.436  10.370   3.143 -0.2345 -0.1356 -0.0025
30913W        W46807   0.936   8.144  16.076  0.2422  0.0853  0.1866
30914W        W46808   4.004   9.202   0.372 -0.0974  0.0237  0.0860
30915W        W46809  11.106   1.344  16.897 -0.1330 -0.2403 -0.2428
30916W        W46810   8.683  15.861   5.310  0.1659 -0.1936  0.1428
30917W        W46811   5.204  17.134   0.378 -0.0466 -0.0637 -0.0244
30918W        W46812  11.424   7.536   2.218 -0.1758  0.0115 -0.1107
30919W        W46813  13.339  14.500  12.039  0.0740 -0.2741 -0.0947
30920W        W46814  10.674  12.405  14.561 -0.1427  0.0610  0.2322
30921W        W46815  14.811   3.291   2.178 -0.6905  0.3936  0.1936
30922W        W46816   2.838   0.038  16.790 -0.0436 -0.2065  0.0844
30923W        W46817  15.310  15.487   4.758 -0.2252 -0.0679 -0.0394
30924W        W46818  14.830  10.290   5.587 -0.1996 -0.0238 -0.0344
30925W        W46819  16.134   8.917  11.710 -0.0404 -0.0162 -0.0794
30926W        W46820  10.691   7.387  15.980 -0.2549 -0.2109  0.1408
30927W        W46821   4.396   4.141  15.378 -0.0819  0.1393  0.2185
30928W        W46822  10.297  10.988  12.939  0.0595  0.2093  0.1607
30929W        W46823   5.333   8.163   3.699 -0.2466  0.2978 -0.0783
30930W        W46824   4.311   4.939   1.598  0.1737  0.0263  0.2814
30931W        W46825   9.964  16.525  14.505  0.1239  0.0861  0.1719
30932W        W46826  10.950  15.786   5.868  0.1178  0.2107 -0.1311
30933W        W46827  12.853  13.087  15.089 -0.2012  0.4059  0.3541
30934W        W46828  11.017  11.621   5.399  0.3965  0.1412 -0.1088
30935W        W46829   5.355  17.348   2.204  0.1976 -0.1936 -0.0697
30936W        W46830  14.630  16.056   4.474  0.0386 -0.4024 -0.1019
30937W        W46831  14.342   4.850   5.466 -0.2416  0.1905 -0.2521
30938W        W46832   0.937  13.352  13.889 -0.1596  0.1957 -0.0464
30939W        W46833   3.838   2.226  16.124 -0.5165 -0.4023  0.1200
30940W        W46834  17.189  17.545  13.781 -0.3654 -0.0227 -0.1549
30941W        W46835   7.498  12.879  14.130  0.1957 -0.1125 -0.1580
30942W        W46836   8.389   0.534   6.315 -0.0154  0.0244  0.3328
30943W        W46837   3.379   6.888   4.468 -0.1878  0.1207  0.3166
30944W        W46838   0.772   5.514  16.821  0.0721  0.0524  0.3071
30945W        W46839   1.197  11.393  16.285 -0.1110 -0.1003  0.1659
30946W        W46840  14.380   8.926   1.496 -0.0692 -0.0012 -0.0922
30947W        W46841  16.039   8.657   3.170 -0.3726 -0.0091  0.0392
30948W        W46842   0.921   9.380  13.586  0.0633 -0.1378  0.1254
30949W        W46843   5.756   3.982  13.611  0.1585 -0.0082 -0.3517
30950W        W46844   7.859   6.902   3.889  0.1055 -0.3400  0.0011
30951W        W46845   7.588   3.694  13.850 -0.1052 -0.1676  0.0007
30952W        W46846   0.042   7.795   0.908  0.2692  0.0474  0.1386
30953W        W46847   8.315   4.128  12.708  0.2486 -0.0056  0.1302
30954W        W46848  15.404   6.432   2.569 -0.0905  0.0596  0.0111
30955W        W46849   9.110  14.383  12.098  0.3624  0.0674  0.0187
30956W        W46850   3.660   9.996   5.740  0.0798  0.1114 -0.0875
30957W        W46851  12.893  13.369   5.579  0.1825  0.1972 -0.1648
30958W        W46852   3.510   2.971   0.432 -0.1615  0.0127 -0.1871
30959W        W46853  13.606  16.984   3.333  0.0161  0.0053  0.2183
30960W        W46854  14.452   7.835   5.571  0.1742 -0.1522  0.0370
30961W        W46855   5.317   7.406   5.644 -0.0705 -0.0748 -0.1923
30962W        W46856   1.423  15.049  16.455  0.1806 -0.0032 -0.2780
30963W        W46857   3.412  14.511  12.497  0.0060 -0.2489 -0.3188
30964W        W46858   6.702  14.615   3.338 -0.1537 -0.2621 -0.1473
30965W        W46859   0.160   7.245   0.791 -0.2586 -0.0182 -0.3053
30966W        W46860   4.680  16.386   5.260  0.0246 -0.2113  0.4096
30967W        W46861   6.829  14.114  14.754 -0.2556 -0.2342 -0.0740
30968W        W46862  14.045   7.659   0.704 -0.2271 -0.1558 -0.1286
30969W        W46863  11.392   0.078   2.075  0.1290  0.2783 -0.0831
30970W        W46864  13.881  14.914   4.170  0.0022 -0.0724  0.1362
30971W        W46865   2.795  12.309  14.162  0.3880  0.2743  0.0099
30972W        W46866  15.676   1.010  14.666  0.0245 -0.0594  0.1205
30973W        W46867  11.280   0.388   3.347 -0.0715 -0.1673  0.2155
30974W        W46868  14.168  11.016   3.707  0.0009 -0.1659 -0.1929
30975W        W46869   4.051  10.689  15.079 -0.3757  0.0653  0.1787
30976W        W46870   4.392  12.944  16.219 -0.1206 -0.1685 -0.1385
30977W        W46871  13.533  14.063  11.964 -0.0980  0.1079  0.1546
30978W        W46872   6.040   4.824   0.272  0.0236  0.1804 -0.0922
30979W        W46873  12.008   3.097   1.572  0.1204  0.0732 -0.1147
30980W        W46874   1.782   4.306   2.084 -0.1953 -0.1802 -0.0437
30981W        W46875  11.046   4.852   1.067  0.0816  0.1198  0.2060
30982W        W46876  11.169  10.732  13.381 -0.2532  0.0828  0.2439
30983W        W46877   1.335  15.561  16.446 -0.0832 -0.1112  0.2581
30984W        W46878   8.852   3.774  12.076 -0.0776  0.1158 -0.1370
30985W        W46879  17.390   0.156  16.771 -0.1549 -0.6382  0.0692
30986W        W46880  16.543   2.170  14.445 -0.0248  0.0677 -0.2853
30987W        W46881  10.059  10.285  16.670  0.0915 -0.0235 -0.0597
30988W        W46882  16.307  16.306   0.189 -0.1451 -0.1662 -0.1772
30989W        W46883  14.493  10.899   1.666  0.2211  0.0899 -0.3513
30990W        W46884   5.779   2.723   0.750 -0.0604 -0.1074 -0.0038
30991W        W46885   7.635   2.693   1.673  0.2708  0.0961 -0.1507
30992W        W46886   4.099  11.788   2.818 -0.1390  0.2231  0.0755
30993W        W46887   9.000  10.379   0.709  0.0972 -0.1995 -0.1153
30994W        W46888   1.729   3.738   3.704  0.1726 -0.3549  0.2496
30995W        W46889  14.524  15.109  16.770 -0.2473 -0.1230  0.0980
30996W        W46890   6.762   6.543  13.832  0.0979 -0.1621  0.0921
30997W        W46891   8.857   9.832   0.226 -0.0128  0.0437  0.1483
30998W        W46892  13.722  13.969   4.997  0.0639 -0.3773 -0.1729
30999W        W46893   4.306   6.009   2.875 -0.0175  0.1601 -0.0026
31000W        W46894  12.218   7.231   2.442 -0.1032  0.0699 -0.2674
31001W        W46895  15.070   0.459   2.343 -0.1546  0.0024 -0.1454
31002W        W46896  10.767  10.535   1.334  0.0529 -0.2588  0.5872
31003W        W46897  16.341  12.406   3.213 -0.3045 -0.0063  0.1148
31004W        W46898   5.734   5.792   5.325  0.1297  0.1816 -0.1115
31005W        W46899  13.711   7.117  14.050  0.0603  0.0327  0.0193
31006W        W46900   5.611   5.680  15.515 -0.3256 -0.1153  0.0802
31007W        W46901   1.334  12.427  15.914  0.2115 -0.1918 -0.1092
31008W        W46902  15.497  16.076  14.197 -0.0344 -0.1121  0.1773
31009W        W46903  11.990  14.192  13.136  0.2894 -0.0100  0.0989
31010W        W46904   6.042  15.405  12.715 -0.0254 -0.0418 -0.2330
31011W        W46905  14.511   4.688  14.084  0.2301 -0.0457  0.2872
31012W        W46906   0.333   6.151   2.386  0.0564 -0.0087 -0.2191
31013W        W46907  13.743   4.204  15.907  0.0396 -0.3407  0.0955
31014W        W46908   1.998  13.600   4.867 -0.4833 -0.1591 -0.0735
31015W        W46909   7.703  11.774   3.707  0.2124  0.0281  0.0343
31016W        W46910   1.774   3.905   3.141 -0.2028 -0.1829  0.3238
31017W        W46911   5.382  16.428   1.659 -0.2866 -0.1415  0.2206
31018W        W46912  10.521  11.383  13.744  0.1416 -0.3439 -0.1005
31019W        W46913   1.296  15.334  11.172 -0.0957  0.1145  0.1592
31020W        W46914   6.250  12.409  12.388  0.1445  0.0424 -0.3482
31021W        W46915   7.274  15.344   3.489 -0.0145 -0.1405  0.2925
31022W        W46916   3.836   2.180  14.449 -0.1422 -0.0558  0.0716
31023W        W46917   8.358   0.916   5.402  0.2880  0.1717 -0.1641
31024W        W46918   7.836   9.992  14.275  0.1360 -0.1112 -0.2068
31025W        W46919  14.174   0.582  16.153 -0.1904 -0.1378  0.0582
31026W        W46920  11.781  11.434   2.818 -0.1483  0.2091 -0.2035
31027W        W46921   4.363   9.447   5.509 -0.2592  0.1208  0.1858
31028W        W46922  11.428  15.482  14.580 -0.0056 -0.2312  0.0152
31029W        W46923   7.676   6.592  13.291  0.0275  0.0738  0.2731
31030W        W46924  15.926  15.915  12.860 -0.1034  0.0821  0.0373
31031W        W46925   0.283   8.057  15.284  0.0933  0.0836  0.3000
31032W        W46926   7.102   2.489   0.462  0.1028 -0.0283  0.0740
31033W        W46927   2.355  11.097   2.666  0.2168  0.1530 -0.3164
31034W        W46928  10.419  16.168   0.508 -0.1098 -0.0319  0.2448
31035W        W46929  17.287  12.450   6.123 -0.0662 -0.2137 -0.0302
31036W        W46930  10.142   9.701  12.873  0.0649 -0.0541 -0.1200
31037W        W46931   5.843  13.239  11.681 -0.4937  0.0324 -0.0128
31038W        W46932  17.592   5.236  16.546 -0.0306  0.0533 -0.0344
31039W        W46933   3.673  14.208  13.232  0.0435  0.1483 -0.2750
31040W        W46934  16.995   6.538  11.430  0.2382  0.1375  0.0746
31041W        W46935   5.554  11.584   3.207 -0.1197 -0.0487 -0.2699
31042W        W46936   6.129  11.948  15.278 -0.2766 -0.5128 -0.2032
31043W        W46937  12.851   7.780   2.871  0.1592  0.1195  0.0444
31044W        W46938   1.736   3.423  14.381 -0.3042 -0.0066  0.1128
31045W        W46939   1.000   9.008   5.076  0.0400  0.0310 -0.2171
31046W        W46940   9.539   6.216   0.214  0.2526 -0.2041 -0.1407
31047W        W46941  17.355   0.960   1.759 -0.0190  0.0791  0.0913
31048W        W46942   8.556   2.000   1.098 -0.0592 -0.0124  0.1170
31049W        W46943  11.954   7.006  12.423  0.0480 -0.0790 -0.0338
31050W        W46944  11.402  13.510   3.648  0.0551  0.1560 -0.0389
31051W        W46945  13.155  11.182   0.441  0.0220  0.2849  0.3088
31052W        W46946   4.562   6.747  16.186  0.0415  0.2356  0.0353
31053W        W46947   5.664  11.975   2.414  0.1624  0.2001  0.2909
31054W        W46948  10.468  16.579  14.754 -0.4412  0.1011 -0.0168
31055W        W46949   2.793   9.956  12.395 -0.0191  0.3267 -0.1067
31056W        W46950  15.612   3.545  12.496  0.1926  0.1361  0.0285
31057W        W46951  10.638  17.665   0.736 -0.0018  0.0962  0.3195
31058W        W46952   2.171   0.459   1.342 -0.0864 -0.0486 -0.1617
31059W        W46953   3.065   6.141  13.010 -0.0003  0.0878 -0.4036
31060W        W46954   0.963  16.713   3.113  0.1382  0.1304  0.1635
31061W        W46955   5.401   7.992  16.865  0.1182  0.0415  0.6212
31062W        W46956  16.891  17.071  15.911  0.0205 -0.2103 -0.0134
31063W        W46957   8.281   3.145  12.925  0.1268 -0.1028  0.1255
31064W        W46958   4.206   6.754   5.893 -0.0367 -0.3306 -0.1226
31065W        W46959  14.824   8.432  12.168  0.4086  0.0073  0.1886
31066W        W46960  13.608   1.420  16.516  0.0185  0.0933 -0.3001
31067W        W46961   1.705  12.677  12.417  0.2335  0.0360  0.1161
31068W        W46962   3.035  11.073  16.128 -0.3556 -0.1924  0.0166
31069W        W46963   8.579  17.442   0.604  0.3404 -0.0470 -0.0369
31070W        W46964  12.231   0.167   3.834  0.1925  0.0144 -0.2221
31071W        W46965  10.369   1.681   4.282  0.0104  0.0503 -0.3713
31072W        W46966   2.361   0.983  13.656 -0.0896 -0.0527 -0.0595
31073W        W46967  17.775   2.198   4.217  0.0596 -0.2119  0.1539
31074W        W46968   6.219   7.256   1.324  0.0734  0.1226 -0.1054
31075W        W46969  13.621   1.562  11.439 -0.1458 -0.1373 -0.2497
31076W        W46970   7.091   3.210   4.531  0.5292 -0.0564  0.0849
31077W        W46971   7.868   9.809   3.078 -0.0799 -0.1006 -0.0057
31078W        W46972   9.900   4.450   1.331 -0.1701 -0.2850  0.1888
31079W        W46973  10.143   6.623  12.346  0.1105 -0.0584  0.0391
31080W        W46974  10.734   4.726  12.196  0.0270  0.3514  0.4747
31081W        W46975   2.515   0.294   2.810 -0.0049 -0.1042 -0.1910
31082W        W46976   9.325   9.180  16.106  0.2181 -0.0394  0.0139
31083W        W46977  15.519  10.224   4.853  0.0539  0.0845  0.1314
31084W        W46978   3.250  15.953  12.061  0.0271 -0.0859 -0.0923
31085W        W46979   6.000   3.238   2.691  0.0132  0.4875 -0.0568
31086W        W46980   6.465   1.682   2.245 -0.3191  0.1172  0.3351
31087W        W46981   3.883  13.723  11.644  0.1182  0.2605 -0.3206
31088W        W46982   4.089   7.263  16.382  0.0627 -0.2281 -0.0363
31089W        W46983   5.363   1.647  14.402  0.0079 -0.0738 -0.1971
31090W        W46984   4.149  12.911   3.861 -0.1000 -0.0644 -0.0524
31091W        W46985   0.292   8.879   4.491  0.2872  0.3124  0.0329
31092W        W46986  14.858   8.629  13.497 -0.0017 -0.0682  0.2411
31093W        W46987   8.226  17.713   3.241  0.1067  0.0487 -0.0865
31094W        W46988   9.688   1.972  12.320  0.0813 -0.0923 -0.1479
31095W        W46989   0.397   2.342   5.005  0.0994 -0.0772  0.0915
31096W        W46990  16.491  15.963  15.819 -0.0921  0.0989 -0.3353
31097W        W46991   8.373  16.105   0.828 -0.0023  0.1436  0.2878
31098W        W46992  15.815   7.800   1.611  0.0450  0.2130  0.0205
31099W        W46993   7.934  10.227  12.849  0.1498  0.1988  0.2062
31100W        W46994  17.731  10.853   4.514 -0.1826 -0.1049 -0.3169
31101W        W46995   2.971  13.194   2.399  0.3665 -0.1311  0.1720
31102W        W46996  10.932   9.300  10.991 -0.1825  0.0649  0.1664
31103W        W46997  17.625  10.153  10.617  0.2811  0.3096  0.0144
31104W        W46998  11.657   2.851   1.361 -0.0300  0.2188 -0.1046
31105W        W46999  13.233   9.135   4.469  0.0759  0.1593  0.4054
31106W        W47000   6.484  11.551   1.357 -0.1004  0.0006 -0.1148
31107W        W47001   8.610   7.152   5.883  0.2439 -0.1180  0.1472
31108W        W47002   2.986  14.346  13.840  0.2942 -0.2344 -0.3006
31109W        W47003  15.874  12.912   5.216 -0.0388 -0.0315 -0.4258
31110W        W47004  16.366  14.001  13.934 -0.1337  0.1799 -0.0127
31111W        W47005   7.524   5.218   0.970  0.2424 -0.1962  0.2766
31112W        W47006  17.063   5.648  15.705 -0.2813  0.1429 -0.2719
31113W        W47007  13.836  10.923  14.169  0.0028 -0.0670 -0.1545
31114W        W47008   2.460   2.767  16.310  0.2584 -0.1338 -0.1229
31115W        W47009  13.521   9.381  11.657 -0.0490  0.0839  0.1975
31116W        W47010   5.566   0.184  13.905 -0.1462  0.1083 -0.1746
31117W        W47011   6.873  14.577  16.898  0.1680 -0.2321  0.0196
31118W        W47012   9.075  16.967   2.629  0.0749 -0.2456  0.2772
31119W        W47013   6.363   0.521  15.651  0.1123  0.1036 -0.0067
31120W        W47014   3.472  13.700  14.051  0.0870 -0.0868 -0.1506
31121W        W47015   3.201  11.463  13.429 -0.1266  0.3788 -0.0253
31122W        W47016  16.902   8.698   2.602  0.0912 -0.0425 -0.3730
31123W        W47017  17.494  15.806   2.642 -0.0229 -0.1400  0.0772
31124W        W47018  12.011   5.737  11.506 -0.2813 -0.0443 -0.1926
31125W        W47019  15.232   5.681  13.373 -0.1505  0.0943 -0.0923
31126W        W47020   8.509   6.311   2.685  0.1529 -0.1778  0.0319
31127W        W47021   0.256  10.196  14.662 -0.1231 -0.4975  0.1297
31128W        W47022  17.659   7.126  16.426 -0.3691  0.1844  0.4243
31129W        W47023   2.784   8.390  14.804  0.1633  0.0923  0.2193
31130W        W47024   0.211  13.889  14.917 -0.1859  0.0136  0.1689
31131W        W47025   2.159   0.088   2.523  0.1627  0.2233 -0.1110
31132W        W47026   6.803  17.344  14.151  0.2233 -0.0674 -0.1812
31133W        W47027   4.875   6.739  15.127  0.1977 -0.3664  0.0440
31134W        W47028   7.460   6.509   0.497 -0.0252  0.0269 -0.3099
31135W        W47029  16.256   8.308   0.552 -0.1516  0.1505 -0.0547
31136W        W47030   1.619  17.790   5.310 -0.2763 -0.1281 -0.1024
31137W        W47031  11.668  17.714   0.441  0.0123 -0.2872 -0.1574
31138W        W47032   5.025   0.169  16.924  0.1484 -0.0354  0.2900
31139W        W47033  17.395   9.588  14.467 -0.2497 -0.0499 -0.1450
31140W        W47034  11.535   0.202  15.410  0.0508  0.0168  0.2438
31141W        W47035  17.624  10.907   1.398  0.2686  0.1333  0.1143
31142W        W47036   5.731   7.148   1.458  0.4237 -0.0709  0.0593
31143W        W47037   2.193   0.074  16.163  0.2431 -0.1615  0.0660
31144W        W47038   9.377  10.622   0.469 -0.0242  0.0515  0.2693
31145W        W47039   6.423   5.504   2.629 -0.1494 -0.3134  0.2104
31146W        W47040   9.475  11.911   3.592  0.0012 -0.0870  0.2806
31147W        W47041   2.661  17.438  13.774  0.0923 -0.1238 -0.1126
31148W        W47042   0.908   0.021  15.180 -0.0091 -0.0053  0.0216
31149W        W47043  11.675   2.483   3.190 -0.0382 -0.0233  0.0395
31150W        W47044  12.618   8.296   5.831 -0.2343 -0.2018 -0.3379
31151W        W47045  13.561  17.463   4.699 -0.2454  0.1430  0.1343
31152W        W47046  15.502   9.797   0.368  0.2454  0.0678  0.4150
31153W        W47047   3.828  11.865   0.462  0.2826  0.1775 -0.2647
31154W        W47048   1.308   7.133   4.155 -0.0479  0.0720  0.0511
31155W        W47049  15.409   8.770  16.334  0.2859  0.0644 -0.0008
31156W        W47050  13.957  12.626  14.915  0.1411  0.1852 -0.2716
31157W        W47051   5.684   6.202  15.663  0.0588  0.1243 -0.0265
31158W        W47052   5.639   5.437  13.651 -0.2014 -0.2477 -0.0707
31159W        W47053  12.197  15.191  14.517  0.0535  0.0956  0.1359
31160W        W47054   7.775   1.400   0.106 -0.1296  0.0673 -0.0056
31161W        W47055   0.956   3.943   1.857 -0.2478 -0.0037 -0.0678
31162W        W47056  17.200   2.635   2.083 -0.2705  0.0081  0.1461
31163W        W47057   9.657  15.540   5.505 -0.0326 -0.2221  0.0088
31164W        W47058   2.693   8.335  12.145  0.0788 -0.2969  0.0341
31165W        W47059  13.365   9.738  16.292  0.3147 -0.1427 -0.0415
31166W        W47060   1.413   0.373   0.821 -0.0467 -0.0910 -0.0579
31167W        W47061  10.042   2.171  13.824  0.1061  0.2301  0.1049
31168W        W47062   9.563   2.370  11.629 -0.4919  0.2918  0.1093
31169W        W47063   3.155  14.952  15.618 -0.0673 -0.1996  0.0201
31170W        W47064   5.185  16.252  11.896 -0.3406 -0.0591 -0.0063
31171W        W47065  16.314   7.405   1.452 -0.0950  0.1483  0.1266
31172W        W47066  12.282   5.713  16.428  0.0695  0.0127  0.3511
31173W        W47067  14.320  15.756  15.521 -0.0366 -0.0276 -0.0054
31174W        W47068  16.051  10.288   4.667 -0.1984  0.0840  0.1412
31175W        W47069   6.497  14.747  15.909 -0.0171  0.0101 -0.1520
31176W        W47070  13.378  17.268  12.542  0.0453 -0.1143  0.0896
31177W        W47071  11.850  13.274  13.344  0.3069 -0.0924 -0.1366
31178W        W47072   4.746   1.544  13.668  0.2021 -0.3299  0.1201
31179W        W47073   5.599   6.651  14.837 -0.0619 -0.1706  0.1844
31180W        W47074   3.872   3.257   2.852 -0.3435 -0.4290  0.0496
31181W        W47075   3.702   3.675   2.645 -0.4596 -0.0287 -0.0147
31182W        W47076  12.177  15.526   5.027  0.1343  0.3920  0.2462
31183W        W47077  12.895   6.290   2.628  0.2541  0.3556  0.0523
31184W        W47078  16.120   0.957   3.281 -0.1036  0.0609 -0.0653
31185W        W47079   2.353   1.798   4.470  0.0413  0.0397  0.1576
31186W        W47080   8.859  10.436   5.842 -0.3277  0.0773 -0.0590
31187W        W47081   2.105   5.223   3.218 -0.0108  0.1973  0.2552
31188W        W47082   7.023   3.507   2.316  0.0069  0.0294  0.1598
31189W        W47083  14.130   2.406  12.903 -0.0125 -0.0021  0.1284
31190W        W47084  10.148   5.708  11.632 -0.0849  0.2284 -0.1416
31191W        W47085   9.650  17.340   1.923 -0.1404  0.0748  0.2555
31192W        W47086   0.405  14.899  11.873 -0.0637  0.1816 -0.0626
31193W        W47087   1.569   3.942  16.143  0.2300 -0.0936  0.3996
31194W        W47088  11.617  12.760   0.755 -0.2814 -0.0718  0.1298
31195W        W47089   1.650  16.763  16.525  0.1783  0.0689  0.2086
31196W        W47090  16.189   1.844  13.632 -0.0863 -0.0459 -0.1607
31197W        W47091   6.325   2.015   0.552  0.1223  0.1386 -0.0284
31198W        W47092   7.600  10.418   4.140  0.1995  0.1939  0.2157
31199W        W47093   0.829  10.639   2.863  0.3958 -0.1100  0.1577
31200W        W47094   4.736   0.202   3.046  0.2306 -0.0397  0.1062
31201W        W47095   7.361  17.626   3.015 -0.0656 -0.0374  0.3088
31202W        W47096   5.965   6.521   4.648 -0.3094  0.0203 -0.2209
31203W        W47097   9.454  13.106  13.332  0.1245 -0.0131  0.1600
31204W        W47098   9.560  12.194   5.948 -0.1890  0.1883 -0.1625
31205W        W47099  12.231   1.482  14.016  0.2573 -0.0459  0.0949
31206W        W47100  11.259   6.992   3.544 -0.1750  0.1771 -0.0808
31207W        W47101  16.421   5.384  12.766  0.0331  0.1136  0.0397
31208W        W47102  13.266   0.395  11.278  0.0554 -0.1812 -0.1200
31209W        W47103  12.299  13.493   3.171  0.2424  0.3549 -0.0104
31210W        W47104  17.128  11.307  13.134 -0.0872 -0.1582  0.3016
31211W        W47105   9.767  14.775  12.745  0.1598  0.0698  0.0047
31212W        W47106   1.408   9.047   1.495  0.3053  0.1299  0.0067
31213W        W47107  17.355  10.769   0.517  0.0452 -0.1165 -0.2387
31214W        W47108  17.095   9.520   5.704  0.0448  0.0020  0.0683
31215W        W47109  10.512   2.710   4.700 -0.0457  0.2590 -0.0452
31216W        W47110  13.946  14.964   2.187 -0.0092 -0.0884  0.0184
31217W        W47111   9.807   7.953  13.069  0.1428  0.2746 -0.5447
31218W        W47112   9.320  13.730   0.169 -0.0559  0.1046  0.0062
31219W        W47113  13.368   7.716  15.026 -0.0258  0.1891  0.1685
31220W        W47114  10.753  12.026  11.934 -0.1737  0.0979 -0.0666
31221W        W47115   3.019   0.466   5.413  0.1197 -0.4008  0.0360
31222W        W47116  13.626   7.439   0.475  0.0665 -0.1139 -0.1460
31223W        W47117  15.832   4.452  15.993  0.0310  0.1063  0.0678
31224W        W47118   2.227  16.553   2.822 -0.2497 -0.0792 -0.0532
31225W        W47119   0.629  13.709   5.360  0.0702  0.1779 -0.0956
31226W        W47120   5.069  13.967   3.122 -0.0686  0.2518 -0.1737
31227W        W47121   0.866  13.229  16.644 -0.2312 -0.3777 -0.3061
31228W        W47122   0.064   0.295   3.943  0.0387  0.1188 -0.2394
31229W        W47123  15.669   5.459  13.537 -0.2588 -0.2603  0.1652
31230W        W47124   0.653  14.305   3.607 -0.1238  0.1371 -0.2127
31231W        W47125   1.519   5.889   4.480 -0.0296 -0.3824  0.0107
31232W        W47126  17.046  10.002   0.307 -0.3079 -0.2016 -0.5845
31233W        W47127   9.851   2.616  13.567  0.1073 -0.1038  0.2852
31234W        W47128   8.091  17.506  12.147  0.0280  0.0692 -0.0361
31235W        W47129   9.826  10.959  15.228  0.1571 -0.0989  0.1574
31236W        W47130  12.321   1.749   0.482 -0.0636  0.1460  0.0227
31237W        W47131   9.716   3.714   4.960  0.0024 -0.0628  0.0842
31238W        W47132  17.609   4.979  11.534 -0.2026 -0.0821  0.2402
31239W        W47133  10.013  11.703  12.938  0.0551  0.2040  0.0237
31240W        W47134  14.352  13.745  13.541 -0.0699  0.0576  0.2971
31241W        W47135   0.485   3.734   0.357  0.1839  0.2319 -0.1691
31242W        W47136  12.913  10.360  13.835  0.1854 -0.1671 -0.3183
31243W        W47137  13.223   5.128   0.267 -0.2891 -0.1631 -0.0504
31244W        W47138  11.173  12.751   5.356  0.1178  0.1270  0.1536
31245W        W47139   0.974  15.450  14.338  0.0317  0.1617  0.0124
31246W        W47140  17.047  14.441  13.906  0.0397 -0.1719  0.0018
31247W        W47141   2.119   1.013   4.715  0.0976 -0.2116  0.3050
31248W        W47142  15.760  12.860   1.841  0.3523  0.1873 -0.2648
31249W        W47143  14.866  14.495  13.161  0.2698 -0.0855 -0.0152
31250W        W47144  14.965   1.720   6.148 -0.1208  0.0894 -0.0518
31251W        W47145  11.551   4.871   5.359  0.2781 -0.0041  0.0487
31252W        W47146   5.883   1.717  15.605  0.1415  0.2025  0.0788
31253W        W47147   5.449   4.743  12.893 -0.0248 -0.0529  0.0528
31254W        W47148   7.653   3.023  12.689  0.0077  0.3083 -0.1282
31255W        W47149   9.356  14.849  14.675 -0.0747  0.0706 -0.1104
31256W        W47150  10.057   3.167   3.219 -0.2971  0.0935 -0.0292
31257W        W47151  17.170   0.104   2.014  0.2318  0.2419  0.3123
31258W        W47152  17.092   3.075  16.037 -0.0121 -0.1100  0.1425
31259W        W47153   9.747  14.137   0.106 -0.1145 -0.1626  0.0489
31260W        W47154   0.969   6.845  11.517 -0.4092  0.4020  0.2321
31261W        W47155  15.567  16.128   1.570 -0.2828 -0.1298 -0.1453
31262W        W47156   1.765   2.531  14.370  0.0494  0.1151  0.0827
31263W        W47157   4.700   9.070  12.572  0.0462 -0.1868 -0.2343
31264W        W47158   8.057   5.312  12.591 -0.0727  0.3175  0.2063
31265W        W47159   7.987  12.023   2.727 -0.0693 -0.1112  0.2638
31266W        W47160   4.253   3.677  12.655  0.1006  0.0889  0.2609
31267W        W47161  13.279  14.517   2.594 -0.0250 -0.0009 -0.4632
31268W        W47162   0.121  10.160  16.261  0.0802 -0.1353 -0.2702
31269W        W47163  14.363  12.268   4.002  0.1550  0.2328  0.1459
31270W        W47164   1.816   6.198  12.636  0.1490 -0.0449 -0.0405
31271W        W47165  16.743  10.285  15.816 -0.2350 -0.1955 -0.0566
31272W        W47166   7.402   4.249  12.837 -0.0457  0.0393  0.2817
31273W        W47167  16.733  13.472  15.759  0.3370 -0.0725 -0.0162
31274W        W47168   6.019   5.569   0.947 -0.3445 -0.0465  0.0392
31275W        W47169   6.744   4.521   5.113 -0.0538 -0.1338  0.1900
31276W        W47170  12.213   6.843   5.035 -0.0425  0.1166  0.1264
31277W        W47171   4.458  11.014  15.191  0.0784 -0.2001  0.2198
31278W        W47172   0.455   5.267  12.878 -0.0252  0.0637 -0.0462
31279W        W47173   8.195   6.031   4.146 -0.0428  0.0500  0.1102
31280W        W47174   9.344   0.112   2.650  0.0503 -0.2085  0.5102
31281W        W47175   8.023  11.889   1.733 -0.1179 -0.0335  0.1648
31282W        W47176   0.030   0.420  13.727 -0.1950 -0.1987  0.0165
31283W        W47177   9.524  16.366  16.802 -0.0669 -0.0554 -0.0852
31284W        W47178   6.864  11.560  12.478 -0.0903  0.0660  0.1551
31285W        W47179  14.760  15.412  14.238 -0.2342 -0.1605  0.0880
31286W        W47180   7.204   4.692  14.211  0.0505 -0.0353  0.2644
31287W        W47181  14.610  14.120   1.999  0.0396 -0.3506  0.0407
31288W        W47182  14.438  16.667  13.417  0.1973  0.3117  0.2903
31289W        W47183   5.031  16.492  15.890 -0.1276 -0.2993  0.0646
31290W        W47184   6.747   6.807  13.295  0.0308  0.1509  0.2663
31291W        W47185   5.637   9.601   5.019 -0.1357  0.1919 -0.3656
31292W        W47186   4.674  10.008  12.025 -0.1896 -0.5167  0.2869
31293W        W47187   9.184   5.125  15.083 -0.0574  0.0451 -0.3051
31294W        W47188  13.859   2.991   1.949  0.3869  0.2739  0.2123
31295W        W47189   8.643   0.129  13.009  0.1733  0.0930 -0.2401
31296W        W47190   8.697   8.380   2.037 -0.1643  0.1445  0.0357
31297W        W47191   0.307   6.867  13.279 -0.2436 -0.1583 -0.0332
31298W        W47192   6.919  11.391   0.059  0.0065 -0.3151 -0.0751
31299W        W47193   9.881  15.242   6.050  0.1417  0.0980  0.0079
31300W        W47194  16.207  15.008   1.641  0.0745  0.0651  0.1894
31301W        W47195  16.012   8.558   0.132 -0.1395 -0.0829  0.1453
31302W        W47196   3.683   4.699  13.405 -0.2878  0.0430 -0.6807
31303W        W47197  17.131   1.650  15.827  0.3016 -0.3620 -0.0993
31304W        W47198   8.758   5.841   6.404  0.3963  0.3825  0.1850
31305W        W47199  15.303   1.911  11.512  0.2509 -0.2211  0.2977
31306W        W47200   9.908  14.634   1.785  0.1114 -0.2006  0.0289
31307W        W47201   9.397   3.396  13.086  0.1988  0.0348  0.0214
31308W        W47202   7.552   4.197   0.421 -0.0911 -0.1168  0.2193
31309W        W47203   7.250  15.310   1.134  0.1816 -0.0967  0.0057
31310W        W47204   3.241  15.792  12.791  0.1598  0.3089 -0.0170
31311W        W47205   8.015   7.378   3.337 -0.0552  0.1258 -0.0490
31312W        W47206   2.258   3.146  14.430  0.1786 -0.0827  0.0632
31313W        W47207  14.848   1.261   1.850 -0.3046 -0.1441 -0.3051
31314W        W47208   4.834   5.072  13.457 -0.1114  0.1728  0.0691
31315W        W47209   1.057   7.396   0.654  0.0345 -0.1026 -0.2631
31316W        W47210   8.632   2.488   5.756  0.2580 -0.0095  0.2525
31317W        W47211   5.129  15.686  13.213 -0.0633 -0.2344 -0.5291
31318W        W47212  10.416   7.265   1.450 -0.0509  0.1752  0.1835
31319W        W47213   3.020   8.004   0.068  0.1337 -0.1363  0.2275
31320W        W47214  17.020  14.890   6.293 -0.2018 -0.0791  0.2726
31321W        W47215  16.196  11.440   3.911  0.0493  0.2079 -0.0211
31322W        W47216   1.904  13.591   4.287  0.1009 -0.2752  0.2354
31323W        W47217   1.743  16.807  15.996  0.0823 -0.1368  0.0568
31324W        W47218  11.818   6.098  12.399 -0.0755 -0.0559  0.1619
31325W        W47219   1.712  11.257   1.472 -0.1203  0.2099  0.0035
31326W        W47220   3.980   8.890   4.710  0.0147  0.0557  0.0552
31327W        W47221   6.862   1.545   4.785 -0.0247 -0.2525 -0.0225
31328W        W47222   0.842   7.118   1.075 -0.0478 -0.0193 -0.0757
31329W        W47223   7.131   7.345  15.874  0.2298  0.3761 -0.3880
31330W        W47224  17.165  15.037  12.186  0.0223  0.4281  0.0527
31331W        W47225   0.939   3.468   3.302  0.0773  0.1900  0.1422
31332W        W47226   0.003  10.715   2.765  0.0784  0.0831 -0.3412
31333W        W47227   5.362   1.493   2.762  0.1836  0.0598 -0.1670
31334W        W47228  12.052  16.035   3.777  0.0056  0.2941  0.0252
31335W        W47229   1.813   0.275   5.926 -0.0143  0.0770  0.2292
31336W        W47230   2.119   7.635  11.525  0.1137 -0.1495  0.2097
31337W        W47231   2.081   1.247  11.260 -0.2008  0.1986 -0.1274
31338W        W47232  14.947   7.962   2.005 -0.1498 -0.3109  0.0020
31339W        W47233  15.301   2.245   0.463  0.0728  0.0186  0.1671
31340W        W47234  10.448  10.979   4.623 -0.0800 -0.2172  0.1158
31341W        W47235   5.805   4.742  13.193  0.1068  0.0899 -0.1667
31342W        W47236  13.124   1.561  14.372  0.0440 -0.0033  0.3354
31343W        W47237   8.999  14.658   4.464 -0.2504  0.5482 -0.1216
31344W        W47238  16.093   9.643   4.025  0.2227  0.1433  0.1532
31345W        W47239   9.772  17.725   2.835  0.2796 -0.0535 -0.3296
31346W        W47240  15.158  17.353  15.838 -0.3776 -0.1458  0.1294
31347W        W47241   9.308   1.520  14.064  0.1013 -0.2746 -0.2304
31348W        W47242   7.741   3.362  16.374 -0.3356  0.3954  0.1433
31349W        W47243   6.272  11.203   6.519 -0.0056  0.1286  0.1373
31350W        W47244   3.280   6.283  16.011  0.1477 -0.2201 -0.2861
31351W        W47245   1.397   8.226  16.335  0.2720 -0.0874 -0.0993
31352W        W47246   0.394  13.229   2.335 -0.1957  0.0567 -0.0143
31353W        W47247   1.386   4.759   4.307  0.1845  0.1158 -0.0622
31354W        W47248   3.118   9.723   1.367 -0.5635  0.0858 -0.0755
31355W        W47249   4.099  11.206  15.517  0.1546  0.1667  0.1585
31356W        W47250   1.752  10.290   4.702  0.2015 -0.1001  0.1562
31357W        W47251  12.139  10.312   5.784 -0.1251  0.1462 -0.0948
31358W        W47252   0.492  10.672   4.959  0.0365 -0.1094 -0.1906
31359W        W47253  11.479  14.498  16.923  0.3848 -0.1184 -0.1864
31360W        W47254   8.231   1.407   0.494  0.1133  0.3886  0.1052
31361W        W47255   5.374  13.815  14.416 -0.0469  0.0726 -0.0317
31362W        W47256  12.987  14.166   5.014  0.0330  0.0260 -0.1807
31363W        W47257  16.598   1.303  16.247  0.1643 -0.3488 -0.1651
31364W        W47258   4.122   9.857   4.326 -0.2485 -0.1748 -0.0683
31365W        W47259   8.879   2.715  16.148  0.0708 -0.0267  0.0585
31366W        W47260  17.159   8.420  12.356  0.1050  0.4001 -0.0095
31367W        W47261   2.123  13.467   2.441  0.0180  0.3061 -0.1322
31368W        W47262   0.386  16.523  16.583  0.0026 -0.3462  0.4225
31369W        W47263   2.252  12.863  14.859  0.0284 -0.2340  0.1427
31370W        W47264  14.326  15.367  15.092  0.1677  0.2786  0.1214
31371W        W47265  13.490  12.679   4.592  0.3120  0.0635  0.0488
31372W        W47266   5.328   3.145  14.302 -0.1708  0.0398  0.1325
31373W        W47267  15.182  15.442   5.220 -0.1450 -0.0955 -0.1354
31374W        W47268   2.288  13.279   0.306 -0.0822 -0.0200  0.2822
31375W        W47269   2.197   7.163  12.715  0.0340 -0.0630  0.0665
31376W        W47270   6.863   0.512  15.928 -0.0867 -0.0074 -0.0633
31377W        W47271  10.308   5.179   0.670 -0.1976  0.1335  0.1709
31378W        W47272   6.377   3.091   5.909  0.2439 -0.0252 -0.2261
31379W        W47273   5.768   0.391   1.988  0.0608  0.1224  0.2393
31380W        W47274   1.596  13.253  14.784  0.1303 -0.0418 -0.1782
31381W        W47275   7.492   3.410   2.261 -0.1235 -0.3246  0.1591
31382W        W47276   3.101   2.346  12.922 -0.1449  0.0924  0.1966
31383W        W47277   3.919   9.803   0.574  0.2058  0.0843 -0.1631
31384W        W47278   1.455  17.512   4.613 -0.0943  0.2297 -0.1696
31385W        W47279   6.661   8.410   4.609  0.1573 -0.0637  0.2812
31386W        W47280   8.610  12.264  11.933  0.1706  0.0346  0.1896
31387W        W47281   1.730   6.586   1.842  0.3510 -0.3026  0.2421
31388W        W47282   7.036   8.412   0.403 -0.0324  0.2662  0.0966
31389W        W47283  13.980   6.859   4.960  0.1109 -0.2809 -0.0195
31390W        W47284   9.559   1.924   4.330 -0.1131 -0.2401  0.0637
31391W        W47285   7.413   5.528   2.014 -0.0495  0.1979 -0.0498
31392W        W47286   5.143  12.512  14.899 -0.2379  0.1857  0.2816
31393W        W47287   9.579   0.918  11.986  0.0238  0.1440 -0.2112
31394W        W47288  14.502   7.765   2.023 -0.0553  0.1572 -0.0740
31395W        W47289  10.724   0.335   3.295  0.1668  0.0224  0.0922
31396W        W47290   7.699   5.386  13.359  0.0743  0.1673 -0.1333
31397W        W47291  11.102  11.077  14.151  0.0065  0.3467 -0.1145
31398W        W47292  16.165  15.775  14.363  0.0224 -0.1437 -0.0246
31399W        W47293  15.369   4.288   3.982  0.1275  0.1459  0.1043
31400W        W47294   8.017   5.048   4.584  0.1287 -0.2036 -0.3354
31401W        W47295  17.618  14.964   0.586  0.0054 -0.1764  0.2291
31402W        W47296   6.799  15.182  11.289 -0.0276  0.0471 -0.2640
31403W        W47297  11.271  16.144  14.409  0.2345  0.2382 -0.0510
31404W        W47298   9.822  15.640   4.281 -0.3830 -0.0561  0.4710
31405W        W47299   7.280  10.018   3.888  0.1673 -0.4971 -0.0213
31406W        W47300  14.366   8.410  13.564 -0.0182  0.2657  0.2552
31407W        W47301   2.438  11.383   2.147 -0.1560  0.2455  0.2883
31408W        W47302  10.295  14.944  15.004 -0.0169  0.4236 -0.0828
31409W        W47303  11.167   9.317  12.721  0.0137 -0.0434  0.2824
31410W        W47304   4.108   1.847   3.940  0.3857 -0.0559 -0.1085
31411W        W47305   0.509   9.749  16.096 -0.2962  0.0389  0.2434
31412W        W47306   9.175  12.660  13.181  0.0118  0.0554 -0.3223
31413W        W47307   7.732   8.638  14.545 -0.1514 -0.2244  0.5138
31414W        W47308  11.414  11.933  14.774 -0.0770 -0.2478  0.3547
31415W        W47309  16.648   1.653   4.229 -0.0760 -0.0246 -0.1924
31416W        W47310  12.506   1.267  10.589 -0.0372 -0.0958 -0.0834
31417W        W47311   3.850   1.735  16.218 -0.0413 -0.1404  0.0492
31418W        W47312   3.149   3.762  15.193  0.2047  0.2186 -0.1756
31419W        W47313  12.636  17.652  15.907 -0.0760  0.1947  0.2832
31420W        W47314  15.831  14.048  13.569  0.1466  0.1766 -0.1679
31421W        W47315   0.121  10.369  15.234  0.0806 -0.2691 -0.3459
31422W        W47316   3.005   2.713  11.915 -0.2439 -0.0117 -0.0242
31423W        W47317  10.762  11.598   1.887  0.1696 -0.3889 -0.0150
31424W        W47318  10.861   0.348  11.972 -0.1386 -0.1275  0.1263
31425W        W47319  16.544   2.362   5.149  0.0786  0.0740  0.0630
31426W        W47320   5.798   4.052  16.865 -0.0053 -0.1075 -0.2869
31427W        W47321  12.539   1.902  15.730 -0.1977 -0.0045 -0.0118
31428W        W47322  14.306   0.068   1.433 -0.0330 -0.2656 -0.1089
31429W        W47323  16.970  16.169   4.721  0.0008 -0.0031  0.1162
31430W        W47324   8.167  16.217  15.626 -0.0325  0.0322 -0.1392
31431W        W47325  17.542  12.533  14.858 -0.1378 -0.2706  0.2745
31432W        W47326   4.734  15.219  16.352  0.0605 -0.3337 -0.1828
31433W        W47327   7.084   6.591  12.490  0.1473  0.1358  0.0340
31434W        W47328   6.122  12.627   2.637 -0.0853 -0.0803 -0.0541
31435W        W47329   8.232   5.971   1.563  0.3093 -0.0530  0.1091
31436W        W47330  12.683   8.192  15.582 -0.4740 -0.2654  0.0700
31437W        W47331   8.667   1.623  10.262 -0.1232  0.4636  0.0446
31438W        W47332  16.465  15.518   5.371  0.2050 -0.0083 -0.0264
31439W        W47333  14.716   8.712  13.952 -0.0539  0.1202 -0.1215
31440W        W47334   0.021  14.485  13.111  0.1960  0.0383  0.0995
31441W        W47335  12.242  12.439  14.026  0.4155  0.1516 -0.1637
31442W        W47336  11.474   1.653   0.820  0.3265  0.1814 -0.1046
31443W        W47337  11.267   0.838   0.076  0.0528 -0.1249  0.0559
31444W        W47338   2.643   5.950  15.982 -0.2997 -0.2683  0.0412
31445W        W47339   4.203   3.161  12.464  0.1249 -0.0673  0.2109
31446W        W47340   1.945   8.555  12.627  0.2934 -0.2806 -0.0391
31447W        W47341   1.665  11.020   1.038 -0.0805 -0.0693  0.3436
31448W        W47342   9.727   0.343  13.921 -0.3070 -0.3578 -0.1034
31449W        W47343   9.751   7.466  14.580 -0.1972 -0.1731 -0.1581
31450W        W47344  16.409   5.721   0.127  0.2062 -0.4742 -0.1093
31451W        W47345   5.591   6.073  15.146 -0.1003  0.0929 -0.0370
31452W        W47346   2.842  10.580   0.801 -0.0466 -0.3475  0.0363
31453W        W47347   9.704   8.130   0.835 -0.1618 -0.2741 -0.2225
31454W        W47348  13.129   1.237  15.335  0.0524 -0.3050  0.0997
31455W        W47349  14.877   0.454   3.242  0.1030 -0.0940  0.1241
31456W        W47350  15.509  12.570  13.414 -0.0150 -0.0660  0.1542
31457W        W47351  14.269   6.641  12.561 -0.2318 -0.0803 -0.2575
31458W        W47352   1.170   3.096  15.734  0.5672 -0.0443 -0.0247
31459W        W47353  15.493  17.432  12.181  0.2904  0.1363 -0.0146
31460W        W47354   9.237  14.239  16.805  0.0362  0.1982  0.1645
31461W        W47355   1.085   6.857   0.662  0.1203  0.1094  0.0059
31462W        W47356  14.068   2.502   0.432 -0.0539  0.3308 -0.0321
31463W        W47357   4.432  15.485   5.034 -0.2558  0.0002  0.2980
31464W        W47358  16.622   5.075   2.996 -0.1649  0.0818  0.0635
31465W        W47359  13.433   5.069   3.068 -0.0143  0.0546  0.1418
31466W        W47360   7.984  11.188  12.671 -0.1655  0.0487  0.3065
31467W        W47361  11.184  14.201  15.004  0.1915  0.0919  0.1879
31468W        W47362  13.754   7.809   3.355  0.2790  0.0263  0.0533
31469W        W47363  12.555  10.659   4.093 -0.0452 -0.1191  0.0386
31470W        W47364  15.049   0.455  12.505  0.1353  0.1154 -0.2691
31471W        W47365  15.536  15.870   5.040  0.0354 -0.0750  0.0373
31472W        W47366  13.013   1.029  15.793 -0.1343  0.4329  0.0282
31473W        W47367  10.265  11.157   5.816 -0.0159 -0.1480 -0.0784
31474W        W47368  13.553  16.884  15.173  0.0283  0.0232 -0.2742
31475W        W47369   3.755   9.958   4.039  0.1082 -0.2393 -0.4040
31476W        W47370   2.851  10.489  12.361 -0.0103  0.3964  0.0260
31477W        W47371  17.385  17.732   3.318  0.1700 -0.0279 -0.0109
31478W        W47372   9.970   5.850   4.994 -0.1749  0.1215 -0.0394
31479W        W47373   8.761  17.130  13.117 -0.0814 -0.2124 -0.2726
31480W        W47374  13.545  12.710  13.416 -0.1361 -0.0996  0.2740
31481W        W47375  10.738   0.196  16.234 -0.0837  0.1735 -0.0842
31482W        W47376  10.497  17.486   5.404  0.2017  0.0842  0.0364
31483W        W47377   3.161  13.747   3.287 -0.0185  0.0781  0.1474
31484W        W47378  14.021  17.134  16.742  0.1458  0.1237 -0.0592
31485W        W47379   0.984  11.187  15.238  0.0771  0.1437  0.1581
31486W        W47380   8.304   6.401   3.182 -0.0894  0.0764  0.0325
31487W        W47381   1.401   9.494   3.906 -0.0915 -0.0804 -0.2142
31488W        W47382   5.431   4.144   2.153 -0.0680 -0.0823 -0.3272
31489W        W47383  17.795  14.976  11.667 -0.3230 -0.1713 -0.0119
31490W        W47384  11.596   7.746   3.997 -0.1183 -0.0606  0.3645
31491W        W47385  15.334  14.616   5.753 -0.1442  0.0848  0.0500
31492W        W47386   3.147   2.314   1.877  0.2472  0.0482  0.3217
31493W        W47387   9.716   2.583  12.646 -0.0166 -0.3616 -0.1339
31494W        W47388   3.149   8.175  14.583 -0.1043 -0.1378 -0.1112
31495W        W47389   6.049   7.156  14.160 -0.1421  0.0938 -0.0998
31496W        W47390   2.145   4.815  14.138 -0.0573 -0.1496 -0.0914
31497W        W47391  14.124   6.699  14.083  0.1219 -0.0902 -0.0466
31498W        W47392   6.752   8.023  15.002  0.1696 -0.2471  0.2200
31499W        W47393  10.927   2.956   4.517  0.1001  0.1206  0.4700
31500W        W47394   3.670  11.545   4.072 -0.0148 -0.3027 -0.0962
31501W        W47395   7.333  15.800   0.994  0.1034  0.0040  0.2096
31502W        W47396  16.995   7.059  11.373  0.0552 -0.1920 -0.0998
31503W        W47397  16.247   5.068   6.159 -0.0727 -0.0411 -0.1810
31504W        W47398   8.423  17.787  10.758  0.2776  0.0773 -0.1884
31505W        W47399   5.883  14.457   2.915 -0.1212 -0.1487  0.1284
31506W        W47400  15.010  10.464  16.891  0.1660 -0.1694  0.2413
31507W        W47401   9.283  15.438  15.818  0.3429 -0.2311  0.0727
31508W        W47402   4.838   1.118   4.123 -0.1573 -0.2723  0.0676
31509W        W47403   0.246   1.695   1.382  0.1750  0.0246  0.0131
31510W        W47404  13.461  13.706   2.590 -0.1722 -0.1167  0.0230
31511W        W47405   8.088   1.157  14.811 -0.1283  0.0353  0.1040
31512W        W47406   4.492  12.003   3.091  0.0031  0.0747 -0.1016
31513W        W47407   2.469  10.713  11.714  0.0939  0.1548  0.1604
31514W        W47408   3.361   8.972   2.047  0.0912 -0.0248  0.0465
31515W        W47409   8.006   1.786   5.696 -0.1747 -0.0196 -0.0085
31516W        W47410  16.350  10.262  16.786  0.1209 -0.0577 -0.2300
31517W        W47411  16.831  17.783   3.294 -0.0989 -0.2684  0.1922
31518W        W47412   6.294   9.931   4.632  0.0603  0.1728 -0.2695
31519W        W47413  17.793  11.622   2.890 -0.1502  0.0213 -0.2136
31520W        W47414  11.675  15.299   2.186 -0.1265 -0.2784  0.3981
31521W        W47415  16.793  13.360   5.389  0.2131 -0.3415 -0.1226
31522W        W47416   1.084  16.790   2.603  0.1107 -0.1410  0.0575
31523W        W47417   2.533   6.304   1.706  0.2045 -0.2045  0.1066
31524W        W47418   8.839  11.673   0.935 -0.1282  0.0914  0.1201
31525W        W47419   9.572   6.744  13.177 -0.0845  0.1203  0.3121
31526W        W47420   1.853   1.854  15.604 -0.1399 -0.2162 -0.0762
31527W        W47421   0.139   4.223   2.662  0.0997  0.1013 -0.0548
31528W        W47422   9.982   3.747   3.142 -0.0199  0.1439  0.3352
31529W        W47423  10.890   3.569  10.748 -0.0263  0.0012 -0.2211
31530W        W47424   7.858   3.322   1.305 -0.0304  0.0280  0.0339
31531W        W47425  15.842  11.452   0.607  0.1622 -0.1372  0.1831
31532W        W47426  12.862   0.986   5.252  0.1449  0.0827  0.1473
31533W        W47427  16.962   5.063   3.917  0.2170  0.2458  0.2909
31534W        W47428   3.270   8.717  12.577 -0.3269 -0.1684 -0.3534
31535W        W47429   7.428   3.618  14.334  0.0889 -0.3184 -0.1247
31536W        W47430  12.647   7.529  12.903  0.2004  0.0022  0.0297
31537W        W47431  15.876   8.865  15.780  0.1036 -0.0537  0.2013
31538W        W47432   2.348  10.378   1.463  0.3041  0.0996  0.1961
31539W        W47433  10.280  14.435  12.037  0.0428 -0.0010 -0.1420
31540W        W47434   5.548   3.779   4.392 -0.2904 -0.0718 -0.0131
31541W        W47435  12.934  16.875  14.214  0.0523 -0.0478 -0.0767
31542W        W47436  10.928   6.093  15.051  0.1054  0.1857 -0.0532
31543W        W47437   7.187  14.262  13.802  0.3080  0.0314 -0.3054
31544W        W47438  13.864   0.014  16.064 -0.4020  0.0412  0.0648
31545W        W47439   9.085  11.037   5.226 -0.0912  0.1996 -0.0462
31546W        W47440   4.462   5.423   1.254 -0.0837 -0.0106 -0.2062
31547W        W47441   8.553   4.634  12.012  0.1842  0.0700  0.0685
31548W        W47442  13.293  12.225   0.947  0.0950  0.3378  0.2412
31549W        W47443   3.963   2.786  15.173  0.0710  0.3557 -0.0705
31550W        W47444   7.277   5.606   2.590  0.0478  0.0994  0.0629
31551W        W47445   8.403  11.039   2.845  0.2169  0.0808  0.2909
31552W        W47446  10.050  16.493   0.761  0.0614 -0.2507  0.1527
31553W        W47447  13.093   1.498  16.150 -0.0082  0.2419 -0.0016
31554W        W47448   6.833  16.659  15.184  0.0345 -0.0850  0.2000
31555W        W47449  16.131   4.134  14.213 -0.2480  0.0810  0.0624
31556W        W47450   4.499  17.546  14.646  0.3454  0.2907 -0.1733
31557W        W47451  11.045  11.488   0.562 -0.0943 -0.0783 -0.0039
31558W        W47452  15.329  16.646   4.629  0.1217 -0.2307  0.0373
31559W        W47453  17.346   7.096  15.795 -0.2521 -0.2604 -0.0470
31560W        W47454   4.662   6.821   3.952  0.0694 -0.1083  0.3963
31561W        W47455  13.943  16.903  15.686 -0.0815  0.0191  0.0725
31562W        W47456   7.279  10.118   0.090  0.3000 -0.2419  0.0681
31563W        W47457  16.935   0.606   5.343  0.1567 -0.2123 -0.0856
31564W        W47458   4.755  11.686   5.821  0.2173  0.1477 -0.2844
31565W        W47459  11.314  14.811  12.838 -0.1510 -0.2969 -0.0864
31566W        W47460   8.271  12.984  13.326 -0.2600 -0.2284  0.0335
31567W        W47461  12.751   5.950  11.929 -0.0821  0.1007  0.0798
31568W        W47462   2.674   9.063   3.579 -0.2359  0.0592  0.1164
31569W        W47463  15.491   1.458  13.370  0.1663 -0.0566 -0.2883
31570W        W47464  15.484  14.064   3.048 -0.1225  0.2392  0.1329
31571W        W47465  13.999   3.030  14.939  0.2263  0.1158 -0.0032
31572W        W47466   3.497  16.616   4.373  0.1151 -0.2586  0.1397
31573W        W47467   7.388  12.164  15.444  0.0704  0.1166  0.0933
31574W        W47468  13.806   9.689   5.131  0.4781 -0.0176 -0.2171
31575W        W47469  13.622  13.300  12.468 -0.0901  0.1296  0.0160
31576W        W47470   7.512  16.492  13.521 -0.3153 -0.1727 -0.0762
31577W        W47471  13.739   2.637  12.870  0.2530 -0.1838 -0.1868
31578W        W47472   1.693  17.547  13.580 -0.3358 -0.2891 -0.0223
31579W        W47473   2.303  12.373  16.177 -0.0149 -0.1865  0.0067
31580W        W47474  10.663  14.710   2.893  0.0811 -0.0570 -0.0933
31581W        W47475   8.203   6.546   2.303  0.2786  0.1051 -0.1084
31582W        W47476   8.925   4.994   4.777  0.2071  0.1683  0.0027
31583W        W47477   8.477   0.942  14.196 -0.0925  0.0899  0.0090
31584W        W47478   3.868  13.888   1.922  0.0929 -0.2777  0.1544
31585W        W47479  16.263   6.215   0.182 -0.0281 -0.1247  0.0351
31586W        W47480   3.562  10.101  15.767 -0.2490 -0.1450  0.0579
31587W        W47481   2.133  15.770  14.146 -0.0036  0.1060  0.3115
31588W        W47482  10.041   9.143  14.530 -0.3022 -0.4058  0.0530
31589W        W47483   1.788   4.654   2.686 -0.1440  0.0782  0.1085
31590W        W47484   4.435  17.024   0.780  0.1932 -0.0284  0.1907
31591W        W47485   5.998   8.733  12.843 -0.1112 -0.0597 -0.0390
31592W        W47486  15.100   9.067   4.702  0.2745  0.0231 -0.2012
31593W        W47487  14.172   7.722  12.386  0.0224 -0.3725 -0.2039
31594W        W47488  13.351  10.475   0.516 -0.2031  0.0068 -0.1647
31595W        W47489  14.576   8.989   2.815  0.1851  0.1296  0.0218
31596W        W47490   9.259   0.873   5.979  0.3128  0.1623 -0.1941
31597W        W47491   6.170   4.451   2.545  0.1149 -0.1501  0.1054
31598W        W47492   3.528   7.516  16.412 -0.4402  0.1664 -0.1799
31599W        W47493  12.500   8.820   0.568 -0.3824 -0.0982 -0.1985
31600W        W47494   9.413   5.127   5.040 -0.0513  0.2770 -0.2872
31601W        W47495   3.496  11.939   4.983 -0.0253 -0.0856 -0.2206
31602W        W47496   1.668  15.778   1.803 -0.0479 -0.0332  0.1015
31603W        W47497  11.622   7.564   5.324  0.0019  0.0994  0.1457
31604W        W47498   1.891  16.088   2.161  0.1659  0.0390 -0.2738
31605W        W47499   9.386   0.964   4.461  0.3514 -0.0379 -0.1483
31606W        W47500  12.009   3.473  11.133  0.0860  0.0443  0.2864
31607W        W47501   4.329   1.997  16.112  0.0484  0.1279 -0.0770
31608W        W47502  12.226   7.836   4.621  0.1645  0.1752 -0.1097
31609W        W47503  17.490  10.244  15.344  0.2025 -0.2514 -0.0496
31610W        W47504  12.278  11.240   0.319 -0.3743  0.0373 -0.1041
31611W        W47505   8.136   0.682  15.104 -0.1939  0.1067  0.2942
31612W        W47506   2.654   4.965  14.242 -0.0288  0.0739  0.2506
31613W        W47507   5.265  15.338   4.927 -0.1407 -0.2318 -0.0690
31614W        W47508  15.911  15.592   5.249 -0.0100  0.3170  0.2361
31615W        W47509  17.088  13.945   2.001 -0.0660  0.0936 -0.1227
31616W        W47510   8.654  12.904   3.114 -0.1340  0.0066  0.1023
31617W        W47511  10.439   1.356  15.453 -0.2864  0.3908  0.1169
31618W        W47512   8.679   6.179   0.770  0.1175  0.0733  0.2676
31619W        W47513   3.927   5.835  16.347 -0.0166  0.2256 -0.2946
31620W        W47514  16.955   0.503   1.170  0.1118  0.1232 -0.1443
31621W        W47515   0.767  11.513   5.176 -0.1591  0.0412 -0.2661
31622W        W47516   3.506   2.563  16.376 -0.2776 -0.0753  0.1885
31623W        W47517   9.697   3.799  16.162 -0.0515  0.2637 -0.1453
31624W        W47518   4.339  11.160  12.600  0.0410  0.1011  0.2256
31625W        W47519   4.985  16.052   2.114  0.0779  0.3904 -0.0473
31626W        W47520   6.355  15.581   2.586 -0.1894 -0.2144 -0.1313
31627W        W47521  12.583  17.280   5.101  0.1319  0.1039  0.1011
31628W        W47522  16.135   0.489   1.813 -0.2561  0.0597  0.1317
31629W        W47523  15.800   8.221  15.198 -0.3157 -0.0518 -0.3031
31630W        W47524  13.266  13.107  14.727 -0.1540  0.0987  0.2074
31631W        W47525  14.892  11.768   0.017 -0.2044 -0.0850 -0.4735
31632W        W47526   4.833   9.585   2.101 -0.0785  0.0419  0.0341
31633W        W47527   0.600   0.959   0.462 -0.3644 -0.1115  0.0404
31634W        W47528   2.240   5.092  15.816 -0.0834 -0.1964  0.2096
31635W        W47529   6.622  13.901   2.324  0.0178 -0.1099  0.0128
31636W        W47530  16.046  10.586   2.646  0.0803  0.0990  0.1533
31637W        W47531   1.829   4.033   0.184  0.2412 -0.1109  0.1731
31638W        W47532  14.500  15.723   6.236 -0.0038  0.3773 -0.0583
31639W        W47533   6.943  13.061   2.153  0.3374 -0.1216  0.0801
31640W        W47534  15.871   9.158  12.113 -0.4068 -0.2384 -0.0574
31641W        W47535   5.392  11.974  15.166 -0.0722  0.1999 -0.0330
31642W        W47536  16.259   8.520  12.897  0.0193  0.0150  0.0729
31643W        W47537   5.070   7.710  14.743  0.1259 -0.0761  0.0856
31644W        W47538   4.336  10.962   0.513 -0.2024 -0.0174 -0.2878
31645W        W47539   1.587   6.990  16.200 -0.2406  0.1108  0.1799
31646W        W47540   3.904  11.452  12.593  0.0493  0.0034  0.2284
31647W        W47541   1.539  12.723   3.147 -0.2604 -0.1516  0.1533
31648W        W47542   7.444   8.089  13.252 -0.0420  0.0068 -0.1833
31649W        W47543   5.263   4.650   4.566 -0.0393 -0.0327 -0.2443
31650W        W47544  16.145  12.297   4.754  0.1345 -0.0866 -0.1328
31651W        W47545   5.679  13.311   4.471 -0.1209 -0.2319 -0.1305
31652W        W47546  16.766   3.952  15.109  0.1097  0.1397  0.0426
31653W        W47547  11.374  13.083  13.935  0.3500 -0.2360 -0.2765
31654W        W47548   4.068   1.428   0.946 -0.1950 -0.0486 -0.2350
31655W        W47549  11.098  17.334  11.821  0.3336 -0.0006  0.0787
31656W        W47550   4.511   4.557  15.109 -0.1024 -0.0335 -0.0071
31657W        W47551   8.876   3.189  15.996  0.0610  0.1125  0.1882
31658W        W47552  11.839  16.371  16.918 -0.1119  0.0984  0.1187
31659W        W47553  12.605   3.808   2.702 -0.1352  0.3057  0.2935
31660W        W47554  10.197   7.389   2.408  0.0687  0.3541 -0.2096
31661W        W47555   4.769   9.206   3.851  0.2045  0.0237 -0.0470
31662W        W47556   5.630  13.874   0.148  0.1866 -0.4156  0.1386
31663W        W47557   4.117  12.122   1.323  0.2427 -0.0289  0.2260
31664W        W47558   4.318  14.946  15.627  0.0230 -0.2943  0.0210
31665W        W47559  14.455   3.966  13.178 -0.1776 -0.1744  0.0411
31666W        W47560   9.540  14.949  14.128 -0.1535 -0.4272 -0.0158
31667W        W47561   4.419  13.001   0.233 -0.0091 -0.0617  0.2567
31668W        W47562  15.581  15.857  16.033 -0.2190  0.0251  0.3119
31669W        W47563  14.381   3.951   5.009  0.0356 -0.0861 -0.1138
31670W        W47564   8.124  15.968   1.537  0.1063  0.1751  0.2138
31671W        W47565  15.266   1.848   3.890 -0.0101  0.0739  0.0250
31672W        W47566   1.214  12.520   6.110 -0.0931 -0.3121  0.3523
31673W        W47567  17.044   8.206   4.199 -0.3275  0.1341 -0.1895
31674W        W47568   2.098   2.105   2.667  0.1527  0.0455  0.3052
31675W        W47569  15.507  10.952   2.568 -0.3887  0.0904  0.0478
31676W        W47570   7.768   2.400   4.870  0.0747  0.2523 -0.1623
31677W        W47571  16.300  13.217   5.900  0.1486 -0.0227 -0.1748
31678W        W47572   2.081  14.482   0.091  0.0976 -0.0971 -0.0463
31679W        W47573  17.156  15.697  11.525  0.1595  0.1481 -0.1248
31680W        W47574  16.811   0.079   2.375 -0.1130  0.0161  0.3298
31681W        W47575  15.059  16.196   0.921 -0.0067  0.0226 -0.2832
31682W        W47576  10.766  17.470   0.097  0.2865  0.2296  0.1307
31683W        W47577  13.485   0.969  15.631 -0.2659 -0.1098  0.2265
31684W        W47578   4.695   5.939  14.758  0.0733  0.3315  0.2650
31685W        W47579  16.244   2.859  13.401 -0.0349  0.1379  0.1167
31686W        W47580  16.935  11.607   2.040 -0.0241  0.1136 -0.0551
31687W        W47581   4.387   7.579  11.643 -0.2104 -0.2489  0.0696
31688W        W47582   3.435  15.321  11.602  0.0407  0.2129 -0.2546
31689W        W47583  14.822  15.706   4.852  0.1602  0.0853  0.0787
31690W        W47584  17.700  12.313  11.522  0.0271 -0.1480  0.1767
31691W        W47585  15.180   3.907   4.174 -0.0927 -0.2084 -0.1205
31692W        W47586  10.155   8.568  11.750  0.1813  0.3452  0.0263
31693W        W47587  12.701   0.006  12.145 -0.0394  0.0210  0.0185
31694W        W47588   0.345  13.985  13.358 -0.1794 -0.0485  0.0852
31695W        W47589  13.745  15.324   3.939 -0.0754 -0.0824 -0.1612
31696W        W47590   0.570  17.812   4.171  0.0065 -0.0370 -0.0498
31697W        W47591   1.386   7.852   2.446  0.0359 -0.0726  0.2976
31698W        W47592   0.298   6.899  16.281  0.2874  0.0435  0.2094
31699W        W47593   9.008   7.502  13.328 -0.2118 -0.1040 -0.1534
31700W        W47594   1.580   7.755  14.714 -0.1209 -0.0774 -0.2025
31701W        W47595   4.254  15.332  14.251  0.0098  0.2729 -0.0801
31702W        W47596   2.626   8.898   0.174 -0.3097 -0.1548 -0.0487
31703W        W47597  12.066   4.218   1.924 -0.1104  0.1783 -0.0614
31704W        W47598   8.974   9.679   1.471 -0.0637 -0.3049  0.1084
31705W        W47599   0.911   6.146   0.985  0.0912 -0.1281 -0.4944
31706W        W47600  15.418  17.802   2.124  0.1063 -0.1765  0.1752
31707W        W47601  10.831   6.711  15.293  0.2806 -0.0865  0.0171
31708W        W47602   8.159   0.056   4.440  0.0006  0.2398 -0.0326
31709W        W47603   1.610   0.162  16.797 -0.0443 -0.2065 -0.1308
31710W        W47604   6.071   7.695   5.009  0.0359 -0.0785  0.0186
31711W        W47605  11.730  16.292  14.432 -0.0176  0.1751 -0.0281
31712W        W47606   2.167   5.875  16.014  0.2020 -0.0379 -0.0421
31713W        W47607   6.413   6.191   6.352 -0.0874 -0.1038  0.1018
31714W        W47608   0.859  10.093   2.702 -0.2466  0.0398  0.3169
31715W        W47609  10.937   6.953   0.785 -0.0157  0.2392  0.1711
31716W        W47610   8.043  13.512  13.586  0.0538 -0.4523  0.0247
31717W        W47611   3.289   7.667   1.974  0.0819  0.1598 -0.2297
31718W        W47612  10.056  12.780   1.814  0.0273 -0.1486 -0.2057
31719W        W47613  13.483  12.556  13.874  0.0198 -0.1678 -0.1645
31720W        W47614   6.198   8.450  12.379  0.0965  0.1351  0.0776
31721W        W47615  12.996   7.275   3.152  0.2954  0.0157 -0.1859
31722W        W47616  14.173   8.332  14.539 -0.0876 -0.0213 -0.1797
31723W        W47617   1.012  17.260   2.410 -0.3047  0.2202  0.1875
31724W        W47618   4.422   7.984  11.944 -0.1597 -0.2115  0.0432
31725W        W47619  12.059   7.428  14.147 -0.1888  0.0934  0.1751
31726W        W47620   4.661   4.065  12.649  0.1970 -0.0408 -0.0009
31727W        W47621   6.112   3.543   1.498 -0.2555  0.6428  0.1308
31728W        W47622  16.818   1.006  16.614 -0.0215  0.1286 -0.2256
31729W        W47623  17.009   5.785  16.416  0.1006 -0.4541 -0.1977
31730W        W47624   7.025   1.437   3.928  0.1410 -0.0857 -0.1657
31731W        W47625  11.846   3.260  14.137  0.1256  0.1174 -0.1866
31732W        W47626  12.319  17.483  16.304  0.1332 -0.0393  0.1416
31733W        W47627  11.344   4.109   2.819 -0.0986 -0.2232  0.2862
31734W        W47628  10.770  14.619  13.589  0.3628 -0.2997  0.1006
31735W        W47629   5.576  16.624  12.697 -0.0483 -0.1209 -0.3517
31736W        W47630  12.316  17.127   0.295 -0.0796  0.2318  0.3987
31737W        W47631   8.227   0.928   0.942  0.3623 -0.1568  0.2102
31738W        W47632  11.877  15.136  16.756 -0.1365 -0.1646  0.0253
31739W        W47633   9.469   1.646   0.891  0.2299 -0.1309 -0.0586
31740W        W47634  14.906   5.682  14.716  0.1423  0.1179  0.1711
31741W        W47635   4.029   3.312   1.342 -0.0277  0.2717 -0.0942
31742W        W47636   1.115   1.149   0.214  0.0799 -0.1491 -0.1652
31743W        W47637   0.297   6.014   5.533 -0.0644  0.0116  0.0680
31744W        W47638   0.612  13.542  13.282  0.0854 -0.1154  0.0481
31745W        W47639   4.432   2.930  14.376 -0.0577 -0.0018 -0.0531
31746W        W47640   2.096   7.854   0.055  0.0169  0.0507 -0.2191
31747W        W47641  12.247  13.023  12.552  0.0357 -0.0100 -0.1878
31748W        W47642   1.793   1.746   1.442  0.1141 -0.2954 -0.0357
31749W        W47643   6.530   7.527  16.417 -0.5043  0.1392 -0.0421
31750W        W47644  11.942  14.220   4.768 -0.1800 -0.2690  0.4964
31751W        W47645   5.584  13.722   5.767  0.1448 -0.1905  0.2501
31752W        W47646  15.864   7.339  11.940 -0.1949  0.2096 -0.3177
31753W        W47647   2.722  17.130  11.740  0.1401 -0.2121 -0.2357
31754W        W47648  13.767  13.816  12.407 -0.0576 -0.1662  0.0838
31755W        W47649  12.802  15.684   5.509 -0.1551 -0.0185 -0.0884
31756W        W47650  14.142  12.597   0.672 -0.0491 -0.1577 -0.1861
31757W        W47651  13.896  14.610  13.459  0.1315  0.0175  0.0339
31758W        W47652   6.374  12.725   0.261 -0.1151  0.0670  0.1519
31759W        W47653   3.845  13.716  16.844  0.2828 -0.0318  0.2618
31760W        W47654  16.813   8.212   2.667 -0.0475 -0.1176  0.1743
31761W        W47655  13.615  11.602  12.174  0.1297  0.2072 -0.2135
31762W        W47656   8.262  12.592   1.644 -0.0098  0.0080 -0.0057
31763W        W47657   0.123  11.703   4.608 -0.0982  0.1282  0.0151
31764W        W47658   7.373  16.670  12.615  0.0681 -0.1722 -0.0217
31765W        W47659   8.729  15.187   2.409  0.0432  0.0177  0.1262
31766W        W47660   7.798  10.652  13.891 -0.0388  0.2064  0.0513
31767W        W47661  11.631  15.752  14.209  0.0048  0.2598 -0.0264
31768W        W47662  10.776  16.979  12.629 -0.0888 -0.2084 -0.1113
31769W        W47663  15.719   5.981   3.207 -0.0339  0.2960  0.0816
31770W        W47664  12.265   8.253   5.064 -0.3499 -0.1330  0.1317
31771W        W47665   0.768   8.859  14.371  0.1117  0.3154 -0.0795
31772W        W47666   7.213  17.428  14.937 -0.1174 -0.3666  0.0394
31773W        W47667  13.810  12.113  13.900 -0.1139  0.1434  0.1065
31774W        W47668  14.631   9.898   3.191 -0.1127 -0.0322 -0.0442
31775W        W47669   8.981  13.260   0.098  0.2664 -0.2742 -0.1025
31776W        W47670   0.199  10.969  16.750  0.5064 -0.1161 -0.0648
31777W        W47671   0.888   6.553  12.590  0.1031  0.1532  0.0545
31778W        W47672   9.506  14.379  14.874 -0.0105  0.0264  0.2482
31779W        W47673   6.160   6.672   0.164 -0.0753 -0.1746 -0.2942
31780W        W47674   1.968   2.289  15.871  0.0763  0.1779  0.2932
31781W        W47675  11.108  14.883  11.644 -0.1266  0.0235  0.1397
31782W        W47676   6.555   4.483  12.181 -0.1411  0.0664 -0.0053
31783W        W47677  13.746  12.868   0.867  0.0303  0.0264  0.0617
31784W        W47678  10.355   2.269  13.203 -0.1661 -0.2917 -0.0055
31785W        W47679   6.569   1.422   3.713 -0.6066  0.0114 -0.3104
31786W        W47680  14.268   2.252  16.832 -0.0448 -0.0310  0.0991
31787W        W47681  14.136   1.643  14.691 -0.3094 -0.2333  0.3523
31788W        W47682   0.585  17.377  16.890  0.1598  0.0451  0.2123
31789W        W47683   4.525  12.824   4.119 -0.2770  0.2039  0.0551
31790W        W47684   2.370  14.038   5.851  0.1214 -0.1376  0.4329
31791W        W47685   3.587   9.591  15.069  0.2807  0.3510 -0.0384
31792W        W47686  17.421   7.185  11.585 -0.1433  0.1207  0.3001
31793W        W47687   9.769  17.520   0.333  0.4332 -0.1740 -0.0613
31794W        W47688  15.192   8.154  13.587 -0.0732 -0.1085 -0.1166
31795W        W47689  15.723  12.560   4.893 -0.1945 -0.1654  0.1743
31796W        W47690   0.539   1.653   3.886  0.1148 -0.1955  0.1539
31797W        W47691   8.576   5.018   4.345  0.0442 -0.2377  0.1482
31798W        W47692  10.357  13.798   5.160  0.1806 -0.2294  0.0765
31799W        W47693  14.897  15.247   4.552  0.1405  0.1932 -0.0608
31800W        W47694  15.105   8.233   1.265 -0.1100  0.1891 -0.1102
31801W        W47695  16.880   1.029  10.223  0.1378 -0.1004  0.0966
31802W        W47696  12.222  11.467   3.868 -0.1361  0.0091 -0.0404
31803W        W47697  17.643   0.063   4.936 -0.3850 -0.0459  0.1590
31804W        W47698   7.175  13.732  14.518  0.0611  0.1720 -0.1103
31805W        W47699   9.332   9.258  12.668  0.0618 -0.0398  0.1904
31806W        W47700  16.282  16.795  14.359  0.3781 -0.1857  0.0835
31807W        W47701  13.559  15.653   4.500  0.2208  0.3339  0.3494
31808W        W47702   3.023   4.864  13.244  0.3110 -0.1611  0.0912
31809W        W47703   8.807  14.741  14.643 -0.2005 -0.2786 -0.0875
31810W        W47704  11.310   3.591   3.118 -0.0518 -0.0133 -0.1204
31811W        W47705   9.650  16.954   5.582  0.1293  0.5306 -0.2078
31812W        W47706   9.201   2.622  12.777 -0.0352 -0.1830 -0.0950
31813W        W47707   0.786  11.841   5.576 -0.0828 -0.0486  0.1148
31814W        W47708  17.047   8.421   3.119 -0.0199  0.0871 -0.1009
31815W        W47709  15.858   7.806   0.517  0.1217 -0.0871 -0.2456
31816W        W47710   6.130  11.715   4.827 -0.1001  0.0899  0.0033
31817W        W47711   7.694  13.331   1.411 -0.2048  0.3767  0.0699
31818W        W47712   7.361   9.246  12.864  0.0248  0.1163 -0.3609
31819W        W47713   9.109  13.196   3.444 -0.0022 -0.1455  0.2598
31820W        W47714   3.073  16.923  11.524  0.1574  0.0437  0.1295
31821W        W47715   4.118   0.583  13.072 -0.0801 -0.1903  0.2014
31822W        W47716  16.550   8.013  13.651 -0.1001 -0.1499  0.0327
31823W        W47717   7.288  10.941  14.178 -0.1780 -0.0079  0.1376
31824W        W47718   8.895   3.150   4.961 -0.0454  0.0249  0.4106
31825W        W47719  10.825   9.580  12.366 -0.0522  0.1237  0.4951
31826W        W47720   6.661  17.044   4.089  0.4347  0.3384  0.1784
31827W        W47721   2.110   0.843   5.482  0.2955  0.0876  0.0401
31828W        W47722  10.059  16.882   4.892 -0.1090 -0.0502 -0.3019
31829W        W47723  15.603   4.441  12.243 -0.0793 -0.0173 -0.2460
31830W        W47724  10.948   9.166   4.432 -0.2388 -0.0061 -0.2861
31831W        W47725   0.092   7.601  13.733  0.0519 -0.3060  0.0371
31832W        W47726   7.249   9.313  14.012 -0.3612  0.1391  0.0065
31833W        W47727  17.381  17.579   0.577 -0.1396  0.0819 -0.0462
31834W        W47728   0.569   9.787  10.682  0.1508  0.2207 -0.2373
31835W        W47729   4.936   4.531   3.494 -0.0551 -0.1310  0.3480
31836W        W47730   9.168  12.051  14.689  0.2595 -0.0857  0.0328
31837W        W47731   0.617   8.788   3.711  0.3013  0.1484 -0.0157
31838W        W47732   7.327  14.844  12.209 -0.0586  0.0690 -0.3903
31839W        W47733  13.437  14.467   0.434 -0.0294 -0.0176  0.2345
31840W        W47734   6.937  13.596  11.606 -0.0888  0.1616  0.0430
31841W        W47735   0.883  13.426  12.240 -0.2827 -0.2700 -0.0098
31842W        W47736  12.745   4.891  15.871  0.1368  0.0491  0.2742
31843W        W47737   2.224  14.700  13.197 -0.1343 -0.0235  0.5792
31844W        W47738   1.960   0.477  12.294  0.1422  0.1279 -0.1116
31845W        W47739  16.709   7.617  16.873  0.1719  0.1429 -0.1529
31846W        W47740  15.574  10.102  14.898 -0.0592  0.0469  0.2436
31847W        W47741   5.156   2.925  11.177  0.1291  0.2368  0.1126
31848W        W47742   0.548  16.220  12.252 -0.2257  0.1972  0.3753
31849W        W47743   4.424  12.462   1.931  0.1120 -0.1856 -0.2797
31850W        W47744   3.267  17.471   3.498 -0.2476 -0.0729 -0.2014
31851W        W47745   9.683   0.239  12.145 -0.0542 -0.3712 -0.1264
31852W        W47746   4.713   3.727   5.454  0.2063 -0.0735 -0.5608
31853W        W47747  13.371  10.815  14.387 -0.0505  0.1309 -0.0567
31854W        W47748  14.709   6.035  12.105 -0.2569  0.0683  0.0787
31855W        W47749  12.351   6.205   0.788 -0.2036 -0.1270 -0.0082
31856W        W47750   0.001  12.867   3.303  0.0425 -0.1340  0.0403
31857W        W47751  15.108  13.203  14.543 -0.0062  0.0877  0.2460
31858W        W47752  16.686  15.514  16.785 -0.0720 -0.0345 -0.0305
31859W        W47753   1.022   8.811   2.383 -0.0852  0.2428 -0.0239
31860W        W47754   7.035   3.197  14.296 -0.0563 -0.0970 -0.0684
31861W        W47755   2.525  17.208  16.167  0.0094 -0.3024  0.1061
31862W        W47756   5.285   4.888   2.266  0.1487 -0.2612  0.1803
31863W        W47757   0.714  12.320   3.231 -0.2218 -0.2743 -0.4344
31864W        W47758   8.050   3.833  13.690  0.1388  0.0746 -0.2412
31865W        W47759   7.165  13.559   0.641  0.0605 -0.2090  0.0819
31866W        W47760   5.167   5.993  15.564  0.1640 -0.1223  0.0851
31867W        W47761   1.518  10.199  12.826 -0.3501  0.1947  0.1346
31868W        W47762   4.617   7.553  14.556  0.2290 -0.0950 -0.2365
31869W        W47763  11.397   5.507  13.588  0.0072 -0.0097  0.1031
31870W        W47764   0.942   6.900  13.372 -0.0191  0.0878 -0.0583
31871W        W47765   3.853  11.854  12.977  0.0566 -0.1093 -0.0067
31872W        W47766   2.754   3.185  11.933  0.0120  0.2350 -0.0401
31873W        W47767   1.472  15.958   2.441  0.0276 -0.0617 -0.4423
31874W        W47768  12.542  16.337   2.818  0.1423 -0.1197 -0.0410
31875W        W47769   6.731  13.877   3.824  0.0088  0.0482  0.1142
31876W        W47770   3.521   4.553   4.765  0.0054  0.1031 -0.0531
31877W        W47771  11.727  12.939   5.406  0.0537  0.0602 -0.3185
31878W        W47772   6.506  10.819   0.301 -0.2631 -0.0356  0.0455
31879W        W47773   2.764  17.132   4.734  0.0719  0.1972 -0.0214
31880W        W47774   0.405   9.368   1.424  0.2858 -0.0463 -0.0902
31881W        W47775  12.232  11.787   5.267 -0.3444 -0.2894 -0.0599
31882W        W47776  12.021   5.729   0.572  0.1122  0.0615  0.1651
31883W        W47777   7.936   0.996   0.367 -0.0942  0.1770 -0.1131
31884W        W47778   5.603  11.765   1.225 -0.0990  0.0514 -0.1829
31885W        W47779   2.802   9.350   3.158 -0.0202  0.0494  0.0318
31886W        W47780  14.418   2.417  10.333  0.0102 -0.1080  0.2137
31887W        W47781   5.241   0.384   2.216  0.0606  0.1122  0.2400
31888W        W47782  14.036   0.809   2.750  0.2322  0.0508  0.0343
31889W        W47783   8.877   7.997  16.370 -0.0229 -0.1603 -0.2288
31890W        W47784   8.796  14.701  12.612 -0.2210  0.2034 -0.1284
31891W        W47785   9.862  11.092   0.103  0.3207 -0.1728 -0.1589
31892W        W47786  10.139  17.777   5.848 -0.1481 -0.0977  0.0543
31893W        W47787  12.219  16.558  16.136  0.0921  0.4096  0.2302
31894W        W47788  14.480   9.083  12.760 -0.1904  0.1169  0.0581
31895W        W47789   5.769  15.150   4.778 -0.0207  0.0551 -0.0731
31896W        W47790  14.480   2.751   5.421  0.0823  0.1056 -0.0730
31897W        W47791  16.067  12.424   1.020  0.1528 -0.0676  0.2345
31898W        W47792   4.171   5.375   5.051 -0.0405  0.5822  0.0924
31899W        W47793  15.659   0.140  13.073 -0.4734 -0.0392  0.0221
31900W        W47794   8.243  10.274  12.349 -0.0437  0.0364  0.0246
31901W        W47795   2.394  14.350   3.316 -0.2743 -0.1661  0.2606
31902W        W47796  16.352   2.496  12.968 -0.2826 -0.0779 -0.0221
31903W        W47797  11.855  15.752   5.290 -0.3620 -0.2285  0.3142
31904W        W47798  11.750   1.638   4.572  0.2381  0.0368 -0.1341
31905W        W47799  12.952   0.039   0.045  0.0905  0.0072  0.6132
31906W        W47800   3.227  17.811   5.643  0.0783 -0.0425  0.1531
31907W        W47801  12.910  17.186  14.592 -0.1375 -0.0388  0.3753
31908W        W47802   7.847   4.579   6.094  0.0334 -0.0341 -0.0587
31909W        W47803   2.071   2.638  12.176 -0.1908  0.2225  0.3363
31910W        W47804   6.002  12.809  12.652 -0.2589 -0.1587  0.1547
31911W        W47805  16.438  17.775   4.861  0.0696 -0.0750  0.4778
31912W        W47806  13.391   7.738  11.761  0.0016  0.1267 -0.2294
31913W        W47807   6.212   5.783   3.020  0.0009  0.1979 -0.1360
31914W        W47808   8.441   6.102  15.760 -0.1175 -0.0291  0.1504
31915W        W47809   0.538  15.042   4.286  0.1172 -0.0420  0.1271
31916W        W47810  13.270   9.780   1.212  0.1910 -0.1543  0.1533
31917W        W47811   6.022  15.182  14.565 -0.4347 -0.1415 -0.0104
31918W        W47812   1.735  14.728  13.051  0.2749  0.1777  0.3086
31919W        W47813  13.903   5.851  12.756  0.2042 -0.0632 -0.0498
31920W        W47814   5.632   8.480   0.742 -0.0589  0.0234 -0.0606
31921W        W47815  14.274   1.099  12.057  0.0893 -0.1871 -0.1324
31922W        W47816   4.807   1.999  11.365 -0.0099 -0.3076 -0.1503
31923W        W47817  12.876  17.568  15.370 -0.3127 -0.4674  0.1131
31924W        W47818   7.202   1.940  12.409 -0.0085  0.0893 -0.0841
31925W        W47819  11.362   1.349  12.628 -0.2590 -0.0608  0.2320
31926W        W47820   8.463  15.224  11.656  0.0315 -0.1381 -0.0768
31927W        W47821  12.567   6.406   3.437  0.1663  0.0707  0.3669
31928W        W47822  15.958   3.802  13.348 -0.3365  0.0426 -0.0469
31929W        W47823   0.794  12.658   5.273  0.1162  0.1722 -0.2356
31930W        W47824  17.651  17.223   4.073 -0.0389 -0.2091  0.0738
31931W        W47825  13.249  16.347  15.848 -0.0646  0.1035 -0.3051
31932W        W47826  16.730   4.626  13.256  0.1246 -0.2012 -0.2868
31933W        W47827  10.744   4.877  12.828  0.0034 -0.0108 -0.1191
31934W        W47828   1.947   5.218   0.278  0.2634 -0.0355  0.1158
31935W        W47829   4.243  15.028   5.308 -0.1221 -0.2113 -0.0043
31936W        W47830   1.132   7.689  16.293 -0.1223  0.1067 -0.1964
31937W        W47831  12.078  10.232   2.354 -0.2152 -0.1774  0.1446
31938W        W47832   2.147  12.435  13.104 -0.0014  0.0046 -0.0473
31939W        W47833   5.475  10.773  14.662  0.4211  0.0838 -0.2261
31940W        W47834  15.001   4.633  13.803 -0.0505 -0.0633 -0.3142
31941W        W47835  11.912   8.581  15.149 -0.0647  0.0174 -0.1217
31942W        W47836  17.284  17.676   2.450  0.3275 -0.0540 -0.2292
31943W        W47837   6.159   5.657   4.883  0.1238 -0.3568  0.1043
31944W        W47838   3.910  16.868  15.160 -0.1411  0.5495 -0.1713
31945W        W47839   0.643   8.747  12.696 -0.2068  0.2499  0.0969
31946W        W47840   4.386   8.001  14.395 -0.1254  0.0685  0.1247
31947W        W47841   1.980   6.937  12.194  0.1802  0.4128  0.0652
31948W        W47842   4.859  17.554  15.069 -0.0673  0.0912  0.0338
31949W        W47843   1.532   3.919   1.391 -0.2224 -0.0538  0.2881
31950W        W47844   4.454   0.134  14.021  0.0764  0.1491 -0.1622
31951W        W47845  13.256   1.796  10.742 -0.0798  0.2436  0.0944
31952W        W47846  16.690   7.255   2.906  0.1999 -0.2874  0.1711
31953W        W47847   1.561  13.062   6.278 -0.1426 -0.0776 -0.1166
31954W        W47848   1.022   7.504  12.806 -0.0835 -0.0527 -0.2114
31955W        W47849   5.270  12.565  12.197  0.2973 -0.3727 -0.1289
31956W        W47850   2.728  14.378  15.377 -0.0431  0.1154  0.4061
31957W        W47851   9.469  13.864   6.322  0.3209 -0.2988 -0.1518
31958W        W47852  14.655  13.096  16.653 -0.0753  0.0666 -0.0764
31959W        W47853  15.895   3.293  13.627 -0.3123 -0.1109 -0.1694
31960W        W47854  14.890   1.210   1.104  0.0845 -0.3376 -0.1398
31961W        W47855  16.726   1.257  12.122  0.1155 -0.1010  0.2183
31962W        W47856  11.327   8.846   2.028 -0.0482  0.0250  0.0411
31963W        W47857   9.237   9.365  15.190 -0.1354 -0.0978 -0.0738
31964W        W47858   1.062  11.784  16.733 -0.0018  0.3071 -0.1587
31965W        W47859  14.205   2.329  15.874 -0.0901 -0.0429  0.0333
31966W        W47860  13.042   9.600   5.656 -0.2008  0.0676 -0.1018
31967W        W47861   7.772   1.158   3.483 -0.0641 -0.0834 -0.2750
31968W        W47862   8.567   2.271   0.574 -0.1105 -0.0685 -0.3176
31969W        W47863  14.635  14.175  13.508  0.2636  0.1196  0.0672
31970W        W47864   7.342  14.514   4.402 -0.0191 -0.2494 -0.1108
31971W        W47865   2.289   7.182   0.805  0.0075  0.1232  0.0129
31972W        W47866  17.110   7.739  11.594  0.0076  0.1227  0.2583
31973W        W47867  16.518   1.868   5.232 -0.2391  0.2534  0.5006
31974W        W47868   6.968   1.135  13.311  0.0842 -0.4934  0.2839
31975W        W47869  10.056  14.892   0.492 -0.1168  0.1047  0.2209
31976W        W47870   7.456  12.224  14.959 -0.0874  0.0915  0.0764
31977W        W47871  14.463   5.692  14.185  0.2704 -0.0825  0.0842
31978W        W47872   2.715  14.754  11.854  0.0193  0.1653  0.1813
31979W        W47873  17.368  17.502   5.831 -0.2143 -0.1295 -0.2138
31980W        W47874   4.962   5.464   1.105 -0.0046 -0.0402  0.2912
31981W        W47875   8.726   1.883   1.801 -0.2127 -0.2085 -0.0740
31982W        W47876  10.907   2.254   5.665 -0.0170  0.0770  0.0434
31983W        W47877  13.872  15.814   2.011 -0.0893  0.1301 -0.0105
31984W        W47878   3.800  15.441  14.023 -0.0522  0.1932  0.3418
31985W        W47879  10.147   2.445   1.085 -0.0217  0.0982  0.1140
31986W        W47880  15.003   9.396  15.789  0.2621 -0.0752  0.0921
31987W        W47881   1.680   0.894  11.998 -0.5294 -0.2072  0.0987
31988W        W47882   9.629   1.233   0.183  0.1314 -0.0476  0.0857
31989W        W47883   4.415  17.671  13.271  0.0618 -0.0152  0.0015
31990W        W47884  13.412   3.921  13.201 -0.0091 -0.1290 -0.0785
31991W        W47885  15.853  14.933  13.738  0.1874 -0.0004 -0.1350
31992W        W47886  16.438   2.148   4.649 -0.0101 -0.0422 -0.0027
31993W        W47887   0.353   8.240  11.934 -0.1255 -0.2166  0.3448
31994W        W47888   1.107  14.373  14.041 -0.1783 -0.3162 -0.1989
31995W        W47889   5.997  11.562   4.371  0.0081 -0.2750 -0.1066
31996W        W47890   2.351   8.882  13.561 -0.2440  0.0389 -0.2325
31997W        W47891  17.460   6.836   0.268 -0.0616 -0.0574 -0.2334
31998W        W47892  14.958  17.626   3.031 -0.2021 -0.0695  0.0151
31999W        W47893  14.915  13.010   5.298  0.1683 -0.0405 -0.1091
32000W        W47894   4.843  12.688   2.645  0.1503 -0.0650  0.0914
32001W        W47895   5.480   7.194   4.341 -0.0936  0.1680 -0.3317
32002W        W47896  14.594   6.070  15.276  0.3190  0.1722  0.0050
32003W        W47897   1.656  17.335   5.469 -0.1962  0.2140  0.2299
32004W        W47898  13.467  12.376   3.022 -0.0974  0.0056  0.1359
32005W        W47899   3.465   6.681   1.269 -0.1160 -0.0164 -0.2513
32006W        W47900  14.776   2.161  13.609 -0.0833  0.1083 -0.1562
32007W        W47901  16.646   0.203   5.356  0.0312  0.0987 -0.1116
32008W        W47902   9.634  15.654  11.850  0.1005  0.0949 -0.1301
32009W        W47903  17.804   0.296  16.190  0.1726 -0.3989 -0.1872
32010W        W47904  16.579   2.044  16.557  0.0687  0.1536 -0.0775
32011W        W47905   5.660   3.249   3.133  0.1018  0.0502  0.1287
32012W        W47906   4.613   0.027   1.344 -0.0459 -0.2595  0.1733
32013W        W47907   2.645   3.710  13.386 -0.1667  0.1412 -0.1393
32014W        W47908   5.532   3.659  15.593  0.0647  0.0219  0.1423
32015W        W47909  14.134   1.898  13.134  0.3171  0.3813 -0.2430
32016W        W47910   6.091  12.808   4.669 -0.1878 -0.4010 -0.2118
32017W        W47911  10.203  14.893  16.483  0.2802 -0.1148 -0.2388
32018W        W47912  14.134  17.828  13.561  0.0145 -0.1435  0.0898
32019W        W47913   6.560   7.611  15.131  0.2774  0.3687  0.2278
32020W        W47914   5.420  15.522   3.989 -0.1927 -0.2408 -0.2405
32021W        W47915   0.947   1.345   1.876  0.1047 -0.0628 -0.1089
32022W        W47916  14.810   7.623  16.690 -0.1724  0.0225  0.0293
32023W        W47917   6.224   7.249   4.130  0.0024  0.0918 -0.1062
32024W        W47918   8.029   6.950  11.389  0.0597  0.2106  0.0694
32025W        W47919  17.821   2.019  16.411  0.1791  0.0963  0.2822
32026W        W47920   8.252  12.073   3.467 -0.2306 -0.1452  0.1100
32027W        W47921  13.504  17.833  11.031  0.0151  0.2359 -0.1975
32028W        W47922   3.898   8.323   4.615 -0.3433  0.0717 -0.1840
32029W        W47923  14.824   1.442   5.116 -0.2424 -0.1861  0.2100
32030W        W47924  11.318  15.185   2.896  0.0115 -0.0079  0.1650
32031W        W47925   7.538   2.037   5.700 -0.2226 -0.0584  0.0194
32032W        W47926   4.984   1.336   1.041 -0.1479 -0.2449 -0.0140
32033W        W47927   7.742   9.877   5.743  0.1734 -0.1877  0.1308
32034W        W47928   0.199   1.574  11.354  0.2393  0.2785  0.3832
32035W        W47929  16.053  13.220   1.009  0.1597 -0.0282  0.1806
32036W        W47930  11.290  10.217  14.773 -0.0726  0.1759  0.4108
32037W        W47931  15.158   8.957   0.406  0.0641  0.1585  0.0108
32038W        W47932  10.567   5.134   1.587 -0.0183 -0.2771 -0.4909
32039W        W47933  10.775   5.365  12.729 -0.4202 -0.3410  0.1282
32040W        W47934  12.460   3.550   4.363  0.1039  0.1417  0.1728
32041W        W47935   1.272   8.134   4.102  0.3050  0.1720 -0.2156
32042W        W47936   9.201   0.664  14.123  0.1568  0.0259 -0.1740
32043W        W47937   0.452  15.698  12.367  0.0724 -0.1223  0.2170
32044W        W47938   0.163   3.964  14.226  0.1806 -0.1226  0.1823
32045W        W47939   8.495   8.651   6.172 -0.1789  0.1638 -0.1399
32046W        W47940   0.505   8.294   3.554  0.0643 -0.0320 -0.2046
32047W        W47941  10.434  17.841  11.963  0.2101  0.2273 -0.0945
32048W        W47942  16.169  10.384   0.349 -0.2863 -0.0745 -0.1073
32049W        W47943   2.530  11.393   3.400  0.2351 -0.0154  0.2018
32050W        W47944  17.548   2.832  15.223  0.0526  0.0974  0.2257
32051W        W47945   1.153   7.660   1.899  0.1486  0.1603  0.0418
32052W        W47946  10.983   3.653   5.330 -0.1362  0.1050 -0.1206
32053W        W47947  11.630  13.910  14.972  0.2715  0.0077 -0.1520
32054W        W47948   6.946  16.267  16.246  0.0208 -0.1069  0.1247
32055W        W47949   4.997  13.009  14.892 -0.0256  0.1318  0.1287
32056W        W47950   2.181   1.309   1.221  0.1626  0.0400  0.5345
32057W        W47951   6.006   8.602   5.213  0.1289  0.1139 -0.0605
32058W        W47952  16.002  17.009   3.614 -0.2865 -0.0740 -0.1457
32059W        W47953   8.295  10.917  16.022 -0.1419 -0.0518 -0.1979
32060W        W47954  12.527  17.151  12.489  0.2094 -0.1547  0.1117
32061W        W47955   8.669  12.354   1.383 -0.2816  0.2118 -0.1099
32062W        W47956   1.780   5.387   1.606 -0.3813 -0.3364  0.2513
32063W        W47957   9.313   3.170   5.222  0.1474  0.0853  0.1386
32064W        W47958  14.578   1.664   0.088  0.1985  0.3065 -0.0433
32065W        W47959   3.916  14.315   3.816  0.2352  0.0031  0.0360
32066W        W47960  11.163   5.789   2.488 -0.1487 -0.1764  0.0186
32067W        W47961  16.370   7.828  14.963 -0.1509 -0.1282  0.0544
32068W        W47962  14.284   4.590   2.284  0.0705  0.2361 -0.0417
32069W        W47963   7.310   7.026   1.607 -0.1969 -0.2807 -0.0781
32070W        W47964   9.021   7.574   5.348 -0.2483  0.0655 -0.2208
32071W        W47965   2.431  15.709  15.698  0.0263 -0.2466 -0.5742
32072W        W47966  12.505   7.001   1.646  0.2499 -0.3361 -0.1022
32073W        W47967   9.080  11.641   3.449 -0.0043  0.0363 -0.3876
32074W        W47968   3.707   5.433  16.037  0.0995 -0.1691 -0.2619
32075W        W47969   6.968  13.484   0.171  0.1120  0.0158 -0.1423
32076W        W47970  15.219  15.822   1.743 -0.0126 -0.0417  0.1757
32077W        W47971  15.734  15.669  16.864 -0.1273 -0.2092  0.0710
32078W        W47972   6.381  11.884  14.127 -0.2490  0.2964  0.1092
32079W        W47973   5.193  16.020  14.385  0.0788  0.1636  0.1628
32080W        W47974  11.856   2.374  10.672 -0.1745 -0.0641  0.4004
32081W        W47975   3.946   1.016  13.267 -0.0549 -0.2710  0.1741
32082W        W47976   8.153   4.341   4.094 -0.2198  0.0008 -0.0534
32083W        W47977  12.168   1.027  13.614  0.1611  0.0072  0.1569
32084W        W47978  11.130   1.781  13.165 -0.0180 -0.2724  0.0216
32085W        W47979  12.692  14.184   3.272  0.0926 -0.1381  0.1125
32086W        W47980  10.340   8.401  13.868 -0.0330  0.1215 -0.0584
32087W        W47981   0.770   4.114   3.297  0.4680 -0.0014  0.3755
32088W        W47982  10.108  13.982  16.610  0.1531  0.1880  0.0162
32089W        W47983   5.047   8.961  16.742 -0.2234  0.2386 -0.1287
32090W        W47984  13.714   9.413   3.166  0.2505  0.1866 -0.2534
32091W        W47985   1.351  15.529   2.990 -0.0483 -0.2850  0.0644
32092W        W47986   0.803   3.804   2.936 -0.1076  0.1895  0.0436
32093W        W47987  10.036  12.933   4.633  0.0728  0.2729  0.0129
32094W        W47988  15.658  13.097   4.819  0.3389 -0.3319 -0.0321
32095W        W47989   8.916  17.152  14.815  0.2295 -0.0356  0.0143
32096W        W47990   3.174   0.218  16.407  0.1110  0.1302  0.3214
32097W        W47991  12.853   0.421   5.956  0.3508 -0.1147  0.0039
32098W        W47992  12.514   7.325   4.835  0.1311 -0.2052 -0.2126
32099W        W47993  10.897   1.073  11.949 -0.0439  0.2941 -0.0932
32100W        W47994   8.371   3.245  14.374  0.0396  0.1072 -0.1375
32101W        W47995   7.143  16.081   1.322 -0.0604  0.5390 -0.3670
32102W        W47996  17.809  13.112   2.043 -0.0340  0.1581 -0.4562
32103W        W47997  16.599   6.359   2.201 -0.0688  0.2769 -0.3137
32104W        W47998  11.794   0.964  12.450 -0.0564  0.1281 -0.1829
32105W        W47999  16.863   4.546   3.815  0.2926  0.0305  0.0049
32106W        W48000   6.546   0.889  16.084 -0.0758  0.3181  0.0692
32107W        W48001   4.715   5.681  16.728 -0.2866  0.0615  0.2118
32108W        W48002   2.187  16.374   4.890 -0.0429 -0.0573 -0.0648
32109W        W48003  10.107   3.678   5.769 -0.0503 -0.4376 -0.0718
32110W        W48004   6.275   2.287   5.353 -0.2594  0.0035 -0.0559
32111W        W48005   1.968   4.927  16.649  0.3184 -0.1002  0.3395
32112W        W48006   0.009   0.862  12.509 -0.1606 -0.3039 -0.0757
32113W        W48007  15.570   1.985   4.972  0.0034 -0.0607  0.3018
32114W        W48008  12.506  13.068  15.424  0.0707  0.0174 -0.0189
32115W        W48009   1.041   5.909   2.281  0.2754  0.3734 -0.0192
32116W        W48010  11.190  11.127   3.579  0.2241 -0.3902  0.2125
32117W        W48011   6.361  14.129   1.279  0.0160 -0.0928 -0.3372
32118W        W48012  17.764  16.645   5.359  0.1184  0.0623  0.0822
32119W        W48013   4.235  16.454  11.931  0.0328  0.4056  0.0080
32120W        W48014   4.097  11.563  11.652 -0.0743  0.3747  0.1433
32121W        W48015   0.622  14.221   2.871 -0.1793 -0.0370  0.0283
32122W        W48016  11.739  15.632   4.790 -0.1513  0.3133  0.0212
32123W        W48017  15.594   8.201  15.694  0.1922  0.1559  0.2035
32124W        W48018   5.180   9.789  12.757  0.2143 -0.3209 -0.0626
32125W        W48019   1.731   3.491  16.307  0.2436 -0.0332  0.0348
32126W        W48020  13.334   4.938  12.352  0.1380 -0.2805  0.2070
32127W        W48021  11.800  14.072   0.851 -0.0938  0.2044 -0.0878
32128W        W48022   8.625  13.162   1.102  0.2488  0.1885  0.0429
32129W        W48023   4.033   1.114   3.284 -0.0547  0.1167 -0.1260
32130W        W48024   9.239   0.850   1.480 -0.1465  0.0635 -0.1169
32131W        W48025  15.323   2.933   1.786  0.1730  0.3352 -0.2227
32132W        W48026   9.694  14.332  12.979 -0.1991 -0.1888 -0.1764
32133W        W48027   5.071  15.988  12.316  0.3467 -0.1939 -0.0378
32134W        W48028  16.947   2.438   2.564  0.2700 -0.3521 -0.0865
32135W        W48029   0.261   5.131  11.574 -0.0083  0.0233  0.2525
32136W        W48030  15.089   4.045   0.281 -0.1063  0.1474  0.1994
32137W        W48031   1.635   2.586  11.231  0.0738 -0.1628  0.0220
32138W        W48032   4.110  12.891  12.594 -0.0956 -0.2193 -0.1949
32139W        W48033   1.860   1.517   4.616 -0.0547  0.2790 -0.2515
32140W        W48034   4.936  15.244   1.574 -0.2987  0.1853 -0.1624
32141W        W48035   4.543   5.453   3.123 -0.2221 -0.1082 -0.1662
32142W        W48036   2.069  11.608  16.266 -0.1678 -0.2056 -0.0246
32143W        W48037  12.632   1.206  13.560 -0.0251 -0.1049 -0.0936
32144W        W48038   1.307   3.042   3.548 -0.0866 -0.2339  0.1302
32145W        W48039  17.635   2.045   5.999 -0.0280 -0.1579  0.3629
32146W        W48040  12.107   3.853  12.458  0.2849 -0.0093  0.2340
32147W        W48041   8.808  10.822   0.566 -0.0171  0.0321  0.1275
32148W        W48042  10.653  11.840   0.079 -0.0683 -0.0166  0.1474
32149W        W48043   3.800  15.290  12.004 -0.1244 -0.0175 -0.1482
32150W        W48044   4.939  10.702  16.704  0.0877 -0.0892  0.0463
32151W        W48045   2.393  10.341  15.327 -0.0064 -0.2187  0.0350
32152W        W48046   1.069   1.712   3.768  0.1927  0.1866 -0.2120
32153W        W48047   8.229   6.052   2.320 -0.0898  0.0618  0.2488
32154W        W48048   5.306   2.602   5.018  0.1642 -0.3365  0.2974
32155W        W48049   6.942  10.186  13.993 -0.2157 -0.0691  0.2485
32156W        W48050  14.355   6.990   5.286  0.0220 -0.2198  0.0718
32157W        W48051   9.743   2.736  11.911  0.1451 -0.2944 -0.0218
32158W        W48052  11.631  12.445  11.608  0.4664  0.4352  0.1668
32159W        W48053   8.470  17.819   3.817  0.0545  0.4120 -0.1222
32160W        W48054   3.340   5.898  14.905  0.2289 -0.0528 -0.1390
32161W        W48055   9.942  16.958  12.203 -0.0323  0.0932 -0.2776
32162W        W48056  14.220   1.588   3.866  0.3097 -0.1573 -0.0851
32163W        W48057   4.637   1.035  16.461 -0.2067 -0.2034  0.0125
32164W        W48058  15.350   3.201  16.688  0.0974  0.2077  0.0875
32165W        W48059  15.270   9.847  14.218  0.0227 -0.0139 -0.3239
32166W        W48060  15.465   5.653  11.085 -0.2150 -0.0220 -0.1023
32167W        W48061  10.918   6.708  14.722 -0.1013  0.3706  0.1598
32168W        W48062   5.423  12.760  13.484 -0.3371  0.0893 -0.0084
32169W        W48063   7.240   6.469   1.499 -0.2437  0.1101  0.0178
32170W        W48064   4.134   0.750  15.582 -0.2963  0.3100 -0.0572
32171W        W48065   8.987  16.615  12.468  0.2283  0.0758  0.0678
32172W        W48066   4.056   4.066   2.235 -0.0283 -0.1463 -0.0997
32173W        W48067  11.569  11.357  14.022  0.0437 -0.0504  0.1089
32174W        W48068   9.699   4.489   0.322  0.0302 -0.2511  0.0720
32175W        W48069   8.880   3.299  13.606  0.0405 -0.0669  0.0090
32176W        W48070  13.380   3.139   1.682  0.2240 -0.0237 -0.2612
32177W        W48071   5.666   7.115  12.094  0.1546  0.1805 -0.1932
32178W        W48072   4.360  16.097   2.794 -0.0042  0.0261  0.2387
32179W        W48073   4.562   6.387  15.136  0.1157  0.0675 -0.0614
32180W        W48074   0.353   6.657  12.657 -0.1644  0.1787  0.1701
32181W        W48075   6.386   1.746  12.325  0.2073 -0.0821  0.1993
32182W        W48076   0.371  10.460  16.682  0.0086  0.1723  0.4185
32183W        W48077  11.606  11.212  16.171  0.1029  0.1526 -0.4088
32184W        W48078   8.555  13.286  15.960  0.2393 -0.1092  0.0698
32185W        W48079   5.727  12.470  13.857 -0.1902  0.0364  0.3004
32186W        W48080   3.309  12.029  14.192  0.2038 -0.3092  0.2000
32187W        W48081   9.651   5.376  15.056 -0.0879 -0.1532  0.4101
32188W        W48082   0.379  17.716  15.964  0.0474  0.1225  0.1602
32189W        W48083   4.670   2.922  11.646  0.0444  0.0790  0.2474
32190W        W48084  15.742   0.293  12.082  0.1393  0.1538 -0.0987
32191W        W48085   4.310   4.773   4.601  0.2447 -0.1282 -0.1142
32192W        W48086   6.330   4.155  15.010 -0.0461  0.2023 -0.1963
32193W        W48087   7.386   4.989  11.849 -0.1100 -0.0763  0.0389
32194W        W48088  16.094   3.409  11.505 -0.0805  0.1118  0.1071
32195W        W48089   5.718  17.768  13.428 -0.1378 -0.1169 -0.0415
32196W        W48090  13.870   5.865  15.923  0.4735  0.0936 -0.3389
32197W        W48091   2.975   0.279  15.916  0.2817  0.0153 -0.0298
32198W        W48092   5.432  15.276  15.865  0.0046 -0.1642 -0.2178
32199W        W48093  13.560   7.352   0.972 -0.2375 -0.0313 -0.2127
32200W        W48094  14.420   7.711  15.221  0.0406  0.2888 -0.0063
32201W        W48095  14.874  11.390  14.608  0.3321 -0.0690  0.1998
32202W        W48096   2.476   6.108   3.254 -0.1227  0.0597  0.0686
32203W        W48097   1.520  11.651   1.602  0.1652  0.1202  0.0192
32204W        W48098   4.463  16.346   3.521  0.1693 -0.1129  0.2153
32205W        W48099   9.877  14.031   3.562  0.1612  0.1973  0.1462
32206W        W48100  11.891   0.345  14.460  0.0028 -0.1194  0.3301
32207W        W48101  11.061   6.243  15.489  0.3945  0.1028  0.2169
32208W        W48102  12.558  12.442   0.215  0.1210 -0.2128 -0.3393
32209W        W48103  14.038   8.549   3.386 -0.0939  0.4154  0.0234
32210W        W48104  12.005   6.586   1.116 -0.3488 -0.2407  0.1308
32211W        W48105  11.839   6.486  14.380  0.1883 -0.2659 -0.0938
32212W        W48106   4.490   6.232   2.497 -0.2559  0.0261  0.0334
32213W        W48107   3.013   0.544   2.413  0.0063  0.0081 -0.3113
32214W        W48108  16.480  13.674  16.684 -0.0250  0.2590 -0.1031
32215W        W48109   6.889  13.019   2.732  0.2054 -0.0459 -0.0975
32216W        W48110  16.499   1.748  15.192 -0.1446  0.1047  0.2040
32217W        W48111   8.536  17.337  14.104 -0.0614 -0.1009  0.0654
32218W        W48112  10.139   4.628   3.072 -0.1713 -0.1153  0.1872
32219W        W48113   0.641  12.546   3.644  0.1310 -0.1890 -0.0098
32220W        W48114   6.603   2.520   0.586  0.3613  0.1718 -0.0738
32221W        W48115  12.213  14.416   2.350  0.0099  0.0041 -0.1149
32222W        W48116  10.280   6.965   4.338 -0.0295  0.2332 -0.0695
32223W        W48117   5.176  15.006   1.069  0.0287  0.0705  0.0770
32224W        W48118  13.615  10.628   3.578  0.2162  0.1755 -0.2891
32225W        W48119  10.471   4.020   0.893 -0.0791  0.0483 -0.3414
32226W        W48120  12.213   6.896   2.113  0.1238  0.0038  0.1927
32227W        W48121  16.808   9.015  15.522  0.1209  0.3086 -0.1865
32228W        W48122   3.866  16.244  16.846 -0.0943  0.0599  0.0261
32229W        W48123  10.396  17.150  13.616 -0.0302 -0.2168 -0.2930
32230W        W48124   1.455   2.685  14.716 -0.1011 -0.1662 -0.0603
32231W        W48125  15.655   5.607   3.589 -0.0694  0.1856  0.1152
32232W        W48126  10.999  13.912  12.947  0.1794  0.3663  0.0449
32233W        W48127  15.847   5.852  14.751  0.2612  0.0621 -0.1078
32234W        W48128   6.684  12.696   5.922  0.0273 -0.1670  0.1880
32235W        W48129  17.763   9.527   2.369 -0.0289  0.0250  0.2015
32236W        W48130   2.395   0.955   0.542  0.0382 -0.1247  0.0888
32237W        W48131   3.557  16.237  16.383 -0.0714 -0.1118  0.0951
32238W        W48132  11.738   6.021  14.785  0.2072 -0.0312  0.0973
32239W        W48133   3.474  16.006   4.868  0.1293 -0.0363  0.1099
32240W        W48134  16.362   3.975   1.069  0.0148  0.0455  0.1171
32241W        W48135  10.207   5.187  16.506  0.1197  0.2919 -0.3029
32242W        W48136   9.716   2.382  16.629  0.2703 -0.1677 -0.1488
32243W        W48137   9.542  15.239  12.827 -0.1639  0.1357 -0.2495
32244W        W48138   9.701   4.704   5.094  0.3352  0.0905 -0.0955
32245W        W48139  16.246   3.275   0.265  0.0369 -0.2838 -0.0523
32246W        W48140  10.451  11.127  15.474  0.2282 -0.1309  0.0210
32247W        W48141   1.860   6.270  16.493 -0.2620 -0.1920  0.0133
32248W        W48142  11.807   1.571  11.719 -0.0371 -0.0155  0.2093
32249W        W48143   3.572  13.244   0.810 -0.0143 -0.2638  0.1732
32250W        W48144  17.186   1.499  13.341 -0.0585 -0.1052 -0.2757
32251W        W48145   1.999   2.326  13.962  0.3348 -0.1831 -0.3856
32252W        W48146  13.601   1.036  11.794  0.1432 -0.0104  0.0347
32253W        W48147  17.734   6.068   3.036 -0.0466 -0.0998  0.1295
32254W        W48148   6.619   2.723  14.824  0.0800 -0.1725 -0.0412
32255W        W48149  17.298   3.292   0.615 -0.1190  0.1553  0.3412
32256W        W48150   7.625  14.369  12.422  0.0782  0.0745  0.0712
32257W        W48151   8.017   4.769   1.640 -0.1159 -0.0380  0.0036
32258W        W48152   0.019   2.018   5.151 -0.1530  0.1796 -0.2603
32259W        W48153   0.574  10.799  13.007 -0.0085 -0.1185  0.1509
32260W        W48154   0.348   9.899   1.221  0.3325 -0.0137 -0.1610
32261W        W48155  15.772  12.982   3.383 -0.1326 -0.1845  0.0952
32262W        W48156  10.486   8.293  12.641 -0.2001 -0.0136  0.2223
32263W        W48157   3.972   4.762   5.013 -0.1361 -0.0490 -0.1229
32264W        W48158  13.889  16.566   4.970  0.0350  0.0063  0.1936
32265W        W48159   8.003   5.617  16.044  0.2200 -0.1917  0.1269
32266W        W48160   9.457  13.857   2.172 -0.0138  0.1068 -0.1281
32267W        W48161  16.357  10.267  12.827 -0.0029 -0.1150 -0.2318
32268W        W48162   0.478   0.263   6.494  0.2341  0.1487 -0.2578
32269W        W48163  14.059   4.977   1.833 -0.2772  0.0380  0.1215
32270W        W48164  16.774   9.518   0.500  0.0269 -0.0689 -0.1598
32271W        W48165  10.065   6.999  14.718  0.2152  0.2158 -0.0804
32272W        W48166   8.727  12.577  12.916 -0.1305  0.0611  0.0998
32273W        W48167  13.483  16.788   0.502  0.0588 -0.0223  0.1888
32274W        W48168  14.505  12.452   0.975  0.2915 -0.0239  0.0310
32275W        W48169   9.531   2.888   0.595 -0.2929  0.3318 -0.1004
32276W        W48170  16.611  15.174   3.500 -0.2660  0.0093  0.3301
32277W        W48171   2.376  15.752   2.991  0.2016  0.1954  0.0398
32278W        W48172   9.923  16.759   2.856 -0.0783  0.0922  0.0316
32279W        W48173   1.230  11.508   4.879 -0.0274 -0.0873  0.0042
32280W        W48174  15.829   9.448  15.555 -0.1201 -0.2692  0.3848
32281W        W48175   3.827  16.664   2.274  0.1021  0.3260 -0.1077
32282W        W48176   1.525   6.962  11.492  0.1756 -0.0244  0.0738
32283W        W48177   3.697  17.600   3.218  0.0743  0.4054  0.0740
32284W        W48178   0.885   1.436   4.151  0.3299  0.0562  0.0155
32285W        W48179  10.993   9.727   3.158 -0.0234  0.0935 -0.0144
32286W        W48180   6.232  12.661   5.728 -0.0445 -0.0937  0.2391
32287W        W48181  11.246  12.946  15.133  0.1492  0.1508  0.2882
32288W        W48182  17.734  17.262   0.310 -0.3004 -0.0090  0.0246
32289W        W48183   1.006  14.243   3.230  0.2043  0.0229  0.1740
32290W        W48184  14.238   0.025   2.193 -0.0684 -0.0417  0.0338
32291W        W48185   4.687  17.080   1.737 -0.1858 -0.3823  0.0826
32292W        W48186   9.203  13.205  16.067 -0.3414 -0.1504 -0.1970
32293W        W48187  10.259   2.811  11.943 -0.1742  0.1977 -0.0509
32294W        W48188  15.126   0.245   1.875  0.2570  0.2874  0.0041
32295W        W48189  12.846   8.432  12.361 -0.0729  0.0041  0.0559
32296W        W48190   2.394  15.274   1.574 -0.4665 -0.1778 -0.0710
32297W        W48191   3.197   6.941   2.964 -0.3422  0.0240  0.0879
32298W        W48192   1.238   6.392   2.446  0.2697  0.1368  0.0745
32299W        W48193  10.410  12.742   4.926 -0.0028  0.2257  0.1962
32300W        W48194  11.680  12.477   5.162 -0.1435  0.0528 -0.2265
32301W        W48195  16.450   4.877  12.845 -0.1535  0.2513  0.0145
32302W        W48196  14.288  16.389  16.260 -0.1439 -0.1032  0.2064
32303W        W48197  10.066  17.826   2.077 -0.1020 -0.1333  0.1574
32304W        W48198   4.749   3.220   3.227  0.0549 -0.5476 -0.1934
32305W        W48199   3.525  15.296  15.370  0.0305 -0.5928 -0.1035
32306W        W48200  15.348   7.513   2.922  0.1048 -0.2058  0.1362
32307W        W48201   5.988  13.053   1.661  0.2056  0.0403  0.3834
32308W        W48202   3.427  14.535   1.274 -0.0811 -0.1440  0.2686
32309W        W48203  12.104   3.291   0.298 -0.0936 -0.1184 -0.0491
32310W        W48204   5.078   6.750  14.643 -0.1320 -0.3581 -0.2906
32311W        W48205  13.706   4.280   0.365 -0.0030 -0.1072 -0.0245
32312W        W48206   2.004   5.854  14.887 -0.2973 -0.0288 -0.0104
32313W        W48207   0.852   0.703  11.589 -0.0839 -0.3229  0.3539
32314W        W48208   3.648   1.853   4.319  0.1123  0.0633  0.0601
32315W        W48209  15.377   3.576   0.118  0.0438  0.0274  0.1045
32316W        W48210  17.245  14.361   5.463  0.1213 -0.0382 -0.2011
32317W        W48211  16.489   8.742   0.357 -0.1770  0.0009  0.0318
32318W        W48212   6.332   4.261   4.408  0.3915 -0.1118  0.1616
32319W        W48213  12.113   7.419  15.217  0.2633  0.0788  0.1661
32320W        W48214   2.733  14.063  13.505 -0.1005 -0.1556 -0.1436
32321W        W48215  10.193   9.502   0.824  0.0275  0.0622 -0.0818
32322W        W48216  12.894  13.472   4.493 -0.1427  0.0519 -0.2392
32323W        W48217   0.865  17.127   2.950 -0.2403  0.2530  0.0329
32324W        W48218  17.391  10.037  11.900  0.0834 -0.1718 -0.2461
32325W        W48219  10.745   3.360  15.665 -0.0520  0.0226  0.1588
32326W        W48220  15.860   7.564  15.689  0.1891  0.0626  0.0830
32327W        W48221   1.930   4.828  11.686 -0.2994 -0.1620  0.1582
32328W        W48222  12.069  10.582   6.461  0.1951  0.0121  0.0753
32329W        W48223  13.948   0.572  14.302  0.2074 -0.0136 -0.1094
32330W        W48224  15.485   7.682  12.842  0.0685  0.2844  0.1548
32331W        W48225   3.013   8.086   2.047  0.4974  0.0107  0.2743
32332W        W48226   2.401   1.651   3.948 -0.0895  0.1210  0.0276
32333W        W48227   3.952  15.870  15.312 -0.3049  0.0019 -0.0499
32334W        W48228   6.861   9.902  11.276  0.3488 -0.2809 -0.2390
32335W        W48229   0.382   0.081  13.398  0.0914  0.0463  0.3183
32336W        W48230   0.733   0.515  14.918 -0.1158  0.0081  0.3402
32337W        W48231   0.871  17.110  13.474 -0.1474  0.2107  0.0825
32338W        W48232   5.566  17.267   5.470 -0.0385 -0.4689  0.1827
32339W        W48233  16.230  10.805   4.508 -0.2123  0.1205 -0.1899
32340W        W48234   6.295   3.892   3.297  0.1698 -0.0221  0.0037
32341W        W48235  15.843  12.392   1.642  0.1680  0.0150  0.0116
32342W        W48236  11.865   9.802  15.651 -0.1743 -0.3898  0.1996
32343W        W48237   0.923  13.852   6.645 -0.0152  0.0820 -0.1865
32344W        W48238   6.698   6.309  16.629 -0.1129  0.0235 -0.0391
32345W        W48239   6.823  11.021   1.024  0.0664  0.0098 -0.0727
32346W        W48240  13.304  10.239   1.416 -0.1309 -0.1786  0.0742
32347W        W48241  12.594   6.968   5.954 -0.1043 -0.0614  0.1777
32348W        W48242  11.369  13.115  15.549 -0.0494  0.0539  0.1707
32349W        W48243   2.744  12.529   0.218 -0.1174  0.1742  0.2280
32350W        W48244   4.269   9.095   5.104  0.0341 -0.3269  0.0522
32351W        W48245   4.002   6.666  15.499 -0.1513 -0.0021 -0.2284
32352W        W48246  10.888   7.635  12.363 -0.1371  0.3069  0.1520
32353W        W48247   6.835  14.627  15.565  0.1739  0.1174 -0.0876
32354W        W48248  15.282  15.417  15.050 -0.3402 -0.1187 -0.0362
32355W        W48249   3.450  15.214   4.975 -0.5709 -0.0820  0.1743
32356W        W48250  12.674  11.042  14.268 -0.3341 -0.4691  0.0823
32357W        W48251   0.088   2.622   2.419 -0.1842  0.2578  0.0792
32358W        W48252   7.948   8.180   3.386  0.0263 -0.2219 -0.2645
32359W        W48253   8.341   1.488   4.079 -0.2080  0.1574  0.2111
32360W        W48254  15.097  11.068   5.271 -0.1774  0.1272  0.0653
32361W        W48255  15.960   4.784   5.353 -0.1242 -0.3688 -0.0927
32362W        W48256   4.410   6.931  15.267 -0.1111  0.1076 -0.0541
32363W        W48257   0.694  16.028   0.760 -0.0276 -0.2200 -0.0348
32364W        W48258   4.692   2.316   1.588  0.0509  0.2396 -0.0020
32365W        W48259   8.984   9.488   5.748 -0.0902 -0.3477  0.0679
32366W        W48260   4.238  10.116  16.165 -0.0859 -0.2140  0.0871
32367W        W48261   5.268  10.301  16.102 -0.0134 -0.1759  0.0073
32368W        W48262   3.703  14.791   1.600  0.1656  0.3144  0.2450
32369W        W48263   2.339   4.817  14.603 -0.2116 -0.0454 -0.3753
32370W        W48264   4.538  13.830   0.867  0.0371 -0.1428 -0.1349
32371W        W48265   7.948   2.837  13.612 -0.3729  0.4143 -0.0386
32372W        W48266   3.090   5.597   0.538  0.1686  0.0435  0.5775
32373W        W48267   5.318   5.636   1.807 -0.2120  0.1822 -0.0624
32374W        W48268   4.977  10.068  15.773  0.1418  0.1950  0.1847
32375W        W48269   7.257   4.609  16.817  0.1257 -0.0981  0.0806
32376W        W48270   7.248   6.561  12.007  0.1806 -0.0542  0.0534
32377W        W48271   6.575   0.414  12.588 -0.1923  0.0177 -0.2719
32378W        W48272   7.391   5.401  13.703 -0.2420  0.5597  0.1037
32379W        W48273  15.643  17.331  11.734 -0.0505  0.1177  0.0003
32380W        W48274   9.990   1.654   4.882 -0.1360  0.1002  0.1476
32381W        W48275   6.971   5.677  15.872 -0.0484 -0.0185 -0.2780
32382W        W48276  12.755   9.911   4.521  0.0182 -0.0546  0.1679
32383W        W48277   1.239  15.731   2.078  0.0089 -0.1941  0.0424
32384W        W48278  11.625  11.959   3.631  0.1427 -0.1559  0.1963
32385W        W48279   3.190  15.597   4.915 -0.0897  0.2204  0.2855
32386W        W48280   9.293  14.212   0.411 -0.1259 -0.0038 -0.2536
32387W        W48281   9.620   5.759  15.406  0.0024  0.1681 -0.1306
32388W        W48282  11.859   2.905  13.808  0.0413 -0.2875 -0.1656
32389W        W48283  11.692  17.601  13.015  0.2473 -0.1754 -0.1157
32390W        W48284  12.082  13.050   4.415 -0.1460  0.0927 -0.1191
32391W        W48285  17.724  12.543  14.395  0.0033  0.0656  0.0703
32392W        W48286   8.891   6.217   2.322 -0.3697  0.0246 -0.1223
32393W        W48287  11.206  17.696   0.150  0.0234 -0.3776  0.0878
32394W        W48288   5.862  17.135  13.233  0.0967 -0.0792 -0.1610
32395W        W48289  15.395  11.733  13.985 -0.2540 -0.0872 -0.0255
32396W        W48290  17.549  16.523   3.325 -0.2390  0.1927  0.1057
32397W        W48291   0.754   7.858  15.247 -0.1332 -0.3566 -0.2098
32398W        W48292   8.824   2.885  11.573 -0.0985  0.1056  0.0676
32399W        W48293   0.728   1.074  15.060  0.1811 -0.3497  0.2226
32400W        W48294  12.991   3.594   1.589 -0.1572 -0.0788  0.3093
32401W        W48295  14.127   5.832  16.384 -0.1281 -0.1517 -0.1478
32402W        W48296   3.795   4.494  13.896  0.1275 -0.2892  0.0508
32403W        W48297  15.305  12.229   1.593 -0.1256  0.2632 -0.0633
32404W        W48298   3.221  11.208   4.192 -0.0849 -0.1012 -0.0951
32405W        W48299  17.682  11.956   4.379 -0.3828  0.1368  0.1996
32406W        W48300  11.731  12.120  12.384  0.1522  0.0236 -0.0851
32407ION     NA48301   8.812  10.323   6.359  0.0950  0.0495 -0.2416
32408ION     NA48302  16.913  10.256  11.139  0.1444 -0.0437  0.2602
32409ION     NA48303  16.206   5.179  10.886  0.1478  0.0109 -0.3062
32410ION     NA48304   9.934   2.479  10.668  0.1640  0.0205  0.0094
32411ION     NA48305  14.348   3.709  10.326  0.2915  0.0226  0.1440
32412ION     NA48306  17.837   4.945  12.247 -0.0261 -0.0287  0.0996
32413ION     NA48307   6.811   6.481  11.150  0.3802  0.1586  0.2288
32414ION     NA48308  13.862  11.147  11.285  0.3049  0.0667  0.0601
32415ION     NA48309  11.304   6.505  10.719 -0.1102 -0.2772  0.2374
32416ION     NA48310   6.075   5.477  12.923 -0.1200  0.0783  0.1351
32417ION     NA48311   0.295  13.338  11.071 -0.2494  0.3054  0.0288
32418ION     NA48312   1.015   4.280  10.464 -0.0194  0.0107  0.2582
32419ION     NA48313  13.046  15.153  14.667  0.4394  0.2280 -0.0914
32420ION     NA48314   9.174  11.690   6.101  0.1362  0.3472 -0.1759
32421ION     NA48315  15.225  12.553   0.685  0.2790 -0.4292 -0.0229
32422ION     NA48316   2.916  12.886   5.197  0.3714 -0.3907  0.2202
32423ION     NA48317   2.465  11.131  10.929 -0.0233 -0.3009  0.2803
32424ION     NA48318  17.369   1.090  10.594  0.1411  0.1371 -0.1699
32425ION     NA48319  13.886   2.986   3.698 -0.0821 -0.0445  0.0889
32426ION     NA48320   2.196   5.840  12.646  0.0745 -0.1143  0.1263
32427ION     NA48321   0.223   8.936  10.720 -0.0267  0.0502 -0.0402
32428ION     NA48322  13.466  16.196   1.206 -0.1343  0.0013 -0.1671
32429ION     NA48323   5.082   6.830   4.201  0.1117  0.2818 -0.0957
32430ION     NA48324   2.859   1.748   6.093 -0.3434 -0.2568 -0.0654
32431ION     NA48325   2.504   4.846  10.882 -0.2767  0.0788 -0.1437
32432ION     NA48326  10.813   9.783  11.054 -0.1660  0.0171 -0.0468
32433ION     NA48327   5.720   6.354   3.751 -0.0065  0.1173 -0.0215
32434ION     NA48328  11.336   5.844   6.282 -0.3670  0.0142  0.1469
32435ION     NA48329  13.616  15.776  11.009 -0.0445  0.0073 -0.0436
32436ION     NA48330   5.532  13.096   6.392 -0.0110  0.1150 -0.1904
32437ION     NA48331   2.377  11.223   1.563  0.0109 -0.1433 -0.0319
32438ION     NA48332   3.874   8.241  16.045 -0.3766 -0.1544  0.3963
32439ION     NA48333  13.848   7.823   2.653 -0.0336 -0.2474 -0.1174
32440ION     NA48334  11.027  15.366  10.788  0.0051 -0.3634  0.1692
32441ION     NA48335   2.953  15.031  10.635 -0.0422  0.0688 -0.2234
32442ION     NA48336   2.593   0.243   1.758 -0.1805  0.3991  0.3542
32443ION     NA48337  12.336   5.436  10.373 -0.2877  0.0133 -0.1081
32444ION     NA48338   8.000  12.457   6.611  0.2389 -0.0777 -0.0004
32445ION     NA48339  16.668   1.521  10.382  0.0574  0.2363  0.1690
32446ION     NA48340   0.145  15.779  10.854  0.0883 -0.0147 -0.0742
32447ION     NA48341   4.712   5.720  11.078 -0.1035  0.2187 -0.0605
32448ION     NA48342  17.616  13.359  16.523 -0.1801 -0.1627 -0.1446
32449ION     NA48343  13.360   1.918  11.206  0.2493  0.2405  0.0996
32450ION     NA48344   7.103  16.375   6.389  0.1156  0.1944 -0.0996
32451ION     NA48345  17.055  17.514  10.727 -0.1613  0.2356  0.2313
32452ION     NA48346   8.538   6.383   4.065 -0.1527 -0.1121  0.0810
32453ION     NA48347   4.604  14.969  10.860  0.0294 -0.1646  0.0693
32454ION     NA48348   3.323  15.178  14.041 -0.1604 -0.2757  0.1130
32455ION     NA48349   1.588   2.535  10.415 -0.0615  0.2455 -0.6007
32456ION     NA48350   4.031   6.615  10.932 -0.3271  0.1938  0.0034
32457ION     NA48351   3.253   0.006  11.235 -0.1048 -0.1783 -0.0599
32458ION     NA48352   9.226   1.037  10.686 -0.1983  0.0323  0.2379
32459ION     NA48353   9.305   8.196  10.873  0.0551  0.1339  0.1434
32460ION     NA48354  12.552   2.100  14.879 -0.0538  0.2018  0.2139
32461ION     NA48355  10.300  10.890  11.128  0.3576  0.0124  0.2323
32462ION     NA48356  11.534  16.962   4.528  0.1750 -0.2515 -0.2118
32463ION     NA48357  11.509  10.348   6.452 -0.3785  0.3143  0.1892
32464ION     NA48358  12.628  10.304  11.333  0.1366  0.0049  0.0004
32465ION     NA48359   2.513  15.217   2.040  0.0957  0.0728  0.0455
32466ION     NA48360  17.349  12.356   6.637  0.1717  0.3265  0.0300
32467ION     NA48361  16.972  14.937  11.298  0.3529 -0.1785  0.3433
32468ION     NA48362   2.564   6.666  10.731 -0.0867  0.0150  0.0474
32469ION     NA48363   8.921  10.180  14.500 -0.3256  0.0308  0.0621
32470ION     NA48364   0.470   8.589  13.165  0.2436  0.0325  0.1962
32471ION     NA48365  12.251  17.817   4.341  0.2418  0.0082  0.0523
32472ION     NA48366   8.808   6.750   6.152  0.1500 -0.2490 -0.0707
32473ION     NA48367   6.921  14.394  11.049  0.1961  0.0550 -0.2607
32474ION     NA48368  17.461   9.965  14.010  0.1245  0.1075  0.0143
32475ION     NA48369   7.831  10.528   6.747 -0.0636  0.0043  0.1097
32476ION     NA48370  10.926  17.093  10.721 -0.2141  0.0285 -0.3161
32477ION     NA48371  16.496  11.870  11.392 -0.0078 -0.0699 -0.1721
32478ION     NA48372   3.620   8.988  10.964  0.2508  0.2550 -0.0021
32479ION     NA48373   0.778   8.261  10.597 -0.3906 -0.0618  0.2319
32480ION     NA48374  10.715  16.211  13.355  0.2257 -0.1113  0.0337
32481ION     NA48375   7.741   5.682  12.323 -0.0469 -0.0152 -0.5052
32482ION     NA48376   8.945   5.674  10.855 -0.1081 -0.0079  0.1971
32483ION     NA48377  10.006   3.986  10.749  0.0910 -0.1824 -0.1659
32484ION     NA48378   6.297   1.800   1.068  0.1449 -0.1210  0.0103
32485ION     NA48379   8.378  15.080  11.113 -0.1574 -0.1225  0.1145
32486ION     NA48380  15.652   2.203   1.327 -0.1622  0.1832 -0.0381
32487ION     NA48381   1.294   6.393   6.109 -0.1439  0.1288 -0.0448
32488ION     NA48382   2.005  11.709  16.829 -0.1468  0.1346 -0.0453
32489ION     NA48383   9.348  17.262   5.982  0.1476  0.0328 -0.1944
32490ION     NA48384   3.497  11.269  10.903  0.1255 -0.1463 -0.0900
32491ION     NA48385  10.924  11.654  11.343  0.0333  0.3440 -0.4656
32492ION     NA48386  13.513   4.154  10.477  0.0985  0.1480 -0.0620
32493ION     NA48387  13.878   4.194   3.711  0.1355  0.0425 -0.1007
32494ION     NA48388   1.768   8.520  10.420  0.1077  0.0373 -0.0590
32495ION     NA48389  16.117  12.190   2.496  0.0173 -0.0556  0.1836
32496ION     NA48390   6.527   8.910   6.409 -0.0589 -0.0852  0.3408
32497ION     NA48391  16.651  13.330   4.848  0.1221 -0.3829 -0.2475
32498ION     NA48392   0.189   6.602  10.527 -0.2320 -0.0276  0.0840
32499ION     NA48393   3.318   0.123  13.942  0.2116  0.3071 -0.1268
32500ION     NA48394  15.472   9.166  15.840 -0.3493  0.1065 -0.1754
32501ION     NA48395  12.056  12.114  11.144 -0.0301 -0.0977  0.0938
32502ION     NA48396  11.601  14.448  14.847  0.0187 -0.0416 -0.0696
32503ION     NA48397   9.712  14.375  11.031 -0.2479 -0.1642 -0.0920
32504ION     NA48398  16.004   2.897   0.591 -0.0192 -0.0810 -0.1239
32505ION     NA48399   9.362  12.590   5.057 -0.1276 -0.1053  0.1180
32506ION     NA48400  15.831   2.837  10.458 -0.0756 -0.1014  0.2037
32507ION     NA48401   8.600   1.680  10.730 -0.0171 -0.1116 -0.1191
32508ION     NA48402   6.994  11.267   3.186  0.0756 -0.1019 -0.1771
32509ION     NA48403   0.289  10.175  10.775  0.1843 -0.0029  0.1526
32510ION     NA48404  13.185   0.914  10.366 -0.1908 -0.0774 -0.0062
32511ION     NA48405  14.930  10.906   4.840 -0.0162  0.1883 -0.2348
32512ION     NA48406   1.682   0.949  15.223  0.5177 -0.0313  0.1218
32513ION     NA48407   4.482   0.893  10.712  0.1925  0.0971  0.3179
32514ION     NA48408   5.658   7.172  11.187  0.0494  0.0331  0.2985
32515ION     NA48409  16.343   9.293  11.116 -0.0891 -0.0742  0.1661
32516ION     NA48410   0.293  10.667   6.189  0.0014 -0.0313  0.2263
32517ION     NA48411   1.506   7.229   6.186 -0.0777  0.3325 -0.1316
32518ION     NA48412  13.659  13.932   4.427 -0.2925  0.3504  0.1889
32519ION     NA48413  12.252   0.140   5.793 -0.1456 -0.1906 -0.0881
32520ION     NA48414   1.746  13.962   6.205  0.1892 -0.2262 -0.0633
32521ION     NA48415  16.208  12.885   6.603  0.2645  0.0866 -0.1614
32522ION     NA48416   6.068   2.063   5.748  0.1537  0.4123  0.0463
32523ION     NA48417  17.151  16.208   5.665 -0.0991  0.0278  0.3010
32524ION     NA48418  12.146  16.511   4.107 -0.1686 -0.0502 -0.1086
32525ION     NA48419  12.791   1.357   5.632 -0.0695  0.0974  0.0251
32526ION     NA48420   5.383  12.285  10.889  0.2115  0.2979  0.0517
32527ION     NA48421  12.054   6.060  10.545  0.1343 -0.0787  0.1481
32528ION     NA48422  12.542   4.066  10.383 -0.1186 -0.1929  0.0701
32529ION     NA48423  12.070  14.523  10.940  0.3647  0.1027  0.1643
32530ION     NA48424   1.840   9.553  10.573  0.0990  0.1194 -0.0075
32531ION     NA48425   9.592   9.164  11.039 -0.1147 -0.0201 -0.0696
32532ION     NA48426  17.730   2.307   5.572 -0.0097  0.0707 -0.0763
32533ION     NA48427   2.905   7.600   5.806 -0.1756 -0.0020  0.2354
32534ION     NA48428  11.708  16.671  10.661  0.2454 -0.5260  0.2285
32535ION     NA48429   4.745  13.332  10.796 -0.1587  0.0959 -0.1982
32536ION     NA48430   3.520  13.247  12.308 -0.1987 -0.2090 -0.0383
32537ION     NA48431  17.664   4.720  14.451  0.1452  0.4596  0.0651
32538ION     NA48432  10.233  13.714  11.069  0.2997  0.1046  0.1623
32539ION     NA48433   9.167  10.113  10.820 -0.1463 -0.0093 -0.0385
32540ION     NA48434  14.848   8.615  11.221  0.3412 -0.3429  0.1248
32541ION     NA48435   4.069   2.329  10.479  0.1547 -0.0228  0.2297
32542ION     NA48436   7.547  12.351  10.971 -0.0780  0.0158 -0.3185
32543ION     NA48437  11.498  13.587  11.165  0.2506 -0.2723 -0.3405
32544ION     NA48438  16.988  17.391  15.486  0.3191 -0.2066 -0.1565
32545ION     NA48439  17.165  13.077  11.257 -0.0283 -0.0424  0.0684
32546ION     NA48440   9.684  10.050   6.143  0.1851  0.3064 -0.2434
32547ION     NA48441   0.975  17.326  10.734 -0.0010 -0.0146 -0.5107
32548ION     NA48442   2.963  13.473  10.854 -0.0245  0.1409 -0.0502
32549ION     NA48443  15.529  16.217  11.099  0.2900  0.0192 -0.2256
32550ION     NA48444   2.021  15.617   6.286  0.0010 -0.2040  0.1597
32551ION     NA48445   8.135   3.053  10.968  0.3763 -0.1173 -0.0513
32552ION     NA48446   7.564   8.308   4.187 -0.2933  0.0026 -0.2704
32553ION     NA48447  12.862   7.359   5.870 -0.0403  0.1348 -0.3550
32554ION     NA48448  11.961   8.808  10.958  0.0733 -0.0081 -0.0391
32555ION     NA48449   3.667   3.552  13.229  0.3359 -0.0348 -0.2685
32556ION     NA48450   0.582   4.655   5.946 -0.1263 -0.1166  0.0956
32557ION     NA48451  13.857  11.806  11.369 -0.1488 -0.1741  0.2138
32558ION     NA48452  10.989  17.213   6.090  0.0898  0.2175 -0.1070
32559ION     NA48453  13.919  11.727   6.416 -0.2062  0.3770  0.1148
32560ION     NA48454  11.222  11.006  11.210  0.3130  0.2486 -0.1405
32561ION     NA48455  13.758  14.887  11.365  0.0124 -0.0386 -0.2756
32562ION     NA48456   4.092  16.095  11.079  0.3563  0.2526  0.3113
32563ION     NA48457  16.989   2.436  10.250  0.0496  0.0384  0.5288
32564ION     NA48458  12.919  12.150  11.323 -0.1979 -0.2513  0.0399
32565ION     NA48459   5.151  11.349   5.907 -0.0928  0.0215 -0.0830
32566ION     NA48460  13.043  17.505  10.591 -0.1779 -0.1225  0.2589
32567ION     NA48461  10.169  14.797  10.976 -0.1071  0.1925  0.2145
32568ION     NA48462  14.106   2.624   5.773 -0.2711 -0.0804 -0.0488
32569ION     NA48463  14.216   6.265   6.010  0.0058  0.1231  0.1006
32570ION     NA48464   4.126  10.488   2.212 -0.0334 -0.0558 -0.0461
32571ION     NA48465   7.169   6.429   5.551  0.0464 -0.0068  0.2070
32572ION     NA48466   7.391  17.394  11.030 -0.0248 -0.1475 -0.1878
32573ION     NA48467   3.566   3.956   6.028  0.0920 -0.1543 -0.1496
32574ION     NA48468   0.948   5.199  10.336 -0.1388  0.0860  0.1349
32575ION     NA48469   7.987  16.650  13.615 -0.1636 -0.4756 -0.0165
32576ION     NA48470   5.849  16.789   6.253  0.0984  0.1446  0.0693
32577ION     NA48471  13.787   2.345  10.277  0.0397  0.2787  0.2132
32578ION     NA48472  17.365   0.355  10.577 -0.0577 -0.0957 -0.0202
32579ION     NA48473   3.045   7.320  10.468  0.3808 -0.0490  0.0146
32580ION     NA48474   6.504   3.490  16.590  0.2760 -0.0188 -0.2465
32581ION     NA48475  14.710  17.589   5.180 -0.1510 -0.3949  0.0008
32582ION     NA48476   3.600   7.552  14.214  0.1690 -0.0070  0.1915
32583ION     NA48477   0.040  16.660  12.300 -0.1295 -0.0313 -0.1317
32584ION     NA48478   4.205   5.989   0.780 -0.1324  0.0206  0.0434
32585ION     NA48479  16.254  12.998  11.324  0.0087 -0.1662 -0.4405
32586ION     NA48480  15.754  17.001  10.695  0.2971 -0.0540  0.0378
32587ION     NA48481   7.670  17.011  10.971 -0.0806 -0.0406 -0.1398
32588ION     NA48482  17.729  15.966   4.050  0.3081  0.0265  0.1617
32589ION     NA48483   6.780  17.099  10.652  0.2813 -0.1979  0.1310
32590ION     NA48484   4.831   3.795  10.659 -0.2369  0.0750  0.0130
32591ION     NA48485   1.389   7.100  13.644  0.1074  0.1018 -0.1973
32592ION     NA48486   0.792  14.249   1.422 -0.0283  0.0647  0.0281
32593ION     NA48487  16.948   6.469  16.703  0.0518 -0.1216  0.0874
32594ION     NA48488  14.256  17.340  10.724 -0.0060 -0.0201 -0.0946
32595ION     NA48489  13.096  14.470  10.836 -0.0934  0.2785  0.0352
32596ION     NA48490   5.363   4.102   6.153  0.1749  0.1126 -0.0050
32597ION     NA48491  14.120  10.901   6.580  0.0817 -0.0042  0.2295
32598ION     NA48492   1.028   7.191  10.672  0.3277  0.1380 -0.0679
32599ION     NA48493   3.476  14.423  10.735 -0.0602  0.0871  0.0271
32600ION     NA48494   2.303  10.083  14.819  0.0588  0.2234 -0.1215
32601ION     NA48495  17.382   7.665  14.198  0.1249  0.0821  0.1657
32602ION     NA48496   7.149   7.488   1.564  0.0149  0.2521 -0.1474
32603ION     NA48497  17.397   6.680  10.699  0.1537 -0.2589  0.0642
32604ION     NA48498   1.915   4.008   4.170 -0.2564  0.0613 -0.0015
32605ION     NA48499  11.094   7.988   1.399  0.1283  0.0256  0.2451
32606ION     NA48500   7.134   8.139  10.874 -0.0534 -0.1890 -0.1625
32607ION     NA48501  16.280   9.561   6.268  0.1831 -0.5018 -0.0829
32608ION     NA48502  10.169   0.776  11.385 -0.1277  0.2073 -0.1130
32609ION     NA48503   1.883  17.158  10.803  0.2065 -0.4222 -0.6193
32610ION     NA48504   1.080  11.919  16.267 -0.0508 -0.1564  0.2745
32611ION     NA48505   0.068   5.530   5.349 -0.0652  0.0401  0.1910
32612ION     NA48506   2.356   4.394   0.629 -0.0737 -0.0850  0.1253
32613ION     NA48507  16.322   1.298   6.241 -0.2243  0.0659 -0.1852
32614ION     NA48508  16.044   4.171  10.706  0.1104 -0.3224  0.0956
32615ION     NA48509  17.784   3.666  10.342 -0.2516 -0.1033  0.1257
32616ION     NA48510  15.175   9.919  11.205  0.1533 -0.2848 -0.1113
32617ION     NA48511  12.370  17.307   6.015  0.1437  0.0885  0.4213
32618ION     NA48512   6.423   1.490  10.721  0.1010 -0.1062 -0.1630
32619ION     NA48513   4.000  13.229  10.940  0.2803 -0.0178 -0.5076
32620ION     NA48514  16.530   2.440  10.358 -0.1173 -0.0988 -0.0816
32621ION     NA48515   0.551  16.814   3.948  0.1822 -0.1822 -0.0889
32622ION     NA48516  13.135  14.057   2.764 -0.0116  0.0304 -0.2126
32623ION     NA48517  11.476  11.348  16.634 -0.2808 -0.2990  0.0593
32624ION     NA48518  16.531   6.188  10.521 -0.0537 -0.1034 -0.0484
32625ION     NA48519   2.865  12.085  11.037 -0.0867  0.2563  0.0912
32626ION     NA48520   1.684  12.819  11.162  0.1475 -0.1228  0.3019
32627ION     NA48521  12.982  11.076  11.315  0.0628 -0.1539  0.2651
32628ION     NA48522   2.590   1.519  10.406  0.2153 -0.2063  0.1595
32629ION     NA48523   1.040   3.335  10.434 -0.3920  0.1336  0.1016
32630ION     NA48524  17.797  17.304  10.577  0.1936 -0.2993  0.0799
32631ION     NA48525   0.922  15.705  11.299 -0.2359  0.2706 -0.0880
32632ION     NA48526   7.433  14.434  11.003 -0.0367  0.2606  0.3314
32633ION     NA48527  16.915  13.651  11.264 -0.2089 -0.0107  0.3524
32634ION     NA48528  16.673   9.678   5.437  0.1691  0.1244 -0.2677
32635ION     NA48529  12.332  14.147  11.227  0.1390 -0.3151 -0.3009
32636ION     NA48530   0.367   2.798  10.752 -0.0743 -0.3131  0.1901
32637ION     NA48531  13.001  10.247   6.408 -0.0608  0.3461 -0.1874
32638ION     NA48532  14.373  15.796  11.157  0.0608 -0.1531  0.1635
32639ION     NA48533   2.804   3.840  10.726  0.1216 -0.1974 -0.1167
32640ION     NA48534   4.433  11.471   6.246  0.1277 -0.1948 -0.1541
32641ION     NA48535   1.544   5.642  10.744 -0.1786 -0.0776  0.0867
32642ION     NA48536  16.178   4.780   2.840 -0.1204  0.0689  0.0574
32643ION     NA48537  15.476  13.064  11.271 -0.0504 -0.1547  0.1101
32644ION     NA48538  15.329   9.441  10.950 -0.0495  0.3686  0.0154
32645ION     NA48539   3.267  12.419  16.541  0.1398 -0.0932  0.2400
32646ION     NA48540   1.258  13.531  11.266  0.0300  0.1886 -0.0614
32647ION     NA48541   5.835   7.848  15.895  0.1480  0.1668  0.1097
32648ION     NA48542   1.627  13.799  14.824  0.2195  0.1945 -0.0582
32649ION     NA48543   9.595   6.572   1.192  0.0033 -0.1391  0.0550
32650ION     NA48544  15.992   6.843  10.679 -0.0637 -0.2724  0.4966
32651ION     NA48545  14.065   8.961  11.167 -0.1490 -0.0175 -0.0343
32652ION     NA48546   3.694   6.474  12.693  0.0949 -0.3501 -0.0980
32653ION     NA48547   0.829  10.058   1.415  0.1097  0.3446  0.1261
32654ION     NA48548   0.200  14.268  11.118  0.3425  0.2352 -0.0217
32655ION     NA48549  13.697  17.413  14.134  0.3361 -0.1465  0.0887
32656ION     NA48550  10.506  10.069   6.538  0.2155  0.0348 -0.1591
32657ION     NA48551   4.478  12.413  13.463 -0.0686 -0.1666  0.3353
32658ION     NA48552   0.549  10.234   4.669  0.1757 -0.0276  0.2438
32659ION     NA48553   8.239   9.803  10.925 -0.0298 -0.2244 -0.1532
32660ION     NA48554  13.136  15.040   6.258 -0.0718 -0.3335  0.3572
32661ION     NA48555  11.414   8.011   6.576  0.1772 -0.0777  0.0187
32662ION     NA48556   0.170  11.469  10.970 -0.1815 -0.2633  0.0138
32663ION     NA48557  11.865   6.980  10.749  0.2863  0.2129 -0.0712
32664ION     NA48558   2.878  15.580   5.835  0.1277  0.0183  0.0050
32665ION     NA48559   2.729   9.058   5.890 -0.0533 -0.1627  0.0231
32666ION     NA48560   6.081   8.400   6.221 -0.0563 -0.1294 -0.0565
32667ION     NA48561   5.124   0.040  10.828 -0.2559 -0.0049  0.1712
32668ION     NA48562  10.728   5.739  10.658  0.0667 -0.3013  0.1554
32669ION     NA48563  14.327  14.927  14.182  0.1227  0.2220 -0.3608
32670ION     NA48564  11.348  16.705  14.986  0.0388 -0.0410  0.1456
32671ION     NA48565  14.917   7.676  11.090 -0.0137 -0.2151 -0.1118
32672ION     NA48566   7.843  14.558  11.301  0.1873 -0.1174  0.0333
32673ION     NA48567  17.092   5.466  10.762  0.1898 -0.2449  0.0127
32674ION     NA48568   9.195  15.093   4.184 -0.0416 -0.2166 -0.1188
32675ION     NA48569  13.506   3.353   5.289 -0.0654  0.2073  0.1207
32676ION     NA48570   8.617   4.259   3.252  0.0133 -0.3113 -0.1397
32677ION     NA48571  17.193   9.379  12.870 -0.1615 -0.0441  0.2709
32678ION     NA48572  13.588  10.181  11.337  0.2087 -0.0429  0.1019
32679ION     NA48573   7.261   9.541   6.459 -0.0429  0.1593  0.1066
32680ION     NA48574   7.844   0.219  11.083  0.1130 -0.1607  0.1225
32681ION     NA48575   1.646  10.660  10.968  0.2397  0.2897 -0.1685
32682ION     NA48576  14.932   4.346  10.360  0.1218 -0.0928  0.3110
32683ION     NA48577  10.605  13.316   5.084  0.0578  0.1628 -0.1943
32684ION     NA48578  10.629   0.788   1.857 -0.0654  0.2234 -0.1520
32685ION     NA48579   6.541   2.021   5.769 -0.1542 -0.0919 -0.0041
32686ION     NA48580  14.684  16.560   6.058  0.0422  0.3207  0.1815
32687ION     NA48581   9.529  17.421  11.047  0.0294  0.3629 -0.1446
32688ION     NA48582   7.851   6.514  11.165  0.0357  0.0912  0.2030
32689ION     NA48583   1.625  11.565  11.166  0.0382  0.0743  0.0450
32690ION     NA48584   6.983   5.742  11.473 -0.0908 -0.0014 -0.0820
32691ION     NA48585   9.820   5.425  10.787  0.2042  0.0583 -0.2200
32692ION     NA48586   1.186  16.418  10.764  0.1533 -0.0012  0.0639
32693ION     NA48587  16.634   7.036  10.831 -0.0207  0.0132 -0.0307
32694ION     NA48588  12.814   7.092  10.748  0.1880 -0.2463  0.1285
32695ION     NA48589  13.345  15.508  13.779  0.0928 -0.4010  0.0115
32696ION     NA48590  13.687   6.588  10.988 -0.1656  0.2455  0.0983
32697ION     NA48591  12.963   1.529   4.084  0.1322  0.2006  0.2360
32698ION     NA48592   4.924   6.111   6.060 -0.2645 -0.1053 -0.3347
32699ION     NA48593   1.981  14.676  14.277  0.1268 -0.2749  0.1556
32700ION     NA48594  10.222  12.188  15.408 -0.0392 -0.0061 -0.1469
32701ION     NA48595  11.715   7.652  10.799 -0.1852 -0.1486 -0.2307
32702ION     NA48596  11.091  12.913   0.855 -0.2059 -0.1458 -0.2767
32703ION     NA48597   7.507   0.159  14.340  0.0891  0.2468 -0.0126
32704ION     NA48598   8.786  16.696   5.413 -0.0777  0.0860 -0.0236
32705ION     NA48599   5.053   8.740   5.209 -0.2752 -0.1156 -0.0162
32706ION     NA48600  10.677   0.743   6.299  0.1968 -0.1907 -0.0204
32707ION     NA48601   7.059  15.405  11.724 -0.2187 -0.1613 -0.0064
32708ION     NA48602   0.990  11.548  12.202 -0.1375 -0.0313 -0.1777
32709ION     NA48603   3.212  10.763  11.095  0.0274 -0.2345 -0.3793
32710ION     NA48604  14.307  13.055  11.290  0.2511 -0.0659  0.2011
32711ION     NA48605   8.894   8.648   3.318  0.1265  0.1081 -0.3010
32712ION     NA48606   4.715  17.428   6.037 -0.0731  0.0603 -0.0700
32713ION     NA48607   3.816  15.486  10.890 -0.0563 -0.1034  0.1303
32714ION     NA48608   4.986  15.510  10.973  0.1260  0.1618  0.0438
32715ION     NA48609   9.953   7.735   6.005 -0.3800 -0.0248  0.0016
32716ION     NA48610   0.119   7.466  10.667  0.0692 -0.3481  0.1222
32717ION     NA48611  15.562  13.202   1.414 -0.1260 -0.1004 -0.1614
32718ION     NA48612  15.314   7.746   2.375  0.0390 -0.2079  0.0347
32719ION     NA48613  10.698  15.355   5.839 -0.0833 -0.3127 -0.1229
32720ION     NA48614  15.191  11.030   0.865  0.2481 -0.1653 -0.3542
32721ION     NA48615   3.675   5.633  10.868 -0.0419 -0.1143  0.2506
32722ION     NA48616   1.567   8.203  10.811  0.0111  0.2972 -0.0568
32723ION     NA48617  17.149   9.346  10.818  0.2646 -0.0830 -0.1783
32724ION     NA48618   0.492  16.282   2.245 -0.0957  0.0537  0.4611
32725ION     NA48619   6.238  14.965  15.588 -0.2744 -0.2595  0.0264
32726ION     NA48620   8.256  11.935  11.056  0.0356  0.1664 -0.0658
32727ION     NA48621  14.046   5.915   2.154  0.1381  0.2343 -0.1969
32728ION     NA48622   0.727  14.877   6.297 -0.1035 -0.0322 -0.1930
32729ION     NA48623   4.003  13.415   1.065  0.0031 -0.3556  0.0199
32730ION     NA48624   5.220  17.505   3.170  0.2412  0.0952 -0.3869
32731ION     NA48625  13.708   6.822  16.215  0.0480  0.1032 -0.1865
32732ION     NA48626  13.181  16.463  10.652  0.1539 -0.2814  0.2695
32733ION     NA48627  15.011  15.794   6.199  0.1348  0.0503 -0.1909
32734ION     NA48628  15.604   9.953   1.412  0.0792  0.1030 -0.1915
32735ION     NA48629  13.773   8.515  11.210  0.0157  0.2633 -0.2120
32736ION     NA48630   0.551   9.327  16.431 -0.1528  0.1259  0.0467
32737ION     NA48631  14.975   5.380  10.299  0.2742  0.0442 -0.0382
32738ION     NA48632   8.122  13.314   6.337  0.0809  0.0011 -0.1438
32739ION     NA48633   8.632  12.585  10.987 -0.0373  0.2735  0.1803
32740ION     NA48634  16.544   0.727  10.565 -0.1575  0.1711  0.0416
32741ION     NA48635   6.059  16.287  11.456 -0.0946 -0.4573 -0.0591
32742ION     NA48636   6.068  12.430  16.456 -0.1289 -0.3280 -0.0150
32743ION     NA48637  13.627   6.612  13.935 -0.3683  0.1224  0.2544
32744ION     NA48638   4.973  12.120   4.475  0.0105 -0.1266  0.0121
32745ION     NA48639  11.646  10.185  11.309  0.2442  0.0897 -0.1464
32746ION     NA48640   3.109  17.019   3.297 -0.0595 -0.4739 -0.3072
32747ION     NA48641   0.517   4.652   4.333 -0.1011  0.2575  0.0534
32748ION     NA48642  12.981  11.622  11.281  0.0143  0.1080 -0.1658
32749ION     NA48643  12.695  16.354   6.017 -0.1241 -0.2174 -0.0540
32750ION     NA48644  12.471   8.145  11.334 -0.0265  0.0755  0.3165
32751ION     NA48645   9.608   3.404  11.277 -0.1882 -0.0578 -0.0439
32752ION     NA48646  12.361  14.719   6.364  0.2674  0.2280  0.2221
32753ION     NA48647  10.416  17.032  10.910  0.1402 -0.0319  0.1641
32754ION     NA48648   9.688  12.307  11.044  0.2704  0.1644 -0.0737
32755ION     NA48649  16.970  14.056   6.456 -0.2152 -0.0007 -0.0707
32756ION     NA48650   6.097  12.664  10.883  0.2146 -0.3298 -0.0498
32757ION     NA48651  15.494   8.161  10.969  0.0342  0.2381 -0.1458
32758ION     NA48652   7.186   3.333   5.675 -0.1715 -0.0962  0.2820
32759ION     NA48653  15.437   1.542  14.977  0.0203  0.1776 -0.0464
32760ION     NA48654  14.819  14.829  10.936 -0.2358 -0.0865 -0.3158
32761ION     NA48655   3.180  15.958  10.695  0.0542 -0.2003  0.1635
32762ION     NA48656   4.006  17.319  14.864  0.0342  0.3895  0.0628
32763ION     NA48657  12.938   2.164  10.399 -0.0023  0.0905 -0.0470
32764ION     NA48658  16.729  13.222   3.994 -0.1405 -0.0250  0.0655
32765ION     NA48659  11.172   0.068  10.627  0.4341  0.3165  0.1878
32766ION     NA48660   7.385  10.027  11.233 -0.0463  0.0646 -0.0838
32767ION     NA48661   0.285   9.377  10.955  0.1471  0.1169 -0.1343
32768ION     NA48662   0.791  11.071  10.842 -0.0358 -0.0386 -0.0530
32769ION     NA48663  11.178   0.456   2.443  0.0917  0.0788  0.3081
32770ION     NA48664   4.083   8.641  10.691  0.1084  0.1891 -0.0199
32771ION     NA48665   7.880   6.908   6.460  0.0300  0.1211  0.3057
32772ION     NA48666  11.232   2.854  10.912 -0.0458  0.0363 -0.0718
32773ION     NA48667  10.371  11.883  13.295  0.0222 -0.0063 -0.0395
32774ION     NA48668  11.837   2.973   5.030  0.0045 -0.1189 -0.3158
32775ION     NA48669   5.370  12.559  15.602  0.0623  0.0680 -0.2235
32776ION     NA48670   0.133  13.977   2.777 -0.0347  0.0437 -0.0665
32777ION     NA48671   1.908   7.968   0.504 -0.3545 -0.0541  0.1279
32778ION     NA48672   4.689  11.799  10.737 -0.1392 -0.1820 -0.0497
32779ION     NA48673  17.003   0.683  11.756  0.3432 -0.1057 -0.1011
32780ION     NA48674   1.310  16.211   3.844  0.1416  0.4182 -0.0978
32781ION     NA48675   6.745   9.459  11.070  0.3332  0.0036 -0.0047
32782ION     NA48676  11.020  14.331  11.067  0.1282  0.0833  0.2111
32783ION     NA48677  15.391   3.775  10.454  0.4163  0.2189  0.2040
32784ION     NA48678  12.153  11.080  11.155  0.2723  0.0057 -0.0931
32785ION     NA48679  15.009   6.387   5.803 -0.0948  0.0189  0.0685
32786ION     NA48680   1.928  11.879  14.046 -0.2009 -0.0081 -0.1890
32787ION     NA48681   6.857   0.760  10.692  0.0455  0.0692  0.0187
32788ION     NA48682   7.276   2.943  10.958  0.1560 -0.1047 -0.1305
32789ION     NA48683  11.858  15.869   6.292  0.0757  0.1192  0.0727
32790ION     NA48684   4.566   3.039  10.673  0.0311 -0.1385  0.0670
32791ION     NA48685   1.045   3.898   1.365  0.0835 -0.3795 -0.3578
32792ION     NA48686   7.296   0.484  10.746 -0.0989  0.1216  0.3612
32793ION     NA48687  12.928  12.918  11.274 -0.1176  0.2459 -0.0527
32794ION     NA48688   5.407   8.055  10.832 -0.0576  0.1274  0.1039
32795ION     NA48689   4.154   5.358   5.910  0.3179  0.0655  0.1269
32796ION     NA48690   7.352  10.431   3.478  0.3701  0.2725  0.1342
32797ION     NA48691   9.804   3.947   6.294 -0.1043  0.0627 -0.0123
32798ION     NA48692   4.372  10.871  10.917  0.1459  0.2016  0.0704
32799ION     NA48693  12.974   8.864  11.187  0.0228  0.0343  0.0488
32800ION     NA48694  17.161   7.838  10.780 -0.0058 -0.2204 -0.0579
32801ION     NA48695   2.364  15.442  12.919 -0.0865 -0.0178 -0.2266
32802ION     NA48696  13.715   8.753   5.669  0.0381 -0.0172  0.2283
32803ION     NA48697   8.794  16.032   6.186  0.1837 -0.0750 -0.2778
32804ION     NA48698  16.014   2.639  15.389  0.1385  0.0312  0.3283
32805ION     NA48699   2.655   2.933  10.561  0.1121  0.0607  0.1194
32806ION     NA48700  16.787  13.521  12.006 -0.1522 -0.1324 -0.2567
32807ION     NA48701  14.166   7.383  10.826  0.1017  0.2365  0.1822
32808ION     NA48702   8.654  17.029  10.970  0.0109  0.1162 -0.1759
32809ION     NA48703   5.490   2.015   4.891 -0.2933  0.4832 -0.0172
32810ION     NA48704  13.047  14.942  10.960  0.1323  0.4113 -0.0959
32811ION     NA48705  16.142  12.823   3.038  0.0220  0.2995  0.1789
32812ION     NA48706   2.801   5.486   5.953  0.1687 -0.0104  0.1935
32813ION     NA48707   6.300  16.403  10.656 -0.1400  0.1661  0.4821
32814ION     NA48708  17.588   1.960  10.730 -0.1427  0.0456  0.0460
32815ION     NA48709  14.509  10.531  11.172  0.2102  0.3527 -0.0488
32816ION     NA48710   5.878  17.300  10.602 -0.4202 -0.1098  0.1871
32817ION     NA48711   3.381   4.473  10.843 -0.1288 -0.0411 -0.1695
32818ION     NA48712   7.336  11.744   0.850 -0.1489  0.1809 -0.2388
32819ION     NA48713  17.352   3.069   2.320 -0.1619  0.0296 -0.0741
32820ION     NA48714   3.819  10.312  10.748  0.0330 -0.1932  0.6030
32821ION     NA48715  12.044   9.610   1.544  0.0840  0.1107 -0.0110
32822ION     NA48716  10.265   8.074  11.866  0.0676 -0.0275  0.0520
32823ION     NA48717  14.653   6.632  10.759  0.1575 -0.2482 -0.3449
32824ION     NA48718   1.606  15.814  16.778  0.2095  0.1218 -0.1180
32825ION     NA48719   1.471  17.161   0.895 -0.0738  0.1236  0.2881
32826ION     NA48720   9.432   1.788  10.827 -0.1543 -0.3238 -0.2645
32827ION     NA48721   2.579  16.525  10.866  0.1391 -0.0562  0.1080
32828ION     NA48722   6.266   7.024  15.885  0.0823 -0.2316 -0.0828
32829ION     NA48723   8.512   5.027  10.886  0.3017  0.2249 -0.0630
32830ION     NA48724  10.533   8.967  10.775  0.0889  0.2481 -0.1006
32831ION     NA48725   1.775  13.449  13.136  0.1732  0.0038 -0.4553
32832ION     NA48726   0.377   1.190  10.593 -0.0517  0.1104 -0.1117
32833ION     NA48727   7.241  15.296  10.980 -0.0520 -0.2345  0.0537
32834ION     NA48728   5.989   2.884  10.696 -0.0371 -0.0105 -0.1223
32835ION     NA48729   3.087   8.433  10.471  0.2602  0.3260  0.0576
32836ION     NA48730   7.615   8.983  11.025 -0.0727  0.0212  0.2412
32837ION     NA48731  17.750   6.621  16.433  0.0301  0.0797 -0.0097
32838ION     NA48732  17.536  12.789   3.641 -0.2466 -0.0111  0.3119
32839ION     NA48733  11.745   3.245   6.255  0.1967  0.1459  0.1828
32840ION     NA48734  12.600   0.326  10.604 -0.0100  0.0670 -0.2057
32841ION     NA48735  10.608   4.740  10.711 -0.0134 -0.0881  0.2814
32842ION     NA48736   5.973   0.628  10.708  0.1415 -0.0587 -0.0514
32843ION     NA48737   7.534  11.395  10.981 -0.0102  0.1851  0.0341
32844ION     NA48738   8.111   6.398   5.732 -0.0448 -0.3185 -0.0134
32845ION     NA48739  10.224   0.025  10.781 -0.1224  0.0310  0.0525
32846ION     NA48740   1.825   7.223  10.618  0.0270 -0.0072 -0.0810
32847ION     NA48741  13.740  12.746  11.345  0.1928 -0.1015  0.1524
32848ION     NA48742  16.290  14.289  14.372 -0.0661 -0.0930 -0.1640
32849ION     NA48743   7.938  15.873   0.808  0.0993  0.0203  0.1728
32850ION     NA48744   6.578   4.119  11.239  0.0505 -0.4071 -0.1902
32851ION     NA48745  12.719   3.211  10.442 -0.0720  0.0029  0.0021
32852ION     NA48746  11.359   9.469  11.246  0.2018 -0.1586  0.1686
32853ION     NA48747   9.266   6.956  11.092  0.2410 -0.0070 -0.2331
32854ION     NA48748  12.105   1.561  10.412 -0.1386 -0.0529  0.0212
32855ION     NA48749  13.686   3.017  10.467 -0.0272 -0.0495  0.0174
32856ION     NA48750   1.464   5.217   6.025  0.0461  0.1677 -0.4458
32857ION     NA48751  17.636  17.378  12.752  0.1821  0.0356  0.1596
32858ION     NA48752   8.506   8.119  11.250  0.3217  0.1296  0.0291
32859ION     NA48753  13.315   0.464   5.649 -0.0303 -0.0106  0.1735
32860ION     NA48754   9.217  10.961  11.012  0.0217 -0.0127 -0.1822
32861ION     NA48755  10.565  12.442  11.018 -0.1190  0.1289  0.2846
32862ION     NA48756  12.077  14.683  12.428 -0.4043 -0.2705 -0.0767
32863ION     NA48757  15.363   9.297  12.150  0.1043 -0.0681 -0.3073
32864ION     NA48758  12.128   7.409   5.287 -0.0583  0.0651 -0.0367
32865ION     NA48759   1.412   2.724  10.836  0.0225 -0.2214  0.1185
32866ION     NA48760   9.887   1.686   6.014 -0.3130 -0.0986 -0.0643
32867ION     NA48761   8.575   4.983   6.652 -0.3490  0.1039  0.2192
32868ION     NA48762   1.330   0.332  10.751 -0.0727 -0.1306 -0.0675
32869ION     NA48763  16.985   3.648   0.376  0.3022  0.4150  0.0505
32870ION     NA48764  16.141   9.744  11.041  0.0501 -0.0100  0.1130
32871ION     NA48765  15.699  10.170   5.919 -0.2233 -0.0479  0.0324
32872ION     NA48766  11.272   6.573  12.931  0.4102  0.1515  0.1676
32873ION     NA48767  12.095   6.748  11.166 -0.2934 -0.0335  0.1925
32874ION     NA48768   0.726  17.730  10.619  0.0122 -0.1024 -0.0914
32875ION     NA48769   4.242   4.841  10.757  0.0283 -0.1309  0.1387
32876ION     NA48770   3.417   2.231  10.482  0.3435 -0.0093  0.1027
32877ION     NA48771   7.348  10.402   6.549 -0.0275  0.2427 -0.1782
32878ION     NA48772   4.610  17.024  10.844 -0.0179 -0.1548 -0.0881
32879ION     NA48773   2.025  13.553  10.785  0.1675  0.1454  0.3518
32880ION     NA48774   6.321   8.060  11.003 -0.2636  0.0157 -0.3655
32881ION     NA48775   5.799   8.852  10.781 -0.2488  0.0419 -0.2877
32882ION     NA48776  11.766   0.538  10.617 -0.1961 -0.0921 -0.3694
32883ION     NA48777   6.913  13.206  10.961  0.3087  0.0887  0.0003
32884ION     NA48778   8.366   4.115  10.866 -0.1155 -0.0797 -0.1530
32885ION     NA48779  11.820   3.657  10.667 -0.1605  0.0580 -0.1006
32886ION     NA48780  10.471   4.879  14.109  0.0293  0.0657 -0.3575
32887ION     NA48781   7.536   8.241  11.236 -0.2575  0.1709 -0.1476
32888ION     NA48782   0.591  16.523   4.944  0.2086 -0.1232  0.0883
32889ION     NA48783   3.605   9.952  11.358  0.1633  0.1013 -0.1717
32890ION     NA48784   9.238  11.951  10.840  0.1167 -0.1598 -0.2015
32891ION     NA48785  15.325  13.944  11.097 -0.1984 -0.3086 -0.2832
32892ION     NA48786   5.701  10.215  16.394 -0.1661  0.1692  0.2194
32893ION     NA48787  11.812  15.609  10.804 -0.2229 -0.0440 -0.1956
32894ION     NA48788  14.637  12.625  11.307 -0.1379  0.1113 -0.1743
32895ION     NA48789  15.054   3.194  10.447  0.1825  0.0056 -0.1354
32896ION     NA48790  12.104   8.401  13.525  0.1458  0.0311 -0.0543
32897ION     NA48791   3.616   7.898  10.511 -0.1604 -0.1813  0.0012
32898ION     NA48792   3.413   1.044   4.029 -0.0967  0.2407 -0.0945
32899ION     NA48793  15.997  11.169   5.793 -0.1348  0.1277 -0.1523
32900ION     NA48794   2.883   9.271  10.513  0.0920  0.0290  0.0919
32901ION     NA48795   4.625  10.061  10.852 -0.0214 -0.3037 -0.1203
32902ION     NA48796  12.281   6.948  15.135 -0.0035  0.1846  0.1635
32903ION     NA48797   7.499   4.328  15.182  0.2589  0.1866  0.0885
32904ION     NA48798  12.486   1.063  14.064 -0.1501 -0.1310 -0.1239
32905ION     NA48799   4.364  12.487  10.808 -0.2660 -0.0678  0.0269
32906ION     NA48800   0.264   3.937  11.122  0.0097  0.0632  0.0860
32907ION     NA48801   4.614   2.199   5.522 -0.2241 -0.4118 -0.2230
32908ION     NA48802   8.126  15.490   4.767  0.0077  0.0519  0.2286
32909ION     NA48803  14.032   5.946  10.731  0.0933 -0.2420  0.1643
32910ION     NA48804  10.055   7.208  11.062 -0.1115  0.0108 -0.3040
32911ION     NA48805  15.104  17.488  10.888 -0.0198 -0.0635  0.0268
32912ION     NA48806   1.910   3.586  10.796  0.3982  0.0073 -0.1650
32913ION     NA48807   4.249   9.338  14.300  0.1813  0.1796  0.1681
32914ION     NA48808  14.726  16.587  10.717 -0.1031  0.0079  0.0711
32915ION     NA48809  10.327   2.455  11.102  0.0382  0.2915  0.1572
32916ION     NA48810   5.238   1.176   0.665 -0.0047 -0.0683  0.2466
32917ION     NA48811   5.355   0.774   5.418 -0.2714  0.0453  0.1625
32918ION     NA48812  13.041   2.945  13.222 -0.0513 -0.1636  0.2716
32919ION     NA48813  16.062   4.280   4.450  0.2012 -0.0929  0.0040
32920ION     NA48814   2.415  10.346  10.796  0.0237  0.0750  0.0135
32921ION     NA48815  10.688   0.845  10.608 -0.0322 -0.2862  0.1252
32922ION     NA48816   6.519   1.353   5.201 -0.3926 -0.1704 -0.2627
32923ION     NA48817  10.983  10.154   4.616  0.1137 -0.0044 -0.0345
32924ION     NA48818  15.637   4.600   1.073  0.1967 -0.3287 -0.1961
32925ION     NA48819   7.560  13.923   3.983 -0.2643  0.0875 -0.0209
32926ION     NA48820  10.347   4.635  16.543  0.1950  0.0068 -0.2551
32927ION     NA48821   7.708   5.137  11.002  0.2607 -0.1518 -0.1102
32928ION     NA48822   9.283  12.097  15.373 -0.1122 -0.2087  0.2165
32929ION     NA48823  15.113   0.537  10.568  0.0781 -0.3103 -0.3271
32930ION     NA48824  16.466  10.801  11.621 -0.0003 -0.3452  0.0115
32931ION     NA48825  17.738  16.587   6.207  0.0217 -0.1171 -0.0446
32932ION     NA48826   8.661   0.879   0.009 -0.0647  0.1386 -0.1631
32933ION     NA48827   3.741   1.341  10.544  0.0278 -0.2478  0.0783
32934ION     NA48828  13.451  12.607  16.875 -0.2319 -0.1844  0.1148
32935ION     NA48829   8.426   3.588   4.257 -0.3414  0.3173 -0.1570
32936ION     NA48830   9.236   4.248  11.108 -0.1844 -0.1922 -0.1348
32937ION     NA48831  13.158  10.213   0.096 -0.5204  0.0069  0.3524
32938ION     NA48832   5.371  16.676  11.000  0.0693  0.1484  0.1273
32939ION     NA48833  12.158   9.758   0.295  0.2488  0.1680  0.2100
32940ION     NA48834  12.955   4.961  10.446  0.0740 -0.4374 -0.0112
32941ION     NA48835  10.246  11.285   1.097  0.0191  0.1178 -0.0814
32942ION     NA48836   7.458   3.772  10.897 -0.1446 -0.0589 -0.3049
32943ION     NA48837   2.176  15.081  11.000  0.0743 -0.0121 -0.1204
32944ION     NA48838  13.845  14.413  11.168  0.0961 -0.0219  0.2753
32945ION     NA48839   3.476  16.933   6.034  0.1182  0.1419 -0.0868
32946ION     NA48840   4.989   8.497   4.324  0.1443  0.0044  0.1262
32947ION     NA48841   2.042   5.030  10.693 -0.0845  0.1407 -0.1213
32948ION     NA48842   0.971   2.665  15.483  0.1375 -0.1543  0.1506
32949ION     NA48843   2.641   5.693  10.769 -0.0641  0.0653  0.2260
32950ION     NA48844   8.230  13.776  11.063 -0.0796  0.3952  0.0414
32951ION     NA48845   5.341   6.266  11.118 -0.1736 -0.1438  0.2499
32952ION     NA48846   1.761   6.401  10.579  0.0965 -0.1277 -0.0289
32953ION     NA48847   0.726   2.075  10.682 -0.1061 -0.2094 -0.0931
32954ION     NA48848   1.608  13.611   1.435 -0.0441  0.2055 -0.0314
32955ION     NA48849   6.369  11.819  11.022 -0.0646 -0.0733  0.1269
32956ION     NA48850  15.282  10.745  11.268  0.0361 -0.2387  0.3251
32957ION     NA48851  17.147  12.064  13.431 -0.1579  0.2075  0.2821
32958ION     NA48852   5.730  12.398   3.822 -0.3596 -0.2169 -0.3312
32959ION     NA48853   0.411  16.852  10.825  0.1300 -0.1563  0.0966
32960ION     NA48854   6.788  15.298   3.923  0.1330  0.1250  0.1230
32961ION     NA48855  16.041   0.860  10.509  0.4365 -0.4212 -0.1377
32962ION     NA48856  11.490   5.332  15.882 -0.0347 -0.0373 -0.0766
32963ION     NA48857   3.262  14.165   4.622 -0.1376  0.2535  0.0340
32964ION     NA48858  14.168   1.591  10.677  0.0056 -0.0950  0.1721
32965ION     NA48859  11.345  11.161   3.020 -0.3164 -0.1030 -0.2136
32966ION     NA48860   2.559   1.126   3.325  0.0807 -0.3746 -0.0970
32967ION     NA48861   5.459   1.273  10.592 -0.1134 -0.0478  0.1409
32968ION     NA48862   1.009   4.872   2.036 -0.0997  0.1163  0.0758
32969ION     NA48863   8.666   6.874   1.784  0.0159 -0.2257  0.0309
32970ION     NA48864  16.131  11.480  14.475  0.1054  0.2478  0.1436
32971ION     NA48865  13.855   0.138  10.275 -0.1927  0.1958  0.1835
32972ION     NA48866  16.491   3.389  10.516  0.0854  0.0762  0.1156
32973ION     NA48867  16.088   5.287  10.389 -0.1565 -0.1323  0.0284
32974ION     NA48868  11.664   4.595  10.700  0.1559  0.2253 -0.5160
32975ION     NA48869  17.715  12.407  10.999 -0.1863  0.0549  0.1540
32976ION     NA48870  15.600   1.799  10.412 -0.2983  0.1051  0.1301
32977ION     NA48871   4.821   1.912  10.521 -0.2392  0.0593  0.1584
32978ION     NA48872   6.682   3.562   0.784  0.3508 -0.1415 -0.1428
32979ION     NA48873  13.706  15.704  16.591 -0.0098  0.1696 -0.2803
32980ION     NA48874   6.767   7.302  11.118 -0.1991  0.2354  0.0135
32981ION     NA48875   9.371  12.758   1.466 -0.3912 -0.1577 -0.0196
32982ION     NA48876  15.440  12.097  11.424  0.2399 -0.1149  0.0831
32983ION     NA48877  11.191   8.386  11.012  0.1135 -0.0783 -0.2843
32984ION     NA48878  17.130   7.408   6.456  0.1892  0.2057  0.0562
32985ION     NA48879  14.718  16.277   5.002 -0.2979 -0.1273  0.2649
32986ION     NA48880   9.578  10.332  15.112  0.1140 -0.1269 -0.2383
32987ION     NA48881   8.591  13.061  10.794 -0.2383  0.0757  0.2186
32988ION     NA48882   6.066   9.705  10.854  0.0649 -0.1246 -0.0531
32989ION     NA48883   8.416   1.919   5.373 -0.0741  0.2796 -0.0231
32990ION     NA48884   1.184   2.572   2.668 -0.0397 -0.1758  0.0952
32991ION     NA48885   6.392   5.076   5.744  0.0027 -0.2108 -0.0244
32992ION     NA48886   7.138  16.235  10.997 -0.1825  0.1639 -0.3102
32993ION     NA48887  17.427   2.998  10.426 -0.0437  0.0315 -0.2675
32994ION     NA48888   5.901   4.561  10.944  0.0059 -0.1596 -0.2379
32995ION     NA48889   5.585   5.357  11.070  0.0154 -0.2905  0.0652
32996ION     NA48890  14.542  11.423   1.417  0.1758  0.1592  0.2862
32997ION     NA48891   8.013  15.979  10.934  0.2149 -0.2873  0.1721
32998ION     NA48892   1.505   9.825   2.062  0.0202  0.5717  0.1527
32999ION     NA48893   6.619   0.017  11.258 -0.0734 -0.3538 -0.0236
33000ION     NA48894   2.221   0.699  10.502 -0.0420  0.1257  0.1208
33001ION     NA48895   9.584  13.170  11.171 -0.2395 -0.1076 -0.2257
33002ION     NA48896  11.663  12.949   6.212 -0.0695 -0.0107 -0.2632
33003ION     NA48897   1.647   1.416  10.512 -0.3601  0.3700  0.5441
33004ION     NA48898  12.593  17.191  10.653  0.0499  0.2913 -0.1274
33005ION     NA48899  11.172  16.196  10.983 -0.2333  0.0888  0.2468
33006ION     NA48900   5.004   4.506  10.797 -0.2204 -0.2286 -0.1574
33007ION     NA48901   2.276   7.334   3.923 -0.0992  0.0542 -0.0857
33008ION     NA48902  14.567  11.799  11.611 -0.0194 -0.0809  0.1311
33009ION     NA48903  16.360  11.543  16.897  0.1650 -0.1048  0.1267
33010ION     NA48904  16.358  16.680  16.351 -0.3647 -0.1355 -0.1295
33011ION     NA48905   1.284  12.026   6.317 -0.1060  0.0090  0.1448
33012ION     NA48906  12.850  14.026   4.542 -0.1542  0.2725 -0.4268
33013ION     NA48907  11.479   5.176   1.200 -0.0959  0.0414  0.0785
33014ION     NA48908  12.533   2.869  10.776 -0.2171  0.1599 -0.0985
33015ION     NA48909   9.325   3.491   0.700 -0.2252  0.1533  0.0282
33016ION     NA48910  10.629   2.225   6.095  0.1619 -0.0861  0.1052
33017ION     NA48911   5.280   3.004  12.046 -0.1451  0.2033 -0.2107
33018ION     NA48912  10.212   1.657  10.686 -0.2463  0.1654 -0.0256
33019ION     NA48913   0.020   4.092  13.724  0.2407 -0.0712  0.0440
33020ION     NA48914  12.175   0.108  10.843 -0.0704  0.2208  0.0686
33021ION     NA48915   8.403   1.703   3.246  0.1067 -0.2211  0.0098
33022ION     NA48916   6.454   6.006   2.602 -0.0833 -0.0511 -0.0504
33023ION     NA48917  14.176  16.409  10.795 -0.1540  0.0185  0.1709
33024ION     NA48918   1.015   7.806   3.818  0.0419 -0.0951 -0.1759
33025ION     NA48919   9.672   8.551   2.166  0.1320 -0.0894  0.1833
33026ION     NA48920   9.682   0.336   5.145 -0.1175 -0.0468  0.2471
33027ION     NA48921   6.167   5.967  11.213 -0.4157 -0.0358 -0.0590
33028ION     NA48922  12.797   6.101  10.701 -0.0259  0.3070 -0.1711
33029ION     NA48923   7.935  12.143   2.202  0.1642 -0.0375  0.0835
33030ION     NA48924   2.169   1.085   6.328  0.2726  0.1742 -0.1402
33031ION     NA48925  16.861   4.674  10.474  0.0216 -0.0312  0.0035
33032ION     NA48926   6.943  15.153   6.116  0.0400  0.0389  0.1786
33033ION     NA48927  10.065   5.955   6.217  0.0800  0.1911  0.3512
33034ION     NA48928  10.629  14.300   6.006 -0.2116  0.3314  0.0411
33035ION     NA48929   6.871   2.685  14.324  0.0255 -0.2923 -0.1512
33036ION     NA48930  12.151   1.196  12.050  0.1212  0.1405 -0.0011
33037ION     NA48931   7.283   1.444  10.633 -0.3947 -0.0926  0.2379
33038ION     NA48932  10.835  12.654   6.232  0.3080  0.0132 -0.1214
33039ION     NA48933   4.581   0.985  14.520  0.0667 -0.0822 -0.3308
33040ION     NA48934   1.039   1.194  13.460  0.2546 -0.0699  0.0485
33041ION     NA48935   0.596   6.811   1.665  0.1945 -0.1942 -0.0921
33042ION     NA48936   1.256   6.555  10.272 -0.1743 -0.0264 -0.4667
33043ION     NA48937   8.666   3.410  11.535 -0.1619 -0.3350  0.0398
33044ION     NA48938   7.891   2.305  10.891 -0.1305  0.1197  0.0364
33045ION     NA48939   7.411  14.964   6.312 -0.1738 -0.0615 -0.0310
33046ION     NA48940   9.208  15.121  11.171 -0.1194 -0.0384 -0.1391
33047ION     NA48941   0.098   8.243  14.510  0.0874 -0.1030  0.1603
33048ION     NA48942   1.640  14.289  11.098  0.1079 -0.0713 -0.2912
33049ION     NA48943   2.138  14.226   5.154 -0.0734  0.1489  0.0452
33050ION     NA48944  15.738  14.800  11.010  0.1505  0.1223 -0.3349
33051ION     NA48945   1.890   2.493   0.914  0.3003  0.0187 -0.0766
33052ION     NA48946  12.283  16.428  10.691  0.0876 -0.3069  0.3470
33053ION     NA48947  12.199   6.357  14.795 -0.3913  0.2316  0.0685
33054ION     NA48948  17.012  15.826  10.967 -0.0342  0.0456 -0.1229
33055ION     NA48949  13.253   9.823  15.426  0.1589  0.0238 -0.0200
33056ION     NA48950  10.614   8.778  11.556  0.2029  0.0748 -0.0965
33057ION     NA48951  17.102   6.856  13.295  0.0020  0.1896 -0.3573
33058ION     NA48952  12.223   3.300   6.090 -0.0248  0.0159 -0.3215
33059ION     NA48953   3.543  12.668  11.046 -0.0981  0.0142 -0.0130
33060ION     NA48954   8.871   0.200  10.788 -0.2369 -0.1386 -0.0904
33061ION     NA48955  10.999   2.049  10.601 -0.2040  0.0903 -0.0021
33062ION     NA48956  17.207  11.920   0.866 -0.0585 -0.1188  0.2403
33063ION     NA48957   0.166   8.499   1.248  0.0624  0.1721  0.1175
33064ION     NA48958  12.983  13.781   6.374 -0.1619 -0.0822  0.1107
33065ION     NA48959  17.049  11.258  11.248 -0.1210  0.0508  0.0035
33066ION     NA48960   4.431  14.094  10.923 -0.1129 -0.4703  0.0462
33067ION     NA48961   8.073   5.922   6.406 -0.2554 -0.0701  0.0319
33068ION     NA48962   0.869   1.127  10.433 -0.0652 -0.0119 -0.2491
33069ION     NA48963  10.385  15.371   2.444  0.0497  0.1543 -0.0759
33070ION     NA48964  10.129  11.245   3.820  0.1643 -0.0655 -0.3039
33071ION     NA48965  11.657  13.589   0.301  0.1624 -0.0709  0.0487
33072ION     NA48966  15.691   5.750   5.951 -0.1557  0.2554  0.1068
33073ION     NA48967  12.622   8.172   6.308  0.2963 -0.2056  0.0768
33074ION     NA48968  17.403   9.921   3.888 -0.1929  0.1328  0.2631
33075ION     NA48969   8.589  10.375  16.257  0.3338 -0.2093  0.1141
33076ION     NA48970   6.681   5.635   1.208 -0.1097 -0.2916 -0.0675
33077ION     NA48971   6.920   4.528  11.133  0.3976 -0.4448  0.0586
33078ION     NA48972   0.460   4.108   0.025 -0.2555  0.0869  0.1895
33079ION     NA48973  17.665   4.943  10.299  0.1143 -0.0450 -0.1104
33080ION     NA48974   9.935  11.389  16.573 -0.1402 -0.2498 -0.1676
33081ION     NA48975   7.434  10.787   2.382 -0.5173 -0.1782 -0.1357
33082ION     NA48976   6.207  17.764   6.253 -0.2448  0.1410  0.0344
33083ION     NA48977  17.417   8.060  16.514  0.1824  0.1665 -0.1973
33084ION     NA48978   5.841   2.567   5.764  0.1050 -0.2447  0.0917
33085ION     NA48979   3.237  14.299   3.634  0.0275  0.1413 -0.1841
33086ION     NA48980   8.415  13.681   3.545 -0.1126 -0.1658  0.1224
33087ION     NA48981   1.587  10.583  13.469 -0.2147  0.1097 -0.0294
33088ION     NA48982   0.084   2.891  15.930  0.1561 -0.0801 -0.1836
33089ION     NA48983   9.276  16.203   3.368 -0.0546 -0.1176  0.1209
33090ION     NA48984   5.901  12.286   6.142  0.1471 -0.2863 -0.3251
33091ION     NA48985   0.325   5.597  10.993 -0.2852  0.0376 -0.0815
33092ION     NA48986   7.637   4.056   6.291 -0.1771 -0.0923  0.1348
33093ION     NA48987  12.329  12.955  11.125 -0.2649  0.2908 -0.0976
33094ION     NA48988  11.168  16.219   5.909 -0.0585 -0.0466  0.0177
33095ION     NA48989   5.031   3.569   2.566 -0.1279 -0.0821  0.1319
33096ION     NA48990  12.670  15.702  10.582 -0.3050  0.0455  0.1043
33097ION     NA48991  15.778   0.051  10.615 -0.3873  0.3630 -0.2265
33098ION     NA48992  16.103  14.338   6.287 -0.1167  0.1272 -0.1823
33099ION     NA48993   0.913  10.233   3.735 -0.0282 -0.3405 -0.0399
33100ION     NA48994   8.012   2.677  11.578  0.0979  0.0608  0.1872
33101ION     NA48995  10.867   6.862  13.845 -0.0827  0.3252 -0.1138
33102ION     NA48996  12.081  13.680   1.712 -0.4356 -0.3630  0.1859
33103ION     NA48997   9.161   5.149   5.523 -0.2402 -0.0818  0.0119
33104ION     NA48998   9.149   5.574   3.843 -0.1065 -0.0435 -0.0650
33105ION     NA48999   1.098   9.089  10.478  0.1643 -0.1428 -0.1558
33106ION     NA49000   9.215   7.788  16.818 -0.2151  0.1536 -0.1952
33107ION     NA49001   9.954   4.681  11.357 -0.0711 -0.0230  0.3426
33108ION     NA49002   4.929   1.424   3.682 -0.0360  0.0824 -0.1076
33109ION     NA49003   5.442   1.921   1.378  0.1507  0.1885 -0.1929
33110ION     NA49004  10.760  15.908  11.871 -0.2663  0.0204 -0.2159
33111ION     NA49005   7.508  15.272   0.085  0.0877  0.3946 -0.0431
33112ION     NA49006  12.850  10.993   6.240  0.0038  0.1631  0.0882
33113ION     NA49007   5.708  14.934  11.055 -0.0506 -0.0265  0.0693
33114ION     NA49008   2.451  12.734   6.113  0.1194  0.1933 -0.1491
33115ION     NA49009   4.462   7.496  10.709  0.2873 -0.1863  0.1178
33116ION     NA49010  10.614  13.463  11.235 -0.1030  0.0053  0.0497
33117ION     NA49011  16.190   1.630  10.368  0.1552 -0.0036  0.2166
33118ION     NA49012  10.616  17.619   6.167  0.0615  0.0443  0.3897
33119ION     NA49013   8.641   8.026   4.325  0.0700 -0.0274 -0.0330
33120ION     NA49014   0.636   9.884   6.124  0.1053  0.0401 -0.0681
33121ION     NA49015   9.323   8.295  11.328  0.1575  0.1884  0.0203
33122ION     NA49016  10.331   3.323  10.727 -0.0723 -0.1037  0.2218
33123ION     NA49017   8.510  15.974  10.882 -0.0732 -0.3215 -0.1688
33124ION     NA49018  16.061   2.256   2.830 -0.2074  0.1875  0.0578
33125ION     NA49019   3.103   9.846  10.837  0.2128 -0.1822  0.2025
33126ION     NA49020   5.839   4.003  10.807 -0.3705  0.0984  0.0376
33127ION     NA49021   9.050  16.039  10.852 -0.0462  0.1918  0.4588
33128ION     NA49022  17.026   4.199   6.057 -0.1208 -0.1075  0.3239
33129ION     NA49023  17.608  15.135  10.800  0.1801  0.0059  0.0236
33130ION     NA49024  11.484  12.818  11.239  0.1597  0.0727 -0.0484
33131ION     NA49025   0.859   5.960  10.426 -0.3802 -0.1426 -0.0122
33132ION     NA49026   9.818   6.914   6.371 -0.1310  0.2322 -0.1821
33133ION     NA49027  12.224   9.562  11.120 -0.0131 -0.1304 -0.1548
33134ION     NA49028   5.487  11.338  11.066 -0.0103  0.1584  0.0615
33135ION     NA49029  10.001   8.548  10.791 -0.2998 -0.1694  0.1138
33136ION     NA49030  14.362   9.540  11.094  0.0362  0.1601 -0.0161
33137ION     NA49031   6.341   5.130  11.105 -0.0961  0.1310 -0.1624
33138ION     NA49032  13.070   5.567   3.686 -0.1103 -0.1647 -0.0791
33139ION     NA49033  10.342   8.035  10.899  0.0586 -0.1970  0.1634
33140ION     NA49034   9.649  16.586  11.031 -0.1784  0.2049  0.0657
33141ION     NA49035   5.280  13.989   6.093  0.1730  0.0342  0.1959
33142ION     NA49036   4.139   4.656   0.731 -0.5021  0.0034  0.2419
33143ION     NA49037   8.357  16.812   6.335 -0.1358 -0.3012 -0.0675
33144ION     NA49038   5.624   2.090  10.726 -0.2144  0.1675 -0.2582
33145ION     NA49039   8.422  10.734  10.991  0.2293  0.2069  0.1995
33146ION     NA49040   5.463  10.444  10.938  0.0380 -0.2568 -0.3152
33147ION     NA49041   2.533  14.254  10.944 -0.0140 -0.1144 -0.0828
33148ION     NA49042   3.066   9.287  16.358 -0.3197  0.0552  0.0010
33149ION     NA49043  16.388  17.565  12.318 -0.0531 -0.1630  0.2271
33150ION     NA49044  13.055  13.824   0.121 -0.0203  0.0214  0.2829
33151ION     NA49045   3.219   6.343  10.745 -0.1983  0.0115 -0.2238
33152ION     NA49046  10.231  15.762  11.085  0.1509 -0.1287 -0.2681
33153ION     NA49047  12.370   6.394   4.744 -0.0055 -0.0590 -0.3027
33154ION     NA49048  14.872  13.604  11.657 -0.0398 -0.0289  0.0243
33155ION     NA49049  16.756   8.530  10.763  0.0080 -0.1764  0.1929
33156ION     NA49050   3.433  15.739   3.999 -0.0285  0.0932 -0.1486
33157ION     NA49051   2.781   1.193  15.547 -0.0444 -0.0437  0.0416
33158ION     NA49052   1.404   0.590  16.562  0.2330 -0.1460 -0.0187
33159ION     NA49053   4.122   0.021  10.838  0.0094  0.1798  0.1358
33160ION     NA49054   4.822   7.068  10.892 -0.1665 -0.0068 -0.1793
33161ION     NA49055   7.815   7.361  11.149  0.0190 -0.0689  0.0323
33162ION     NA49056   4.906   9.280  10.657 -0.3170 -0.0378 -0.3035
33163ION     NA49057   2.671  12.752  11.429 -0.0798 -0.1960 -0.2441
33164ION     NA49058  10.764  17.488  14.463  0.0265  0.4230  0.1237
33165ION     NA49059   9.667  13.061   0.080 -0.0746 -0.1818 -0.1562
33166ION     NA49060   6.111  14.102  10.920 -0.2115 -0.0640 -0.3952
33167ION     NA49061   3.504   5.876   5.780  0.0321 -0.2354 -0.1435
33168ION     NA49062   9.897  10.066  11.013 -0.2676  0.2063  0.2468
33169ION     NA49063  11.772   6.353   6.458  0.0280 -0.2263 -0.3051
33170ION     NA49064  15.248  11.364  14.930 -0.0894 -0.0314  0.2372
33171ION     NA49065  10.432   6.528  10.901 -0.1297  0.2334 -0.1674
33172ION     NA49066   5.066   2.751  10.724  0.0866  0.1450 -0.4539
33173ION     NA49067   3.464  17.840  10.642 -0.2457 -0.1017 -0.2712
33174ION     NA49068  13.345   7.750  11.149  0.1050 -0.2882 -0.3143
33175ION     NA49069  15.471   3.489  14.175  0.1744  0.0300  0.2979
  17.85188  17.85188  16.92392
